LAMMPS data file

30 atoms
29 bonds
28 angles

1 atom types
1 bond types
1 angle types

-23.750000 23.750000 xlo xhi
-23.750000 23.750000 ylo yhi
-23.750000 23.750000 zlo zhi

Masses

1 1.0

Atoms

1 1 1 -0.674967 -2.692000 -3.045967 0 0 0
2 1 1 0.415033 -2.020000 -2.801967 0 0 0
3 1 1 0.192033 -1.379000 -2.094967 0 0 0
4 1 1 -0.571967 -1.118000 -1.192967 0 0 0
5 1 1 0.179033 -1.270000 -0.587967 0 0 0
6 1 1 0.157033 -0.470000 0.192033 0 0 0
7 1 1 -0.098967 0.196000 0.727033 0 0 0
8 1 1 -1.033967 0.663000 0.496033 0 0 0
9 1 1 -0.157967 0.358000 -0.507967 0 0 0
10 1 1 0.807033 -0.400000 -0.998967 0 0 0
11 1 1 1.727033 -1.350000 -0.897967 0 0 0
12 1 1 1.007033 -2.092000 -1.045967 0 0 0
13 1 1 1.660033 -2.468000 -0.722967 0 0 0
14 1 1 1.279033 -2.959000 0.053033 0 0 0
15 1 1 0.281033 -3.046000 0.512033 0 0 0
16 1 1 -0.041967 -2.436000 0.256033 0 0 0
17 1 1 -0.222967 -2.781000 1.186033 0 0 0
18 1 1 -0.562967 -2.147000 1.917033 0 0 0
19 1 1 -0.926967 -1.493000 2.353033 0 0 0
20 1 1 -1.397967 -0.887000 2.136033 0 0 0
21 1 1 -1.396967 0.052000 2.463033 0 0 0
22 1 1 -0.620967 0.657000 2.143033 0 0 0
23 1 1 -0.384967 1.926000 2.207033 0 0 0
24 1 1 -0.312967 2.540000 1.773033 0 0 0
25 1 1 -0.698967 3.600000 1.334033 0 0 0
26 1 1 -1.007967 3.772000 0.124033 0 0 0
27 1 1 -0.386967 3.766000 -0.572967 0 0 0
28 1 1 0.453033 4.468000 -1.028967 0 0 0
29 1 1 0.867033 4.513000 -1.684967 0 0 0
30 1 1 1.476033 4.497000 -2.687967 0 0 0

Bonds

1 1 1 2
2 1 2 3
3 1 3 4
4 1 4 5
5 1 5 6
6 1 6 7
7 1 7 8
8 1 8 9
9 1 9 10
10 1 10 11
11 1 11 12
12 1 12 13
13 1 13 14
14 1 14 15
15 1 15 16
16 1 16 17
17 1 17 18
18 1 18 19
19 1 19 20
20 1 20 21
21 1 21 22
22 1 22 23
23 1 23 24
24 1 24 25
25 1 25 26
26 1 26 27
27 1 27 28
28 1 28 29
29 1 29 30

Angles

1 1 1 2 3
2 1 2 3 4
3 1 3 4 5
4 1 4 5 6
5 1 5 6 7
6 1 6 7 8
7 1 7 8 9
8 1 8 9 10
9 1 9 10 11
10 1 10 11 12
11 1 11 12 13
12 1 12 13 14
13 1 13 14 15
14 1 14 15 16
15 1 15 16 17
16 1 16 17 18
17 1 17 18 19
18 1 18 19 20
19 1 19 20 21
20 1 20 21 22
21 1 21 22 23
22 1 22 23 24
23 1 23 24 25
24 1 24 25 26
25 1 25 26 27
26 1 26 27 28
27 1 27 28 29
28 1 28 29 30
