LAMMPS data file

30 atoms
29 bonds
28 angles

1 atom types
1 bond types
1 angle types

-23.750000 23.750000 xlo xhi
-23.750000 23.750000 ylo yhi
-23.750000 23.750000 zlo zhi

Masses

1 1.0

Atoms

1 1 1 1.088133 -3.714133 1.987033 0 0 0
2 1 1 0.769133 -3.758133 1.137033 0 0 0
3 1 1 0.543133 -2.881133 1.387033 0 0 0
4 1 1 0.958133 -1.981133 1.874033 0 0 0
5 1 1 2.094133 -1.194133 1.309033 0 0 0
6 1 1 1.894133 -1.391133 2.110033 0 0 0
7 1 1 1.625133 -1.848133 2.846033 0 0 0
8 1 1 1.360133 -2.788133 2.591033 0 0 0
9 1 1 2.025133 -2.673133 1.968033 0 0 0
10 1 1 1.627133 -2.106133 0.833033 0 0 0
11 1 1 1.680133 -1.856133 0.007033 0 0 0
12 1 1 1.804133 -0.976133 -0.275967 0 0 0
13 1 1 1.613133 0.103867 -1.036967 0 0 0
14 1 1 1.494133 1.242867 -0.591967 0 0 0
15 1 1 0.621133 1.516867 0.062033 0 0 0
16 1 1 0.259133 2.680867 0.106033 0 0 0
17 1 1 0.970133 3.078867 0.002033 0 0 0
18 1 1 0.643133 2.538867 -1.016967 0 0 0
19 1 1 1.179133 1.743867 -1.744967 0 0 0
20 1 1 0.063133 1.585867 -2.077967 0 0 0
21 1 1 -1.029867 1.011867 -2.005967 0 0 0
22 1 1 -1.959867 0.466867 -2.228967 0 0 0
23 1 1 -2.775867 0.295867 -2.654967 0 0 0
24 1 1 -3.130867 1.475867 -2.394967 0 0 0
25 1 1 -3.955867 1.728867 -1.824967 0 0 0
26 1 1 -3.668867 0.513867 -0.969967 0 0 0
27 1 1 -3.240867 1.337867 -0.034967 0 0 0
28 1 1 -2.273867 1.438867 -0.032967 0 0 0
29 1 1 -1.486867 2.035867 0.192033 0 0 0
30 1 1 -0.788867 2.369867 0.481033 0 0 0

Bonds

1 1 1 2
2 1 2 3
3 1 3 4
4 1 4 5
5 1 5 6
6 1 6 7
7 1 7 8
8 1 8 9
9 1 9 10
10 1 10 11
11 1 11 12
12 1 12 13
13 1 13 14
14 1 14 15
15 1 15 16
16 1 16 17
17 1 17 18
18 1 18 19
19 1 19 20
20 1 20 21
21 1 21 22
22 1 22 23
23 1 23 24
24 1 24 25
25 1 25 26
26 1 26 27
27 1 27 28
28 1 28 29
29 1 29 30

Angles

1 1 1 2 3
2 1 2 3 4
3 1 3 4 5
4 1 4 5 6
5 1 5 6 7
6 1 6 7 8
7 1 7 8 9
8 1 8 9 10
9 1 9 10 11
10 1 10 11 12
11 1 11 12 13
12 1 12 13 14
13 1 13 14 15
14 1 14 15 16
15 1 15 16 17
16 1 16 17 18
17 1 17 18 19
18 1 18 19 20
19 1 19 20 21
20 1 20 21 22
21 1 21 22 23
22 1 22 23 24
23 1 23 24 25
24 1 24 25 26
25 1 25 26 27
26 1 26 27 28
27 1 27 28 29
28 1 28 29 30
