LAMMPS data file

30 atoms
29 bonds
28 angles

1 atom types
1 bond types
1 angle types

-23.750000 23.750000 xlo xhi
-23.750000 23.750000 ylo yhi
-23.750000 23.750000 zlo zhi

Masses

1 1.0

Atoms

1 1 1 2.053000 0.971000 0.934933 0 0 0
2 1 1 2.734000 1.538000 1.221933 0 0 0
3 1 1 2.110000 2.055000 0.336933 0 0 0
4 1 1 1.657000 2.147000 1.040933 0 0 0
5 1 1 0.802000 1.879000 1.467933 0 0 0
6 1 1 0.629000 1.844000 2.342933 0 0 0
7 1 1 1.513000 1.648000 2.654933 0 0 0
8 1 1 1.605000 0.598000 2.137933 0 0 0
9 1 1 1.638000 -0.534000 1.837933 0 0 0
10 1 1 0.507000 -1.011000 1.664933 0 0 0
11 1 1 0.316000 -2.084000 1.827933 0 0 0
12 1 1 -0.187000 -2.168000 2.682933 0 0 0
13 1 1 0.188000 -1.240000 3.623933 0 0 0
14 1 1 -0.699000 -1.286000 3.010933 0 0 0
15 1 1 -1.338000 -0.564000 2.556933 0 0 0
16 1 1 -1.157000 -1.926000 2.196933 0 0 0
17 1 1 -1.616000 -2.862000 1.618933 0 0 0
18 1 1 -1.643000 -2.113000 1.196933 0 0 0
19 1 1 -2.076000 -2.171000 0.079933 0 0 0
20 1 1 -1.944000 -2.236000 -1.387067 0 0 0
21 1 1 -0.962000 -1.631000 -1.543067 0 0 0
22 1 1 0.322000 -1.348000 -1.663067 0 0 0
23 1 1 0.569000 -0.520000 -2.560067 0 0 0
24 1 1 0.849000 0.094000 -3.077067 0 0 0
25 1 1 0.257000 0.882000 -3.795067 0 0 0
26 1 1 -0.575000 1.321000 -4.019067 0 0 0
27 1 1 -0.878000 1.549000 -5.014067 0 0 0
28 1 1 -1.376000 2.183000 -4.662067 0 0 0
29 1 1 -1.695000 1.972000 -3.741067 0 0 0
30 1 1 -1.603000 3.013000 -2.975067 0 0 0

Bonds

1 1 1 2
2 1 2 3
3 1 3 4
4 1 4 5
5 1 5 6
6 1 6 7
7 1 7 8
8 1 8 9
9 1 9 10
10 1 10 11
11 1 11 12
12 1 12 13
13 1 13 14
14 1 14 15
15 1 15 16
16 1 16 17
17 1 17 18
18 1 18 19
19 1 19 20
20 1 20 21
21 1 21 22
22 1 22 23
23 1 23 24
24 1 24 25
25 1 25 26
26 1 26 27
27 1 27 28
28 1 28 29
29 1 29 30

Angles

1 1 1 2 3
2 1 2 3 4
3 1 3 4 5
4 1 4 5 6
5 1 5 6 7
6 1 6 7 8
7 1 7 8 9
8 1 8 9 10
9 1 9 10 11
10 1 10 11 12
11 1 11 12 13
12 1 12 13 14
13 1 13 14 15
14 1 14 15 16
15 1 15 16 17
16 1 16 17 18
17 1 17 18 19
18 1 18 19 20
19 1 19 20 21
20 1 20 21 22
21 1 21 22 23
22 1 22 23 24
23 1 23 24 25
24 1 24 25 26
25 1 25 26 27
26 1 26 27 28
27 1 27 28 29
28 1 28 29 30
