LAMMPS data file

30 atoms
29 bonds
28 angles

1 atom types
1 bond types
1 angle types

-23.750000 23.750000 xlo xhi
-23.750000 23.750000 ylo yhi
-23.750000 23.750000 zlo zhi

Masses

1 1.0

Atoms

1 1 1 -2.033000 1.654967 -1.595033 0 0 0
2 1 1 -1.653000 1.923967 -0.747033 0 0 0
3 1 1 -1.114000 1.906967 -0.122033 0 0 0
4 1 1 -0.334000 1.959967 0.090967 0 0 0
5 1 1 -0.308000 2.388967 -0.920033 0 0 0
6 1 1 0.611000 2.173967 -1.481033 0 0 0
7 1 1 0.243000 1.294967 -1.530033 0 0 0
8 1 1 0.012000 1.151967 -2.482033 0 0 0
9 1 1 -0.441000 -0.118033 -2.681033 0 0 0
10 1 1 -0.086000 -1.236033 -2.688033 0 0 0
11 1 1 0.847000 -1.549033 -2.301033 0 0 0
12 1 1 1.195000 -2.231033 -2.471033 0 0 0
13 1 1 2.061000 -2.957033 -2.356033 0 0 0
14 1 1 1.266000 -3.284033 -2.306033 0 0 0
15 1 1 0.243000 -3.016033 -1.327033 0 0 0
16 1 1 0.374000 -2.503033 -0.675033 0 0 0
17 1 1 0.624000 -2.064033 0.364967 0 0 0
18 1 1 1.024000 -2.103033 1.091967 0 0 0
19 1 1 -0.160000 -2.170033 1.646967 0 0 0
20 1 1 -0.704000 -1.391033 0.854967 0 0 0
21 1 1 -1.527000 -0.898033 2.004967 0 0 0
22 1 1 -0.779000 -0.895033 2.770967 0 0 0
23 1 1 0.244000 -0.664033 3.218967 0 0 0
24 1 1 0.304000 -0.188033 2.052967 0 0 0
25 1 1 -0.396000 0.873967 1.778967 0 0 0
26 1 1 0.200000 1.527967 1.894967 0 0 0
27 1 1 0.732000 2.460967 2.473967 0 0 0
28 1 1 0.334000 2.957967 1.861967 0 0 0
29 1 1 -0.257000 2.872967 2.022967 0 0 0
30 1 1 -0.522000 2.117967 1.551967 0 0 0

Bonds

1 1 1 2
2 1 2 3
3 1 3 4
4 1 4 5
5 1 5 6
6 1 6 7
7 1 7 8
8 1 8 9
9 1 9 10
10 1 10 11
11 1 11 12
12 1 12 13
13 1 13 14
14 1 14 15
15 1 15 16
16 1 16 17
17 1 17 18
18 1 18 19
19 1 19 20
20 1 20 21
21 1 21 22
22 1 22 23
23 1 23 24
24 1 24 25
25 1 25 26
26 1 26 27
27 1 27 28
28 1 28 29
29 1 29 30

Angles

1 1 1 2 3
2 1 2 3 4
3 1 3 4 5
4 1 4 5 6
5 1 5 6 7
6 1 6 7 8
7 1 7 8 9
8 1 8 9 10
9 1 9 10 11
10 1 10 11 12
11 1 11 12 13
12 1 12 13 14
13 1 13 14 15
14 1 14 15 16
15 1 15 16 17
16 1 16 17 18
17 1 17 18 19
18 1 18 19 20
19 1 19 20 21
20 1 20 21 22
21 1 21 22 23
22 1 22 23 24
23 1 23 24 25
24 1 24 25 26
25 1 25 26 27
26 1 26 27 28
27 1 27 28 29
28 1 28 29 30
