LAMMPS data file

30 atoms
29 bonds
28 angles

1 atom types
1 bond types
1 angle types

-23.750000 23.750000 xlo xhi
-23.750000 23.750000 ylo yhi
-23.750000 23.750000 zlo zhi

Masses

1 1.0

Atoms

1 1 1 -1.998000 -2.255000 -2.991033 0 0 0
2 1 1 -1.635000 -1.865000 -1.932033 0 0 0
3 1 1 -0.356000 -1.871000 -1.669033 0 0 0
4 1 1 0.296000 -1.194000 -1.823033 0 0 0
5 1 1 -0.130000 -0.955000 -1.106033 0 0 0
6 1 1 0.123000 -1.131000 -0.013033 0 0 0
7 1 1 -0.136000 -1.348000 0.961967 0 0 0
8 1 1 -1.056000 -1.861000 2.051967 0 0 0
9 1 1 -0.833000 -1.563000 3.272967 0 0 0
10 1 1 -0.012000 -1.788000 3.531967 0 0 0
11 1 1 0.949000 -1.349000 3.883967 0 0 0
12 1 1 1.086000 -0.499000 3.987967 0 0 0
13 1 1 0.418000 -0.144000 4.145967 0 0 0
14 1 1 0.482000 0.683000 3.864967 0 0 0
15 1 1 0.743000 1.199000 3.479967 0 0 0
16 1 1 1.430000 1.190000 2.323967 0 0 0
17 1 1 0.751000 1.009000 1.477967 0 0 0
18 1 1 0.836000 0.444000 0.521967 0 0 0
19 1 1 0.461000 0.661000 -0.255033 0 0 0
20 1 1 -0.296000 1.122000 0.073967 0 0 0
21 1 1 -0.068000 2.177000 0.134967 0 0 0
22 1 1 0.467000 2.107000 -0.367033 0 0 0
23 1 1 1.221000 1.697000 -0.132033 0 0 0
24 1 1 1.145000 1.377000 -1.197033 0 0 0
25 1 1 1.128000 0.878000 -2.088033 0 0 0
26 1 1 0.034000 0.351000 -2.764033 0 0 0
27 1 1 -1.163000 -0.058000 -3.524033 0 0 0
28 1 1 -1.024000 0.562000 -4.441033 0 0 0
29 1 1 -1.173000 1.167000 -4.282033 0 0 0
30 1 1 -1.690000 1.257000 -5.130033 0 0 0

Bonds

1 1 1 2
2 1 2 3
3 1 3 4
4 1 4 5
5 1 5 6
6 1 6 7
7 1 7 8
8 1 8 9
9 1 9 10
10 1 10 11
11 1 11 12
12 1 12 13
13 1 13 14
14 1 14 15
15 1 15 16
16 1 16 17
17 1 17 18
18 1 18 19
19 1 19 20
20 1 20 21
21 1 21 22
22 1 22 23
23 1 23 24
24 1 24 25
25 1 25 26
26 1 26 27
27 1 27 28
28 1 28 29
29 1 29 30

Angles

1 1 1 2 3
2 1 2 3 4
3 1 3 4 5
4 1 4 5 6
5 1 5 6 7
6 1 6 7 8
7 1 7 8 9
8 1 8 9 10
9 1 9 10 11
10 1 10 11 12
11 1 11 12 13
12 1 12 13 14
13 1 13 14 15
14 1 14 15 16
15 1 15 16 17
16 1 16 17 18
17 1 17 18 19
18 1 18 19 20
19 1 19 20 21
20 1 20 21 22
21 1 21 22 23
22 1 22 23 24
23 1 23 24 25
24 1 24 25 26
25 1 25 26 27
26 1 26 27 28
27 1 27 28 29
28 1 28 29 30
