LAMMPS data file

30 atoms
29 bonds
28 angles

1 atom types
1 bond types
1 angle types

-23.750000 23.750000 xlo xhi
-23.750000 23.750000 ylo yhi
-23.750000 23.750000 zlo zhi

Masses

1 1.0

Atoms

1 1 1 -0.803033 -1.264967 2.041000 0 0 0
2 1 1 -0.759033 -2.333967 2.455000 0 0 0
3 1 1 -0.747033 -2.009967 3.422000 0 0 0
4 1 1 -1.713033 -1.246967 2.971000 0 0 0
5 1 1 -2.198033 -1.982967 2.746000 0 0 0
6 1 1 -2.516033 -2.047967 3.822000 0 0 0
7 1 1 -3.147033 -2.013967 4.524000 0 0 0
8 1 1 -3.217033 -1.015967 4.352000 0 0 0
9 1 1 -2.296033 -0.214967 4.194000 0 0 0
10 1 1 -2.742033 0.348033 3.515000 0 0 0
11 1 1 -2.209033 1.284033 2.670000 0 0 0
12 1 1 -1.635033 2.205033 2.817000 0 0 0
13 1 1 -1.106033 1.465033 2.588000 0 0 0
14 1 1 -1.617033 0.229033 2.503000 0 0 0
15 1 1 -0.746033 -0.540967 2.663000 0 0 0
16 1 1 0.211967 -0.803967 2.486000 0 0 0
17 1 1 0.208967 -0.009967 1.619000 0 0 0
18 1 1 0.402967 1.014033 0.971000 0 0 0
19 1 1 0.244967 0.898033 0.270000 0 0 0
20 1 1 -0.084033 0.594033 -0.530000 0 0 0
21 1 1 0.607967 0.309033 -1.147000 0 0 0
22 1 1 1.133967 0.732033 -2.167000 0 0 0
23 1 1 1.849967 1.123033 -3.115000 0 0 0
24 1 1 2.902967 0.908033 -3.547000 0 0 0
25 1 1 3.748967 0.967033 -4.399000 0 0 0
26 1 1 4.003967 0.922033 -5.466000 0 0 0
27 1 1 3.469967 1.090033 -6.522000 0 0 0
28 1 1 3.195967 0.871033 -7.376000 0 0 0
29 1 1 2.884967 0.240033 -8.648000 0 0 0
30 1 1 2.667967 0.287033 -9.712000 0 0 0

Bonds

1 1 1 2
2 1 2 3
3 1 3 4
4 1 4 5
5 1 5 6
6 1 6 7
7 1 7 8
8 1 8 9
9 1 9 10
10 1 10 11
11 1 11 12
12 1 12 13
13 1 13 14
14 1 14 15
15 1 15 16
16 1 16 17
17 1 17 18
18 1 18 19
19 1 19 20
20 1 20 21
21 1 21 22
22 1 22 23
23 1 23 24
24 1 24 25
25 1 25 26
26 1 26 27
27 1 27 28
28 1 28 29
29 1 29 30

Angles

1 1 1 2 3
2 1 2 3 4
3 1 3 4 5
4 1 4 5 6
5 1 5 6 7
6 1 6 7 8
7 1 7 8 9
8 1 8 9 10
9 1 9 10 11
10 1 10 11 12
11 1 11 12 13
12 1 12 13 14
13 1 13 14 15
14 1 14 15 16
15 1 15 16 17
16 1 16 17 18
17 1 17 18 19
18 1 18 19 20
19 1 19 20 21
20 1 20 21 22
21 1 21 22 23
22 1 22 23 24
23 1 23 24 25
24 1 24 25 26
25 1 25 26 27
26 1 26 27 28
27 1 27 28 29
28 1 28 29 30
