LAMMPS data file

30 atoms
29 bonds
28 angles

1 atom types
1 bond types
1 angle types

-23.750000 23.750000 xlo xhi
-23.750000 23.750000 ylo yhi
-23.750000 23.750000 zlo zhi

Masses

1 1.0

Atoms

1 1 1 3.362067 2.541933 -1.636000 0 0 0
2 1 1 2.943067 2.093933 -0.658000 0 0 0
3 1 1 2.639067 1.805933 -0.228000 0 0 0
4 1 1 3.347067 0.857933 -0.207000 0 0 0
5 1 1 3.903067 0.787933 0.568000 0 0 0
6 1 1 4.866067 0.510933 0.851000 0 0 0
7 1 1 5.165067 -0.641067 0.183000 0 0 0
8 1 1 4.839067 -1.646067 0.377000 0 0 0
9 1 1 4.341067 -2.219067 0.751000 0 0 0
10 1 1 3.398067 -2.937067 0.513000 0 0 0
11 1 1 3.040067 -3.855067 -0.346000 0 0 0
12 1 1 2.265067 -3.361067 -0.460000 0 0 0
13 1 1 1.790067 -2.295067 -0.735000 0 0 0
14 1 1 1.300067 -1.136067 -0.240000 0 0 0
15 1 1 -0.099933 -1.328067 -0.556000 0 0 0
16 1 1 -0.471933 -1.076067 0.122000 0 0 0
17 1 1 -0.927933 -0.404067 0.723000 0 0 0
18 1 1 -0.470933 0.303933 0.573000 0 0 0
19 1 1 -0.517933 0.581933 -0.402000 0 0 0
20 1 1 -1.540933 0.322933 -0.421000 0 0 0
21 1 1 -2.599933 0.039933 -0.314000 0 0 0
22 1 1 -3.098933 0.405933 -1.140000 0 0 0
23 1 1 -3.375933 1.018933 -1.219000 0 0 0
24 1 1 -4.354933 0.774933 -0.613000 0 0 0
25 1 1 -4.750933 0.354933 0.114000 0 0 0
26 1 1 -5.876933 1.112933 -0.089000 0 0 0
27 1 1 -5.629933 2.247933 0.634000 0 0 0
28 1 1 -5.152933 2.509933 1.056000 0 0 0
29 1 1 -4.350933 1.964933 1.543000 0 0 0
30 1 1 -3.977933 0.660933 1.256000 0 0 0

Bonds

1 1 1 2
2 1 2 3
3 1 3 4
4 1 4 5
5 1 5 6
6 1 6 7
7 1 7 8
8 1 8 9
9 1 9 10
10 1 10 11
11 1 11 12
12 1 12 13
13 1 13 14
14 1 14 15
15 1 15 16
16 1 16 17
17 1 17 18
18 1 18 19
19 1 19 20
20 1 20 21
21 1 21 22
22 1 22 23
23 1 23 24
24 1 24 25
25 1 25 26
26 1 26 27
27 1 27 28
28 1 28 29
29 1 29 30

Angles

1 1 1 2 3
2 1 2 3 4
3 1 3 4 5
4 1 4 5 6
5 1 5 6 7
6 1 6 7 8
7 1 7 8 9
8 1 8 9 10
9 1 9 10 11
10 1 10 11 12
11 1 11 12 13
12 1 12 13 14
13 1 13 14 15
14 1 14 15 16
15 1 15 16 17
16 1 16 17 18
17 1 17 18 19
18 1 18 19 20
19 1 19 20 21
20 1 20 21 22
21 1 21 22 23
22 1 22 23 24
23 1 23 24 25
24 1 24 25 26
25 1 25 26 27
26 1 26 27 28
27 1 27 28 29
28 1 28 29 30
