LAMMPS data file

30 atoms
29 bonds
28 angles

1 atom types
1 bond types
1 angle types

-23.750000 23.750000 xlo xhi
-23.750000 23.750000 ylo yhi
-23.750000 23.750000 zlo zhi

Masses

1 1.0

Atoms

1 1 1 1.542967 5.124000 2.399033 0 0 0
2 1 1 1.600967 4.887000 1.253033 0 0 0
3 1 1 2.174967 5.050000 0.489033 0 0 0
4 1 1 2.445967 4.687000 -0.720967 0 0 0
5 1 1 2.800967 4.627000 -1.421967 0 0 0
6 1 1 2.408967 3.776000 -1.970967 0 0 0
7 1 1 2.143967 3.094000 -1.738967 0 0 0
8 1 1 2.587967 2.610000 -1.691967 0 0 0
9 1 1 3.014967 2.414000 -0.807967 0 0 0
10 1 1 2.285967 2.598000 -0.558967 0 0 0
11 1 1 1.671967 3.160000 -0.837967 0 0 0
12 1 1 1.096967 2.257000 -0.313967 0 0 0
13 1 1 1.525967 1.878000 -0.713967 0 0 0
14 1 1 0.851967 0.831000 -0.334967 0 0 0
15 1 1 1.678967 0.438000 0.034033 0 0 0
16 1 1 1.168967 -0.640000 -0.249967 0 0 0
17 1 1 0.537967 -0.889000 0.051033 0 0 0
18 1 1 -0.410033 -1.298000 -0.164967 0 0 0
19 1 1 -1.618033 -0.871000 -0.306967 0 0 0
20 1 1 -2.247033 -1.721000 -0.495967 0 0 0
21 1 1 -2.632033 -3.016000 -0.327967 0 0 0
22 1 1 -2.641033 -3.892000 0.165033 0 0 0
23 1 1 -2.985033 -4.870000 0.138033 0 0 0
24 1 1 -4.169033 -4.787000 0.198033 0 0 0
25 1 1 -4.492033 -4.071000 0.716033 0 0 0
26 1 1 -3.273033 -3.241000 1.121033 0 0 0
27 1 1 -2.500033 -3.539000 1.134033 0 0 0
28 1 1 -1.702033 -4.140000 1.057033 0 0 0
29 1 1 -1.391033 -4.922000 1.468033 0 0 0
30 1 1 -1.480033 -5.534000 2.435033 0 0 0

Bonds

1 1 1 2
2 1 2 3
3 1 3 4
4 1 4 5
5 1 5 6
6 1 6 7
7 1 7 8
8 1 8 9
9 1 9 10
10 1 10 11
11 1 11 12
12 1 12 13
13 1 13 14
14 1 14 15
15 1 15 16
16 1 16 17
17 1 17 18
18 1 18 19
19 1 19 20
20 1 20 21
21 1 21 22
22 1 22 23
23 1 23 24
24 1 24 25
25 1 25 26
26 1 26 27
27 1 27 28
28 1 28 29
29 1 29 30

Angles

1 1 1 2 3
2 1 2 3 4
3 1 3 4 5
4 1 4 5 6
5 1 5 6 7
6 1 6 7 8
7 1 7 8 9
8 1 8 9 10
9 1 9 10 11
10 1 10 11 12
11 1 11 12 13
12 1 12 13 14
13 1 13 14 15
14 1 14 15 16
15 1 15 16 17
16 1 16 17 18
17 1 17 18 19
18 1 18 19 20
19 1 19 20 21
20 1 20 21 22
21 1 21 22 23
22 1 22 23 24
23 1 23 24 25
24 1 24 25 26
25 1 25 26 27
26 1 26 27 28
27 1 27 28 29
28 1 28 29 30
