LAMMPS data file

30 atoms
29 bonds
28 angles

1 atom types
1 bond types
1 angle types

-23.750000 23.750000 xlo xhi
-23.750000 23.750000 ylo yhi
-23.750000 23.750000 zlo zhi

Masses

1 1.0

Atoms

1 1 1 -2.788967 -0.733967 -6.204967 0 0 0
2 1 1 -2.979967 -0.374967 -5.354967 0 0 0
3 1 1 -3.192967 -0.810967 -4.194967 0 0 0
4 1 1 -2.798967 -0.303967 -3.467967 0 0 0
5 1 1 -2.722967 0.471033 -3.407967 0 0 0
6 1 1 -2.694967 1.208033 -3.476967 0 0 0
7 1 1 -2.261967 1.423033 -4.248967 0 0 0
8 1 1 -2.497967 0.903033 -4.851967 0 0 0
9 1 1 -1.761967 0.102033 -4.501967 0 0 0
10 1 1 -0.971967 -0.599967 -4.247967 0 0 0
11 1 1 -0.469967 -0.969967 -3.095967 0 0 0
12 1 1 -0.723967 -0.180967 -2.636967 0 0 0
13 1 1 -0.615967 -0.452967 -1.180967 0 0 0
14 1 1 0.517033 -0.084967 -0.628967 0 0 0
15 1 1 1.472033 -0.409967 -0.533967 0 0 0
16 1 1 1.902033 -0.116967 0.239033 0 0 0
17 1 1 2.752033 -0.054967 0.958033 0 0 0
18 1 1 3.329033 -0.376967 1.263033 0 0 0
19 1 1 3.396033 -0.612967 2.107033 0 0 0
20 1 1 3.971033 -0.736967 2.443033 0 0 0
21 1 1 3.589033 0.048033 3.353033 0 0 0
22 1 1 3.403033 0.146033 4.285033 0 0 0
23 1 1 2.644033 0.856033 4.207033 0 0 0
24 1 1 1.924033 0.371033 3.555033 0 0 0
25 1 1 0.866033 0.934033 3.792033 0 0 0
26 1 1 0.624033 0.612033 4.015033 0 0 0
27 1 1 -0.552967 0.269033 4.547033 0 0 0
28 1 1 -1.081967 -0.398967 5.097033 0 0 0
29 1 1 -1.601967 -0.282967 5.966033 0 0 0
30 1 1 -0.669967 0.160033 6.208034 0 0 0

Bonds

1 1 1 2
2 1 2 3
3 1 3 4
4 1 4 5
5 1 5 6
6 1 6 7
7 1 7 8
8 1 8 9
9 1 9 10
10 1 10 11
11 1 11 12
12 1 12 13
13 1 13 14
14 1 14 15
15 1 15 16
16 1 16 17
17 1 17 18
18 1 18 19
19 1 19 20
20 1 20 21
21 1 21 22
22 1 22 23
23 1 23 24
24 1 24 25
25 1 25 26
26 1 26 27
27 1 27 28
28 1 28 29
29 1 29 30

Angles

1 1 1 2 3
2 1 2 3 4
3 1 3 4 5
4 1 4 5 6
5 1 5 6 7
6 1 6 7 8
7 1 7 8 9
8 1 8 9 10
9 1 9 10 11
10 1 10 11 12
11 1 11 12 13
12 1 12 13 14
13 1 13 14 15
14 1 14 15 16
15 1 15 16 17
16 1 16 17 18
17 1 17 18 19
18 1 18 19 20
19 1 19 20 21
20 1 20 21 22
21 1 21 22 23
22 1 22 23 24
23 1 23 24 25
24 1 24 25 26
25 1 25 26 27
26 1 26 27 28
27 1 27 28 29
28 1 28 29 30
