LAMMPS data file

30 atoms
29 bonds
28 angles

1 atom types
1 bond types
1 angle types

-23.750000 23.750000 xlo xhi
-23.750000 23.750000 ylo yhi
-23.750000 23.750000 zlo zhi

Masses

1 1.0

Atoms

1 1 1 -0.374933 -1.969067 -3.171000 0 0 0
2 1 1 0.163067 -2.064067 -3.819000 0 0 0
3 1 1 1.194067 -1.794067 -3.071000 0 0 0
4 1 1 1.474067 -1.335067 -2.292000 0 0 0
5 1 1 1.178067 -1.337067 -1.629000 0 0 0
6 1 1 2.182067 -1.072067 -1.167000 0 0 0
7 1 1 1.313067 -0.987067 -0.568000 0 0 0
8 1 1 0.392067 -0.594067 -0.022000 0 0 0
9 1 1 -0.094933 -0.013067 -0.457000 0 0 0
10 1 1 0.444067 0.466933 0.384000 0 0 0
11 1 1 1.403067 -0.149067 0.590000 0 0 0
12 1 1 1.659067 0.396933 0.092000 0 0 0
13 1 1 1.089067 1.442933 -0.149000 0 0 0
14 1 1 0.568067 1.506933 -0.230000 0 0 0
15 1 1 -0.173933 1.058933 1.000000 0 0 0
16 1 1 -0.824933 0.787933 1.453000 0 0 0
17 1 1 -1.366933 1.567933 1.455000 0 0 0
18 1 1 -0.622933 2.333933 0.681000 0 0 0
19 1 1 -1.417933 1.728933 0.180000 0 0 0
20 1 1 -1.731933 0.921933 0.652000 0 0 0
21 1 1 -1.033933 0.246933 0.356000 0 0 0
22 1 1 -1.692933 0.835933 -0.683000 0 0 0
23 1 1 -1.912933 -0.021067 -1.114000 0 0 0
24 1 1 -1.120933 -0.454067 -0.641000 0 0 0
25 1 1 -0.825933 -1.094067 0.378000 0 0 0
26 1 1 -0.531933 -0.233067 1.293000 0 0 0
27 1 1 0.031067 -0.338067 1.960000 0 0 0
28 1 1 0.676067 0.421933 2.269000 0 0 0
29 1 1 0.262067 0.184933 2.852000 0 0 0
30 1 1 -0.301933 -0.448067 3.418000 0 0 0

Bonds

1 1 1 2
2 1 2 3
3 1 3 4
4 1 4 5
5 1 5 6
6 1 6 7
7 1 7 8
8 1 8 9
9 1 9 10
10 1 10 11
11 1 11 12
12 1 12 13
13 1 13 14
14 1 14 15
15 1 15 16
16 1 16 17
17 1 17 18
18 1 18 19
19 1 19 20
20 1 20 21
21 1 21 22
22 1 22 23
23 1 23 24
24 1 24 25
25 1 25 26
26 1 26 27
27 1 27 28
28 1 28 29
29 1 29 30

Angles

1 1 1 2 3
2 1 2 3 4
3 1 3 4 5
4 1 4 5 6
5 1 5 6 7
6 1 6 7 8
7 1 7 8 9
8 1 8 9 10
9 1 9 10 11
10 1 10 11 12
11 1 11 12 13
12 1 12 13 14
13 1 13 14 15
14 1 14 15 16
15 1 15 16 17
16 1 16 17 18
17 1 17 18 19
18 1 18 19 20
19 1 19 20 21
20 1 20 21 22
21 1 21 22 23
22 1 22 23 24
23 1 23 24 25
24 1 24 25 26
25 1 25 26 27
26 1 26 27 28
27 1 27 28 29
28 1 28 29 30
