LAMMPS data file

30 atoms
29 bonds
28 angles

1 atom types
1 bond types
1 angle types

-23.750000 23.750000 xlo xhi
-23.750000 23.750000 ylo yhi
-23.750000 23.750000 zlo zhi

Masses

1 1.0

Atoms

1 1 1 2.793033 3.123000 -0.432033 0 0 0
2 1 1 3.096033 2.958000 0.581967 0 0 0
3 1 1 3.107033 3.751000 1.325967 0 0 0
4 1 1 4.007033 3.186000 1.620967 0 0 0
5 1 1 4.512033 2.122000 1.719967 0 0 0
6 1 1 3.976033 1.666000 2.092967 0 0 0
7 1 1 3.313033 0.522000 1.565967 0 0 0
8 1 1 3.151033 0.838000 0.778967 0 0 0
9 1 1 2.090033 0.621000 0.787967 0 0 0
10 1 1 1.802033 1.357000 0.928967 0 0 0
11 1 1 2.109033 2.490000 1.156967 0 0 0
12 1 1 1.667033 3.213000 0.948967 0 0 0
13 1 1 1.720033 3.276000 0.277967 0 0 0
14 1 1 1.850033 2.651000 0.009967 0 0 0
15 1 1 2.077033 1.727000 -0.016033 0 0 0
16 1 1 1.816033 0.966000 -0.413033 0 0 0
17 1 1 0.897033 0.379000 -0.531033 0 0 0
18 1 1 -0.220967 0.476000 -0.258033 0 0 0
19 1 1 -1.619967 -0.202000 -0.578033 0 0 0
20 1 1 -2.171967 -0.539000 -0.344033 0 0 0
21 1 1 -1.685967 -1.208000 -0.475033 0 0 0
22 1 1 -1.993967 -2.228000 -0.117033 0 0 0
23 1 1 -1.944967 -2.962000 -0.805033 0 0 0
24 1 1 -2.427967 -4.024000 -0.791033 0 0 0
25 1 1 -3.137967 -4.665000 -0.901033 0 0 0
26 1 1 -4.248967 -4.559000 -0.577033 0 0 0
27 1 1 -5.160966 -4.477000 -0.958033 0 0 0
28 1 1 -5.758967 -3.999000 -1.305033 0 0 0
29 1 1 -6.721967 -3.423000 -2.056033 0 0 0
30 1 1 -6.888967 -3.036000 -3.240033 0 0 0

Bonds

1 1 1 2
2 1 2 3
3 1 3 4
4 1 4 5
5 1 5 6
6 1 6 7
7 1 7 8
8 1 8 9
9 1 9 10
10 1 10 11
11 1 11 12
12 1 12 13
13 1 13 14
14 1 14 15
15 1 15 16
16 1 16 17
17 1 17 18
18 1 18 19
19 1 19 20
20 1 20 21
21 1 21 22
22 1 22 23
23 1 23 24
24 1 24 25
25 1 25 26
26 1 26 27
27 1 27 28
28 1 28 29
29 1 29 30

Angles

1 1 1 2 3
2 1 2 3 4
3 1 3 4 5
4 1 4 5 6
5 1 5 6 7
6 1 6 7 8
7 1 7 8 9
8 1 8 9 10
9 1 9 10 11
10 1 10 11 12
11 1 11 12 13
12 1 12 13 14
13 1 13 14 15
14 1 14 15 16
15 1 15 16 17
16 1 16 17 18
17 1 17 18 19
18 1 18 19 20
19 1 19 20 21
20 1 20 21 22
21 1 21 22 23
22 1 22 23 24
23 1 23 24 25
24 1 24 25 26
25 1 25 26 27
26 1 26 27 28
27 1 27 28 29
28 1 28 29 30
