LAMMPS data file

30 atoms
29 bonds
28 angles

1 atom types
1 bond types
1 angle types

-23.750000 23.750000 xlo xhi
-23.750000 23.750000 ylo yhi
-23.750000 23.750000 zlo zhi

Masses

1 1.0

Atoms

1 1 1 -1.580000 -0.083000 1.545000 0 0 0
2 1 1 -1.829000 0.076000 2.672000 0 0 0
3 1 1 -1.852000 0.643000 3.525000 0 0 0
4 1 1 -2.071000 1.289000 2.903000 0 0 0
5 1 1 -2.649000 1.818000 2.530000 0 0 0
6 1 1 -3.609000 1.909000 1.699000 0 0 0
7 1 1 -2.494000 2.303000 1.394000 0 0 0
8 1 1 -2.059000 1.902000 1.658000 0 0 0
9 1 1 -1.338000 1.678000 1.085000 0 0 0
10 1 1 -1.515000 0.768000 0.926000 0 0 0
11 1 1 -0.575000 0.458000 0.270000 0 0 0
12 1 1 0.258000 0.013000 0.250000 0 0 0
13 1 1 0.909000 -0.382000 0.910000 0 0 0
14 1 1 0.701000 -0.203000 1.968000 0 0 0
15 1 1 1.099000 0.593000 2.405000 0 0 0
16 1 1 1.720000 0.572000 2.110000 0 0 0
17 1 1 1.579000 0.934000 1.245000 0 0 0
18 1 1 1.765000 0.938000 0.377000 0 0 0
19 1 1 2.497000 -0.175000 0.070000 0 0 0
20 1 1 2.320000 -1.372000 -0.647000 0 0 0
21 1 1 2.774000 -2.278000 -1.209000 0 0 0
22 1 1 3.382000 -2.472000 -1.286000 0 0 0
23 1 1 3.268000 -1.991000 -2.292000 0 0 0
24 1 1 2.397000 -1.473000 -3.109000 0 0 0
25 1 1 1.442000 -1.429000 -4.091000 0 0 0
26 1 1 0.383000 -0.782000 -4.576000 0 0 0
27 1 1 -0.342000 -1.283000 -3.779000 0 0 0
28 1 1 -1.414000 -1.368000 -3.100000 0 0 0
29 1 1 -1.753000 -0.993000 -2.791000 0 0 0
30 1 1 -1.414000 0.390000 -2.662000 0 0 0

Bonds

1 1 1 2
2 1 2 3
3 1 3 4
4 1 4 5
5 1 5 6
6 1 6 7
7 1 7 8
8 1 8 9
9 1 9 10
10 1 10 11
11 1 11 12
12 1 12 13
13 1 13 14
14 1 14 15
15 1 15 16
16 1 16 17
17 1 17 18
18 1 18 19
19 1 19 20
20 1 20 21
21 1 21 22
22 1 22 23
23 1 23 24
24 1 24 25
25 1 25 26
26 1 26 27
27 1 27 28
28 1 28 29
29 1 29 30

Angles

1 1 1 2 3
2 1 2 3 4
3 1 3 4 5
4 1 4 5 6
5 1 5 6 7
6 1 6 7 8
7 1 7 8 9
8 1 8 9 10
9 1 9 10 11
10 1 10 11 12
11 1 11 12 13
12 1 12 13 14
13 1 13 14 15
14 1 14 15 16
15 1 15 16 17
16 1 16 17 18
17 1 17 18 19
18 1 18 19 20
19 1 19 20 21
20 1 20 21 22
21 1 21 22 23
22 1 22 23 24
23 1 23 24 25
24 1 24 25 26
25 1 25 26 27
26 1 26 27 28
27 1 27 28 29
28 1 28 29 30
