LAMMPS data file

30 atoms
29 bonds
28 angles

1 atom types
1 bond types
1 angle types

-23.750000 23.750000 xlo xhi
-23.750000 23.750000 ylo yhi
-23.750000 23.750000 zlo zhi

Masses

1 1.0

Atoms

1 1 1 -0.441933 -2.476033 -0.949000 0 0 0
2 1 1 0.339067 -3.180033 -0.988000 0 0 0
3 1 1 0.633067 -3.371033 0.061000 0 0 0
4 1 1 -0.113933 -4.362033 -0.003000 0 0 0
5 1 1 -0.884933 -3.691033 -0.036000 0 0 0
6 1 1 -1.091933 -3.799033 -1.138000 0 0 0
7 1 1 -0.715933 -4.499033 -1.316000 0 0 0
8 1 1 0.251067 -3.520033 -2.026000 0 0 0
9 1 1 0.574067 -3.313033 -2.635000 0 0 0
10 1 1 0.543067 -2.184033 -2.352000 0 0 0
11 1 1 0.290067 -2.042033 -1.480000 0 0 0
12 1 1 -0.191933 -1.338033 -1.526000 0 0 0
13 1 1 -0.951933 -1.176033 -1.097000 0 0 0
14 1 1 -1.419933 -1.037033 -0.005000 0 0 0
15 1 1 -1.111933 -0.827033 1.276000 0 0 0
16 1 1 -0.355933 -0.269033 2.254000 0 0 0
17 1 1 0.533067 0.386967 1.817000 0 0 0
18 1 1 0.891067 0.939967 1.248000 0 0 0
19 1 1 0.197067 1.567967 0.615000 0 0 0
20 1 1 -0.725933 1.819967 0.439000 0 0 0
21 1 1 -1.651933 2.691967 0.983000 0 0 0
22 1 1 -1.887933 2.569967 1.974000 0 0 0
23 1 1 -1.076933 2.677967 2.539000 0 0 0
24 1 1 -0.701933 2.209967 1.696000 0 0 0
25 1 1 -0.305933 3.225967 1.053000 0 0 0
26 1 1 0.393067 3.731967 1.084000 0 0 0
27 1 1 1.516067 3.983967 0.774000 0 0 0
28 1 1 1.887067 4.059967 -0.369000 0 0 0
29 1 1 2.476067 5.174967 -0.757000 0 0 0
30 1 1 3.107067 6.042967 -1.136000 0 0 0

Bonds

1 1 1 2
2 1 2 3
3 1 3 4
4 1 4 5
5 1 5 6
6 1 6 7
7 1 7 8
8 1 8 9
9 1 9 10
10 1 10 11
11 1 11 12
12 1 12 13
13 1 13 14
14 1 14 15
15 1 15 16
16 1 16 17
17 1 17 18
18 1 18 19
19 1 19 20
20 1 20 21
21 1 21 22
22 1 22 23
23 1 23 24
24 1 24 25
25 1 25 26
26 1 26 27
27 1 27 28
28 1 28 29
29 1 29 30

Angles

1 1 1 2 3
2 1 2 3 4
3 1 3 4 5
4 1 4 5 6
5 1 5 6 7
6 1 6 7 8
7 1 7 8 9
8 1 8 9 10
9 1 9 10 11
10 1 10 11 12
11 1 11 12 13
12 1 12 13 14
13 1 13 14 15
14 1 14 15 16
15 1 15 16 17
16 1 16 17 18
17 1 17 18 19
18 1 18 19 20
19 1 19 20 21
20 1 20 21 22
21 1 21 22 23
22 1 22 23 24
23 1 23 24 25
24 1 24 25 26
25 1 25 26 27
26 1 26 27 28
27 1 27 28 29
28 1 28 29 30
