LAMMPS data file

30 atoms
29 bonds
28 angles

1 atom types
1 bond types
1 angle types

-23.750000 23.750000 xlo xhi
-23.750000 23.750000 ylo yhi
-23.750000 23.750000 zlo zhi

Masses

1 1.0

Atoms

1 1 1 -4.880033 -2.898900 -2.237933 0 0 0
2 1 1 -4.846034 -2.030900 -2.685933 0 0 0
3 1 1 -4.154033 -1.990900 -3.428933 0 0 0
4 1 1 -3.326033 -1.422900 -3.786933 0 0 0
5 1 1 -2.699033 -1.924900 -3.993933 0 0 0
6 1 1 -2.282033 -2.864900 -4.185933 0 0 0
7 1 1 -1.284033 -3.260900 -4.434933 0 0 0
8 1 1 -0.567033 -2.738900 -4.258933 0 0 0
9 1 1 -1.027033 -2.018900 -3.667933 0 0 0
10 1 1 0.070967 -1.595900 -3.072933 0 0 0
11 1 1 0.719967 -0.681900 -2.323933 0 0 0
12 1 1 0.626967 0.272100 -2.033933 0 0 0
13 1 1 0.507967 1.001100 -2.698933 0 0 0
14 1 1 -0.258033 1.712100 -2.749933 0 0 0
15 1 1 0.047967 2.556100 -3.165933 0 0 0
16 1 1 0.445967 3.213100 -2.114933 0 0 0
17 1 1 1.056967 3.377100 -1.034933 0 0 0
18 1 1 1.514967 3.759100 -0.000933 0 0 0
19 1 1 1.288967 3.992100 1.193067 0 0 0
20 1 1 1.272967 3.669100 2.195067 0 0 0
21 1 1 0.935967 3.039100 3.308067 0 0 0
22 1 1 1.255967 1.711100 3.524067 0 0 0
23 1 1 0.712967 0.557100 4.340067 0 0 0
24 1 1 0.827967 -0.670900 4.282067 0 0 0
25 1 1 1.811967 -1.324900 4.232067 0 0 0
26 1 1 2.174967 -2.143900 5.180066 0 0 0
27 1 1 2.109967 -1.694900 6.064067 0 0 0
28 1 1 2.356967 -0.381900 5.892067 0 0 0
29 1 1 2.960967 0.157100 5.404066 0 0 0
30 1 1 2.621967 0.630100 6.263067 0 0 0

Bonds

1 1 1 2
2 1 2 3
3 1 3 4
4 1 4 5
5 1 5 6
6 1 6 7
7 1 7 8
8 1 8 9
9 1 9 10
10 1 10 11
11 1 11 12
12 1 12 13
13 1 13 14
14 1 14 15
15 1 15 16
16 1 16 17
17 1 17 18
18 1 18 19
19 1 19 20
20 1 20 21
21 1 21 22
22 1 22 23
23 1 23 24
24 1 24 25
25 1 25 26
26 1 26 27
27 1 27 28
28 1 28 29
29 1 29 30

Angles

1 1 1 2 3
2 1 2 3 4
3 1 3 4 5
4 1 4 5 6
5 1 5 6 7
6 1 6 7 8
7 1 7 8 9
8 1 8 9 10
9 1 9 10 11
10 1 10 11 12
11 1 11 12 13
12 1 12 13 14
13 1 13 14 15
14 1 14 15 16
15 1 15 16 17
16 1 16 17 18
17 1 17 18 19
18 1 18 19 20
19 1 19 20 21
20 1 20 21 22
21 1 21 22 23
22 1 22 23 24
23 1 23 24 25
24 1 24 25 26
25 1 25 26 27
26 1 26 27 28
27 1 27 28 29
28 1 28 29 30
