LAMMPS data file

30 atoms
29 bonds
28 angles

1 atom types
1 bond types
1 angle types

-23.750000 23.750000 xlo xhi
-23.750000 23.750000 ylo yhi
-23.750000 23.750000 zlo zhi

Masses

1 1.0

Atoms

1 1 1 -3.642933 -2.265967 -7.510967 0 0 0
2 1 1 -3.828933 -1.791967 -6.561966 0 0 0
3 1 1 -4.032933 -0.862967 -5.616967 0 0 0
4 1 1 -3.947933 -1.033967 -4.374967 0 0 0
5 1 1 -4.156933 -1.637967 -3.609967 0 0 0
6 1 1 -3.507933 -0.895967 -2.759967 0 0 0
7 1 1 -2.281933 -1.439967 -2.379967 0 0 0
8 1 1 -1.393933 -1.514967 -2.462967 0 0 0
9 1 1 -0.447933 -1.121967 -2.200967 0 0 0
10 1 1 -0.445933 -0.585967 -3.277967 0 0 0
11 1 1 0.563067 -0.209967 -3.086967 0 0 0
12 1 1 1.355067 0.715033 -3.099967 0 0 0
13 1 1 1.265067 1.201033 -2.121967 0 0 0
14 1 1 1.413067 0.634033 -0.862967 0 0 0
15 1 1 1.703067 0.959033 0.162033 0 0 0
16 1 1 2.206067 0.577033 0.883033 0 0 0
17 1 1 2.003067 0.788033 1.764033 0 0 0
18 1 1 2.222067 1.116033 2.799033 0 0 0
19 1 1 2.949067 1.585033 2.867033 0 0 0
20 1 1 3.206067 1.925033 3.611033 0 0 0
21 1 1 2.917067 2.656033 4.783033 0 0 0
22 1 1 2.115067 2.716033 4.363033 0 0 0
23 1 1 1.651067 1.739033 3.750033 0 0 0
24 1 1 0.664067 1.054033 4.252033 0 0 0
25 1 1 0.374067 0.680033 3.524033 0 0 0
26 1 1 0.697067 0.592033 2.873033 0 0 0
27 1 1 0.514067 -0.341967 3.387033 0 0 0
28 1 1 -0.487933 -0.973967 3.886033 0 0 0
29 1 1 -0.097933 -1.774967 3.813033 0 0 0
30 1 1 0.455067 -2.484967 3.211033 0 0 0

Bonds

1 1 1 2
2 1 2 3
3 1 3 4
4 1 4 5
5 1 5 6
6 1 6 7
7 1 7 8
8 1 8 9
9 1 9 10
10 1 10 11
11 1 11 12
12 1 12 13
13 1 13 14
14 1 14 15
15 1 15 16
16 1 16 17
17 1 17 18
18 1 18 19
19 1 19 20
20 1 20 21
21 1 21 22
22 1 22 23
23 1 23 24
24 1 24 25
25 1 25 26
26 1 26 27
27 1 27 28
28 1 28 29
29 1 29 30

Angles

1 1 1 2 3
2 1 2 3 4
3 1 3 4 5
4 1 4 5 6
5 1 5 6 7
6 1 6 7 8
7 1 7 8 9
8 1 8 9 10
9 1 9 10 11
10 1 10 11 12
11 1 11 12 13
12 1 12 13 14
13 1 13 14 15
14 1 14 15 16
15 1 15 16 17
16 1 16 17 18
17 1 17 18 19
18 1 18 19 20
19 1 19 20 21
20 1 20 21 22
21 1 21 22 23
22 1 22 23 24
23 1 23 24 25
24 1 24 25 26
25 1 25 26 27
26 1 26 27 28
27 1 27 28 29
28 1 28 29 30
