LAMMPS data file

30 atoms
29 bonds
28 angles

1 atom types
1 bond types
1 angle types

-23.750000 23.750000 xlo xhi
-23.750000 23.750000 ylo yhi
-23.750000 23.750000 zlo zhi

Masses

1 1.0

Atoms

1 1 1 -4.556967 -3.520967 0.299967 0 0 0
2 1 1 -5.505967 -3.006967 0.611967 0 0 0
3 1 1 -6.609967 -2.599967 0.287967 0 0 0
4 1 1 -5.664967 -1.968967 0.260967 0 0 0
5 1 1 -4.615967 -1.660967 -0.324033 0 0 0
6 1 1 -3.207967 -1.584967 0.147967 0 0 0
7 1 1 -1.691967 -2.199967 0.196967 0 0 0
8 1 1 -0.994967 -1.233967 0.200967 0 0 0
9 1 1 0.039033 -0.839967 0.458967 0 0 0
10 1 1 0.815033 0.076033 0.061967 0 0 0
11 1 1 0.601033 0.887033 -0.911033 0 0 0
12 1 1 -0.134967 0.482033 0.312967 0 0 0
13 1 1 0.130033 1.330033 0.243967 0 0 0
14 1 1 1.244033 1.221033 0.118967 0 0 0
15 1 1 2.080033 2.114033 -0.022033 0 0 0
16 1 1 1.938033 2.634033 0.738967 0 0 0
17 1 1 2.332033 3.032033 1.591967 0 0 0
18 1 1 2.546033 2.013033 1.861967 0 0 0
19 1 1 3.071033 1.033033 1.459967 0 0 0
20 1 1 3.366033 0.090033 1.513967 0 0 0
21 1 1 3.173033 -0.335967 0.652967 0 0 0
22 1 1 3.637033 0.047033 -0.349033 0 0 0
23 1 1 3.250033 0.806033 -0.487033 0 0 0
24 1 1 2.453033 1.055033 -0.882033 0 0 0
25 1 1 1.833033 0.699033 -1.762033 0 0 0
26 1 1 0.902033 1.409033 -2.065033 0 0 0
27 1 1 -0.036967 1.067033 -1.871033 0 0 0
28 1 1 -0.432967 0.669033 -1.194033 0 0 0
29 1 1 -0.070967 -0.412967 -0.679033 0 0 0
30 1 1 0.114033 -1.298967 -0.477033 0 0 0

Bonds

1 1 1 2
2 1 2 3
3 1 3 4
4 1 4 5
5 1 5 6
6 1 6 7
7 1 7 8
8 1 8 9
9 1 9 10
10 1 10 11
11 1 11 12
12 1 12 13
13 1 13 14
14 1 14 15
15 1 15 16
16 1 16 17
17 1 17 18
18 1 18 19
19 1 19 20
20 1 20 21
21 1 21 22
22 1 22 23
23 1 23 24
24 1 24 25
25 1 25 26
26 1 26 27
27 1 27 28
28 1 28 29
29 1 29 30

Angles

1 1 1 2 3
2 1 2 3 4
3 1 3 4 5
4 1 4 5 6
5 1 5 6 7
6 1 6 7 8
7 1 7 8 9
8 1 8 9 10
9 1 9 10 11
10 1 10 11 12
11 1 11 12 13
12 1 12 13 14
13 1 13 14 15
14 1 14 15 16
15 1 15 16 17
16 1 16 17 18
17 1 17 18 19
18 1 18 19 20
19 1 19 20 21
20 1 20 21 22
21 1 21 22 23
22 1 22 23 24
23 1 23 24 25
24 1 24 25 26
25 1 25 26 27
26 1 26 27 28
27 1 27 28 29
28 1 28 29 30
