LAMMPS data file

30 atoms
29 bonds
28 angles

1 atom types
1 bond types
1 angle types

-23.750000 23.750000 xlo xhi
-23.750000 23.750000 ylo yhi
-23.750000 23.750000 zlo zhi

Masses

1 1.0

Atoms

1 1 1 1.054133 -5.251000 -6.345000 0 0 0
2 1 1 0.886133 -4.282000 -6.459000 0 0 0
3 1 1 1.614133 -3.616000 -6.344000 0 0 0
4 1 1 0.931133 -3.017000 -5.815000 0 0 0
5 1 1 1.285133 -1.899000 -5.175000 0 0 0
6 1 1 1.856133 -0.981000 -4.790000 0 0 0
7 1 1 1.467133 0.027000 -4.734000 0 0 0
8 1 1 1.445133 0.340000 -3.304000 0 0 0
9 1 1 0.201133 0.370000 -3.704000 0 0 0
10 1 1 0.022133 1.289000 -3.240000 0 0 0
11 1 1 0.424133 1.194000 -2.640000 0 0 0
12 1 1 1.109133 0.723000 -2.417000 0 0 0
13 1 1 1.275133 0.606000 -1.042000 0 0 0
14 1 1 0.672133 0.091000 -0.537000 0 0 0
15 1 1 -0.116867 0.391000 -0.026000 0 0 0
16 1 1 -0.850867 0.949000 0.702000 0 0 0
17 1 1 -1.134867 0.157000 1.654000 0 0 0
18 1 1 -0.098867 0.615000 2.294000 0 0 0
19 1 1 -0.357867 -0.092000 2.605000 0 0 0
20 1 1 -1.320867 -0.489000 2.811000 0 0 0
21 1 1 -1.934867 -0.503000 3.238000 0 0 0
22 1 1 -2.120867 -0.276000 4.026000 0 0 0
23 1 1 -2.169867 0.587000 3.903000 0 0 0
24 1 1 -2.374867 0.827000 4.838000 0 0 0
25 1 1 -1.788867 1.857000 4.864000 0 0 0
26 1 1 -0.781867 2.167000 4.643000 0 0 0
27 1 1 0.293133 1.871000 4.128000 0 0 0
28 1 1 0.488133 1.516000 5.092000 0 0 0
29 1 1 0.114133 2.085000 5.855000 0 0 0
30 1 1 -0.086867 2.744000 5.919000 0 0 0

Bonds

1 1 1 2
2 1 2 3
3 1 3 4
4 1 4 5
5 1 5 6
6 1 6 7
7 1 7 8
8 1 8 9
9 1 9 10
10 1 10 11
11 1 11 12
12 1 12 13
13 1 13 14
14 1 14 15
15 1 15 16
16 1 16 17
17 1 17 18
18 1 18 19
19 1 19 20
20 1 20 21
21 1 21 22
22 1 22 23
23 1 23 24
24 1 24 25
25 1 25 26
26 1 26 27
27 1 27 28
28 1 28 29
29 1 29 30

Angles

1 1 1 2 3
2 1 2 3 4
3 1 3 4 5
4 1 4 5 6
5 1 5 6 7
6 1 6 7 8
7 1 7 8 9
8 1 8 9 10
9 1 9 10 11
10 1 10 11 12
11 1 11 12 13
12 1 12 13 14
13 1 13 14 15
14 1 14 15 16
15 1 15 16 17
16 1 16 17 18
17 1 17 18 19
18 1 18 19 20
19 1 19 20 21
20 1 20 21 22
21 1 21 22 23
22 1 22 23 24
23 1 23 24 25
24 1 24 25 26
25 1 25 26 27
26 1 26 27 28
27 1 27 28 29
28 1 28 29 30
