LAMMPS data file

30 atoms
29 bonds
28 angles

1 atom types
1 bond types
1 angle types

-23.750000 23.750000 xlo xhi
-23.750000 23.750000 ylo yhi
-23.750000 23.750000 zlo zhi

Masses

1 1.0

Atoms

1 1 1 0.185000 1.476067 -0.291967 0 0 0
2 1 1 0.913000 0.740067 -0.039967 0 0 0
3 1 1 0.424000 0.282067 0.675033 0 0 0
4 1 1 -0.887000 0.064067 1.366033 0 0 0
5 1 1 -1.732000 -0.442933 1.566033 0 0 0
6 1 1 -2.370000 0.198067 1.509033 0 0 0
7 1 1 -2.145000 0.865067 1.978033 0 0 0
8 1 1 -2.714000 1.445067 1.523033 0 0 0
9 1 1 -2.636000 1.805067 0.794033 0 0 0
10 1 1 -2.961000 2.610067 -0.308967 0 0 0
11 1 1 -3.373000 2.069067 -0.828967 0 0 0
12 1 1 -2.531000 2.174067 -1.508967 0 0 0
13 1 1 -1.915000 1.078067 -1.805967 0 0 0
14 1 1 -1.919000 0.118067 -1.761967 0 0 0
15 1 1 -1.273000 -0.319933 -2.931967 0 0 0
16 1 1 -0.723000 -0.579933 -2.855967 0 0 0
17 1 1 0.232000 -1.095933 -3.364967 0 0 0
18 1 1 0.370000 -1.268933 -3.060967 0 0 0
19 1 1 0.397000 -0.247933 -2.537967 0 0 0
20 1 1 1.310000 -0.200933 -1.876967 0 0 0
21 1 1 2.288000 -0.729933 -1.682967 0 0 0
22 1 1 2.494000 -1.377933 -0.859967 0 0 0
23 1 1 2.659000 -1.705933 0.047033 0 0 0
24 1 1 2.400000 -1.032933 0.744033 0 0 0
25 1 1 3.038000 -0.822933 1.613033 0 0 0
26 1 1 2.982000 -0.013933 2.294033 0 0 0
27 1 1 2.569000 -0.599933 3.092033 0 0 0
28 1 1 2.424000 -1.617933 3.514033 0 0 0
29 1 1 1.667000 -1.748933 2.387033 0 0 0
30 1 1 0.827000 -1.117933 2.616033 0 0 0

Bonds

1 1 1 2
2 1 2 3
3 1 3 4
4 1 4 5
5 1 5 6
6 1 6 7
7 1 7 8
8 1 8 9
9 1 9 10
10 1 10 11
11 1 11 12
12 1 12 13
13 1 13 14
14 1 14 15
15 1 15 16
16 1 16 17
17 1 17 18
18 1 18 19
19 1 19 20
20 1 20 21
21 1 21 22
22 1 22 23
23 1 23 24
24 1 24 25
25 1 25 26
26 1 26 27
27 1 27 28
28 1 28 29
29 1 29 30

Angles

1 1 1 2 3
2 1 2 3 4
3 1 3 4 5
4 1 4 5 6
5 1 5 6 7
6 1 6 7 8
7 1 7 8 9
8 1 8 9 10
9 1 9 10 11
10 1 10 11 12
11 1 11 12 13
12 1 12 13 14
13 1 13 14 15
14 1 14 15 16
15 1 15 16 17
16 1 16 17 18
17 1 17 18 19
18 1 18 19 20
19 1 19 20 21
20 1 20 21 22
21 1 21 22 23
22 1 22 23 24
23 1 23 24 25
24 1 24 25 26
25 1 25 26 27
26 1 26 27 28
27 1 27 28 29
28 1 28 29 30
