LAMMPS data file

30 atoms
29 bonds
28 angles

1 atom types
1 bond types
1 angle types

-23.750000 23.750000 xlo xhi
-23.750000 23.750000 ylo yhi
-23.750000 23.750000 zlo zhi

Masses

1 1.0

Atoms

1 1 1 1.375900 -4.887000 -0.733033 0 0 0
2 1 1 1.756900 -3.632000 -0.938033 0 0 0
3 1 1 2.619900 -2.716000 0.105967 0 0 0
4 1 1 2.681900 -2.236000 0.896967 0 0 0
5 1 1 2.708900 -1.629000 0.242967 0 0 0
6 1 1 2.074900 -1.954000 -0.676033 0 0 0
7 1 1 2.206900 -1.776000 -1.089033 0 0 0
8 1 1 2.864900 -2.536000 -1.717033 0 0 0
9 1 1 3.375900 -2.453000 -0.877033 0 0 0
10 1 1 4.327900 -1.742000 0.088967 0 0 0
11 1 1 4.202900 -0.901000 1.064967 0 0 0
12 1 1 3.216900 -0.497000 1.182967 0 0 0
13 1 1 2.478900 -0.017000 0.954967 0 0 0
14 1 1 1.456900 0.448000 0.468967 0 0 0
15 1 1 0.841900 0.499000 0.123967 0 0 0
16 1 1 -0.233100 0.276000 1.167967 0 0 0
17 1 1 -0.130100 -0.767000 1.200967 0 0 0
18 1 1 0.149900 -0.990000 0.366967 0 0 0
19 1 1 0.061900 -0.342000 -0.331033 0 0 0
20 1 1 -0.490100 0.238000 -0.898033 0 0 0
21 1 1 -1.328100 0.827000 -0.729033 0 0 0
22 1 1 -2.126100 0.292000 -0.867033 0 0 0
23 1 1 -3.132100 0.763000 -0.873033 0 0 0
24 1 1 -3.852100 1.398000 -1.151033 0 0 0
25 1 1 -3.573100 2.568000 -1.081033 0 0 0
26 1 1 -4.010100 2.940000 -0.582033 0 0 0
27 1 1 -4.548100 3.465000 0.218967 0 0 0
28 1 1 -4.965100 4.443000 0.820967 0 0 0
29 1 1 -5.244100 5.334000 1.411967 0 0 0
30 1 1 -4.771100 5.584000 2.223967 0 0 0

Bonds

1 1 1 2
2 1 2 3
3 1 3 4
4 1 4 5
5 1 5 6
6 1 6 7
7 1 7 8
8 1 8 9
9 1 9 10
10 1 10 11
11 1 11 12
12 1 12 13
13 1 13 14
14 1 14 15
15 1 15 16
16 1 16 17
17 1 17 18
18 1 18 19
19 1 19 20
20 1 20 21
21 1 21 22
22 1 22 23
23 1 23 24
24 1 24 25
25 1 25 26
26 1 26 27
27 1 27 28
28 1 28 29
29 1 29 30

Angles

1 1 1 2 3
2 1 2 3 4
3 1 3 4 5
4 1 4 5 6
5 1 5 6 7
6 1 6 7 8
7 1 7 8 9
8 1 8 9 10
9 1 9 10 11
10 1 10 11 12
11 1 11 12 13
12 1 12 13 14
13 1 13 14 15
14 1 14 15 16
15 1 15 16 17
16 1 16 17 18
17 1 17 18 19
18 1 18 19 20
19 1 19 20 21
20 1 20 21 22
21 1 21 22 23
22 1 22 23 24
23 1 23 24 25
24 1 24 25 26
25 1 25 26 27
26 1 26 27 28
27 1 27 28 29
28 1 28 29 30
