LAMMPS data file

30 atoms
29 bonds
28 angles

1 atom types
1 bond types
1 angle types

-23.750000 23.750000 xlo xhi
-23.750000 23.750000 ylo yhi
-23.750000 23.750000 zlo zhi

Masses

1 1.0

Atoms

1 1 1 0.842000 -3.908933 -1.206033 0 0 0
2 1 1 0.031000 -3.046933 -1.056033 0 0 0
3 1 1 -0.710000 -3.687933 -0.435033 0 0 0
4 1 1 -1.386000 -4.040933 0.299967 0 0 0
5 1 1 -1.156000 -4.476934 0.954967 0 0 0
6 1 1 -0.390000 -4.109933 1.154967 0 0 0
7 1 1 0.478000 -5.067933 1.197967 0 0 0
8 1 1 0.664000 -4.079933 0.992967 0 0 0
9 1 1 0.019000 -3.013933 0.357967 0 0 0
10 1 1 0.260000 -2.147933 -0.517033 0 0 0
11 1 1 0.320000 -1.065933 -0.126033 0 0 0
12 1 1 0.770000 -0.225933 -0.197033 0 0 0
13 1 1 0.486000 0.162067 -0.602033 0 0 0
14 1 1 0.128000 0.279067 -1.268033 0 0 0
15 1 1 -0.033000 -0.141933 -1.940033 0 0 0
16 1 1 0.805000 -0.468933 -1.662033 0 0 0
17 1 1 1.936000 -0.582933 -1.514033 0 0 0
18 1 1 2.513000 0.262067 -1.660033 0 0 0
19 1 1 1.777000 0.914067 -1.788033 0 0 0
20 1 1 0.502000 1.300067 -1.589033 0 0 0
21 1 1 1.049000 1.656067 -1.102033 0 0 0
22 1 1 0.519000 2.713067 -0.884033 0 0 0
23 1 1 0.062000 3.952067 -0.509033 0 0 0
24 1 1 -0.602000 4.492067 0.277967 0 0 0
25 1 1 -1.554000 3.971067 0.640967 0 0 0
26 1 1 -2.272000 3.436067 1.363967 0 0 0
27 1 1 -1.852000 2.702067 2.071967 0 0 0
28 1 1 -1.379000 3.824067 2.811967 0 0 0
29 1 1 -0.712000 4.898066 2.620967 0 0 0
30 1 1 -1.115000 5.505067 3.308967 0 0 0

Bonds

1 1 1 2
2 1 2 3
3 1 3 4
4 1 4 5
5 1 5 6
6 1 6 7
7 1 7 8
8 1 8 9
9 1 9 10
10 1 10 11
11 1 11 12
12 1 12 13
13 1 13 14
14 1 14 15
15 1 15 16
16 1 16 17
17 1 17 18
18 1 18 19
19 1 19 20
20 1 20 21
21 1 21 22
22 1 22 23
23 1 23 24
24 1 24 25
25 1 25 26
26 1 26 27
27 1 27 28
28 1 28 29
29 1 29 30

Angles

1 1 1 2 3
2 1 2 3 4
3 1 3 4 5
4 1 4 5 6
5 1 5 6 7
6 1 6 7 8
7 1 7 8 9
8 1 8 9 10
9 1 9 10 11
10 1 10 11 12
11 1 11 12 13
12 1 12 13 14
13 1 13 14 15
14 1 14 15 16
15 1 15 16 17
16 1 16 17 18
17 1 17 18 19
18 1 18 19 20
19 1 19 20 21
20 1 20 21 22
21 1 21 22 23
22 1 22 23 24
23 1 23 24 25
24 1 24 25 26
25 1 25 26 27
26 1 26 27 28
27 1 27 28 29
28 1 28 29 30
