LAMMPS data file

30 atoms
29 bonds
28 angles

1 atom types
1 bond types
1 angle types

-23.750000 23.750000 xlo xhi
-23.750000 23.750000 ylo yhi
-23.750000 23.750000 zlo zhi

Masses

1 1.0

Atoms

1 1 1 0.164000 0.151033 -2.873967 0 0 0
2 1 1 0.217000 0.616033 -1.805967 0 0 0
3 1 1 -0.480000 0.183033 -1.130967 0 0 0
4 1 1 0.248000 -0.406967 -0.131967 0 0 0
5 1 1 0.024000 -1.559967 -0.350967 0 0 0
6 1 1 0.881000 -1.429967 0.600033 0 0 0
7 1 1 1.328000 -2.413967 1.101033 0 0 0
8 1 1 1.940000 -3.437967 0.176033 0 0 0
9 1 1 1.074000 -3.256967 -0.791967 0 0 0
10 1 1 0.888000 -2.862967 -1.686967 0 0 0
11 1 1 0.132000 -3.013967 -2.337967 0 0 0
12 1 1 -0.577000 -2.612967 -2.577967 0 0 0
13 1 1 -0.434000 -1.858967 -1.897967 0 0 0
14 1 1 0.081000 -1.148967 -1.530967 0 0 0
15 1 1 -0.950000 -0.938967 -0.536967 0 0 0
16 1 1 -1.173000 -1.597967 0.396033 0 0 0
17 1 1 -0.714000 -1.041967 1.258033 0 0 0
18 1 1 -0.560000 -0.582967 1.821033 0 0 0
19 1 1 -0.684000 0.336033 1.803033 0 0 0
20 1 1 -0.478000 0.914033 0.820033 0 0 0
21 1 1 0.103000 0.469033 0.358033 0 0 0
22 1 1 0.522000 1.093033 0.427033 0 0 0
23 1 1 0.965000 1.474033 1.086033 0 0 0
24 1 1 1.074000 2.093033 0.006033 0 0 0
25 1 1 0.675000 2.944033 -0.012967 0 0 0
26 1 1 0.000000 3.578033 0.643033 0 0 0
27 1 1 0.095000 3.325033 2.169033 0 0 0
28 1 1 -0.498000 3.262033 2.007033 0 0 0
29 1 1 -1.463000 3.903033 1.435033 0 0 0
30 1 1 -2.400000 3.824033 1.561033 0 0 0

Bonds

1 1 1 2
2 1 2 3
3 1 3 4
4 1 4 5
5 1 5 6
6 1 6 7
7 1 7 8
8 1 8 9
9 1 9 10
10 1 10 11
11 1 11 12
12 1 12 13
13 1 13 14
14 1 14 15
15 1 15 16
16 1 16 17
17 1 17 18
18 1 18 19
19 1 19 20
20 1 20 21
21 1 21 22
22 1 22 23
23 1 23 24
24 1 24 25
25 1 25 26
26 1 26 27
27 1 27 28
28 1 28 29
29 1 29 30

Angles

1 1 1 2 3
2 1 2 3 4
3 1 3 4 5
4 1 4 5 6
5 1 5 6 7
6 1 6 7 8
7 1 7 8 9
8 1 8 9 10
9 1 9 10 11
10 1 10 11 12
11 1 11 12 13
12 1 12 13 14
13 1 13 14 15
14 1 14 15 16
15 1 15 16 17
16 1 16 17 18
17 1 17 18 19
18 1 18 19 20
19 1 19 20 21
20 1 20 21 22
21 1 21 22 23
22 1 22 23 24
23 1 23 24 25
24 1 24 25 26
25 1 25 26 27
26 1 26 27 28
27 1 27 28 29
28 1 28 29 30
