LAMMPS data file

30 atoms
29 bonds
28 angles

1 atom types
1 bond types
1 angle types

-23.750000 23.750000 xlo xhi
-23.750000 23.750000 ylo yhi
-23.750000 23.750000 zlo zhi

Masses

1 1.0

Atoms

1 1 1 2.013967 2.426067 1.027967 0 0 0
2 1 1 2.468967 1.641067 0.647967 0 0 0
3 1 1 1.694967 1.238067 1.284967 0 0 0
4 1 1 1.027967 1.722067 1.406967 0 0 0
5 1 1 0.813967 2.241067 0.855967 0 0 0
6 1 1 0.850967 2.011067 -0.077033 0 0 0
7 1 1 1.553967 1.867067 -0.559033 0 0 0
8 1 1 1.614967 0.691067 -1.387033 0 0 0
9 1 1 2.384967 0.593067 -0.768033 0 0 0
10 1 1 1.324967 0.222067 -0.194033 0 0 0
11 1 1 1.501967 -0.381933 -0.534033 0 0 0
12 1 1 1.702967 -1.225933 -1.068033 0 0 0
13 1 1 0.923967 -1.899933 -0.493033 0 0 0
14 1 1 0.392967 -1.664933 -0.795033 0 0 0
15 1 1 -0.703033 -1.634933 -0.121033 0 0 0
16 1 1 -1.220033 -2.425933 -0.170033 0 0 0
17 1 1 -1.287033 -3.330933 0.324967 0 0 0
18 1 1 -2.215033 -3.082933 0.007967 0 0 0
19 1 1 -2.249033 -3.680933 -0.698033 0 0 0
20 1 1 -2.195033 -2.423933 -1.496033 0 0 0
21 1 1 -2.178033 -1.768933 -1.142033 0 0 0
22 1 1 -1.695033 -1.043933 -0.696033 0 0 0
23 1 1 -1.858033 0.039067 -0.677033 0 0 0
24 1 1 -0.884033 0.231067 -0.215033 0 0 0
25 1 1 -0.294033 1.256067 -0.238033 0 0 0
26 1 1 -0.362033 2.045067 0.063967 0 0 0
27 1 1 -0.470033 2.554067 0.744967 0 0 0
28 1 1 -1.008033 2.184067 1.604967 0 0 0
29 1 1 -0.923033 1.023067 1.949967 0 0 0
30 1 1 -0.730033 0.580067 1.407967 0 0 0

Bonds

1 1 1 2
2 1 2 3
3 1 3 4
4 1 4 5
5 1 5 6
6 1 6 7
7 1 7 8
8 1 8 9
9 1 9 10
10 1 10 11
11 1 11 12
12 1 12 13
13 1 13 14
14 1 14 15
15 1 15 16
16 1 16 17
17 1 17 18
18 1 18 19
19 1 19 20
20 1 20 21
21 1 21 22
22 1 22 23
23 1 23 24
24 1 24 25
25 1 25 26
26 1 26 27
27 1 27 28
28 1 28 29
29 1 29 30

Angles

1 1 1 2 3
2 1 2 3 4
3 1 3 4 5
4 1 4 5 6
5 1 5 6 7
6 1 6 7 8
7 1 7 8 9
8 1 8 9 10
9 1 9 10 11
10 1 10 11 12
11 1 11 12 13
12 1 12 13 14
13 1 13 14 15
14 1 14 15 16
15 1 15 16 17
16 1 16 17 18
17 1 17 18 19
18 1 18 19 20
19 1 19 20 21
20 1 20 21 22
21 1 21 22 23
22 1 22 23 24
23 1 23 24 25
24 1 24 25 26
25 1 25 26 27
26 1 26 27 28
27 1 27 28 29
28 1 28 29 30
