LAMMPS data file

30 atoms
29 bonds
28 angles

1 atom types
1 bond types
1 angle types

-23.750000 23.750000 xlo xhi
-23.750000 23.750000 ylo yhi
-23.750000 23.750000 zlo zhi

Masses

1 1.0

Atoms

1 1 1 -4.600033 -2.269000 0.979033 0 0 0
2 1 1 -4.077033 -2.372000 1.809033 0 0 0
3 1 1 -2.938033 -2.547000 1.387033 0 0 0
4 1 1 -2.156033 -2.099000 2.077033 0 0 0
5 1 1 -1.687033 -1.807000 1.356033 0 0 0
6 1 1 -2.219033 -0.757000 0.958033 0 0 0
7 1 1 -2.608033 0.051000 0.285033 0 0 0
8 1 1 -2.640033 0.581000 0.200033 0 0 0
9 1 1 -2.426033 1.546000 0.541033 0 0 0
10 1 1 -1.717033 1.582000 1.136033 0 0 0
11 1 1 -1.338033 2.338000 1.083033 0 0 0
12 1 1 -0.627033 3.013000 1.586033 0 0 0
13 1 1 -0.268033 3.472000 0.704033 0 0 0
14 1 1 -0.591033 2.783000 -0.179967 0 0 0
15 1 1 -0.324033 1.772000 -0.883967 0 0 0
16 1 1 0.366967 1.445000 -1.422967 0 0 0
17 1 1 0.702967 0.364000 -1.522967 0 0 0
18 1 1 0.159967 -0.520000 -2.100967 0 0 0
19 1 1 0.288967 -1.407000 -2.084967 0 0 0
20 1 1 1.015967 -1.162000 -1.293967 0 0 0
21 1 1 1.691967 -0.337000 -0.835967 0 0 0
22 1 1 1.944967 -0.092000 -0.153967 0 0 0
23 1 1 2.908967 -0.614000 -0.147967 0 0 0
24 1 1 3.329967 -1.457000 0.735033 0 0 0
25 1 1 3.650967 -0.556000 0.930033 0 0 0
26 1 1 3.589967 0.170000 0.267033 0 0 0
27 1 1 3.249967 0.185000 -0.769967 0 0 0
28 1 1 2.480967 0.459000 -1.664967 0 0 0
29 1 1 2.740967 -0.550000 -1.417967 0 0 0
30 1 1 2.092967 -1.215000 -1.552967 0 0 0

Bonds

1 1 1 2
2 1 2 3
3 1 3 4
4 1 4 5
5 1 5 6
6 1 6 7
7 1 7 8
8 1 8 9
9 1 9 10
10 1 10 11
11 1 11 12
12 1 12 13
13 1 13 14
14 1 14 15
15 1 15 16
16 1 16 17
17 1 17 18
18 1 18 19
19 1 19 20
20 1 20 21
21 1 21 22
22 1 22 23
23 1 23 24
24 1 24 25
25 1 25 26
26 1 26 27
27 1 27 28
28 1 28 29
29 1 29 30

Angles

1 1 1 2 3
2 1 2 3 4
3 1 3 4 5
4 1 4 5 6
5 1 5 6 7
6 1 6 7 8
7 1 7 8 9
8 1 8 9 10
9 1 9 10 11
10 1 10 11 12
11 1 11 12 13
12 1 12 13 14
13 1 13 14 15
14 1 14 15 16
15 1 15 16 17
16 1 16 17 18
17 1 17 18 19
18 1 18 19 20
19 1 19 20 21
20 1 20 21 22
21 1 21 22 23
22 1 22 23 24
23 1 23 24 25
24 1 24 25 26
25 1 25 26 27
26 1 26 27 28
27 1 27 28 29
28 1 28 29 30
