LAMMPS data file

30 atoms
29 bonds
28 angles

1 atom types
1 bond types
1 angle types

-23.750000 23.750000 xlo xhi
-23.750000 23.750000 ylo yhi
-23.750000 23.750000 zlo zhi

Masses

1 1.0

Atoms

1 1 1 -2.828000 1.190033 -0.884067 0 0 0
2 1 1 -3.148000 1.983033 -1.021067 0 0 0
3 1 1 -2.804000 3.003033 -1.137067 0 0 0
4 1 1 -1.789000 3.249033 -1.407067 0 0 0
5 1 1 -0.995000 2.957033 -0.690067 0 0 0
6 1 1 -1.544000 3.271033 0.128933 0 0 0
7 1 1 -2.102000 2.510033 0.754933 0 0 0
8 1 1 -1.603000 1.888033 1.470933 0 0 0
9 1 1 -1.839000 1.150033 1.695933 0 0 0
10 1 1 -2.929000 0.711033 1.738933 0 0 0
11 1 1 -3.737000 0.795033 0.254933 0 0 0
12 1 1 -3.791000 -0.072967 0.475933 0 0 0
13 1 1 -4.219000 -1.185967 0.801933 0 0 0
14 1 1 -3.398000 -1.308967 0.197933 0 0 0
15 1 1 -2.336000 -1.095967 -0.396067 0 0 0
16 1 1 -1.509000 -1.220967 0.210933 0 0 0
17 1 1 -0.319000 -1.439967 0.629933 0 0 0
18 1 1 0.309000 -0.660967 0.257933 0 0 0
19 1 1 1.090000 -0.566967 0.279933 0 0 0
20 1 1 0.790000 -1.756967 0.241933 0 0 0
21 1 1 0.886000 -1.813967 -0.523067 0 0 0
22 1 1 1.832000 -1.750967 -0.438067 0 0 0
23 1 1 2.211000 -2.547967 -0.750067 0 0 0
24 1 1 3.257000 -2.980967 -0.396067 0 0 0
25 1 1 4.514000 -2.192967 -0.404067 0 0 0
26 1 1 5.521000 -1.667967 -0.112067 0 0 0
27 1 1 5.939000 -0.675967 0.408933 0 0 0
28 1 1 5.004000 0.267033 0.140933 0 0 0
29 1 1 4.905000 0.501033 -0.719067 0 0 0
30 1 1 4.632000 -0.534967 -0.813067 0 0 0

Bonds

1 1 1 2
2 1 2 3
3 1 3 4
4 1 4 5
5 1 5 6
6 1 6 7
7 1 7 8
8 1 8 9
9 1 9 10
10 1 10 11
11 1 11 12
12 1 12 13
13 1 13 14
14 1 14 15
15 1 15 16
16 1 16 17
17 1 17 18
18 1 18 19
19 1 19 20
20 1 20 21
21 1 21 22
22 1 22 23
23 1 23 24
24 1 24 25
25 1 25 26
26 1 26 27
27 1 27 28
28 1 28 29
29 1 29 30

Angles

1 1 1 2 3
2 1 2 3 4
3 1 3 4 5
4 1 4 5 6
5 1 5 6 7
6 1 6 7 8
7 1 7 8 9
8 1 8 9 10
9 1 9 10 11
10 1 10 11 12
11 1 11 12 13
12 1 12 13 14
13 1 13 14 15
14 1 14 15 16
15 1 15 16 17
16 1 16 17 18
17 1 17 18 19
18 1 18 19 20
19 1 19 20 21
20 1 20 21 22
21 1 21 22 23
22 1 22 23 24
23 1 23 24 25
24 1 24 25 26
25 1 25 26 27
26 1 26 27 28
27 1 27 28 29
28 1 28 29 30
