LAMMPS data file

30 atoms
29 bonds
28 angles

1 atom types
1 bond types
1 angle types

-23.750000 23.750000 xlo xhi
-23.750000 23.750000 ylo yhi
-23.750000 23.750000 zlo zhi

Masses

1 1.0

Atoms

1 1 1 0.472967 -6.731000 0.812000 0 0 0
2 1 1 0.697967 -6.149000 1.628000 0 0 0
3 1 1 0.960967 -5.265000 1.750000 0 0 0
4 1 1 0.699967 -4.552000 2.292000 0 0 0
5 1 1 -0.013033 -4.014000 2.510000 0 0 0
6 1 1 0.335967 -3.315000 1.735000 0 0 0
7 1 1 -0.564033 -2.364000 1.595000 0 0 0
8 1 1 -0.847033 -1.486000 1.147000 0 0 0
9 1 1 -0.512033 -0.767000 0.020000 0 0 0
10 1 1 -0.385033 -0.246000 -0.738000 0 0 0
11 1 1 0.339967 -0.230000 -1.698000 0 0 0
12 1 1 0.944967 0.385000 -1.948000 0 0 0
13 1 1 1.074967 1.137000 -2.463000 0 0 0
14 1 1 0.854967 2.060000 -3.350000 0 0 0
15 1 1 0.657967 2.743000 -3.477000 0 0 0
16 1 1 -0.237033 2.597000 -3.575000 0 0 0
17 1 1 -0.597033 2.575000 -2.355000 0 0 0
18 1 1 -0.250033 3.103000 -1.625000 0 0 0
19 1 1 -0.563033 2.324000 -0.772000 0 0 0
20 1 1 -1.471033 2.319000 -1.406000 0 0 0
21 1 1 -2.251033 2.217000 -1.043000 0 0 0
22 1 1 -2.350033 1.414000 -0.473000 0 0 0
23 1 1 -1.944033 1.027000 0.382000 0 0 0
24 1 1 -0.981033 1.280000 -0.084000 0 0 0
25 1 1 -0.237033 1.652000 -0.004000 0 0 0
26 1 1 0.253967 1.847000 0.715000 0 0 0
27 1 1 1.077967 1.663000 1.734000 0 0 0
28 1 1 1.139967 1.433000 2.631000 0 0 0
29 1 1 1.391967 1.698000 3.328000 0 0 0
30 1 1 2.297967 1.645000 2.732000 0 0 0

Bonds

1 1 1 2
2 1 2 3
3 1 3 4
4 1 4 5
5 1 5 6
6 1 6 7
7 1 7 8
8 1 8 9
9 1 9 10
10 1 10 11
11 1 11 12
12 1 12 13
13 1 13 14
14 1 14 15
15 1 15 16
16 1 16 17
17 1 17 18
18 1 18 19
19 1 19 20
20 1 20 21
21 1 21 22
22 1 22 23
23 1 23 24
24 1 24 25
25 1 25 26
26 1 26 27
27 1 27 28
28 1 28 29
29 1 29 30

Angles

1 1 1 2 3
2 1 2 3 4
3 1 3 4 5
4 1 4 5 6
5 1 5 6 7
6 1 6 7 8
7 1 7 8 9
8 1 8 9 10
9 1 9 10 11
10 1 10 11 12
11 1 11 12 13
12 1 12 13 14
13 1 13 14 15
14 1 14 15 16
15 1 15 16 17
16 1 16 17 18
17 1 17 18 19
18 1 18 19 20
19 1 19 20 21
20 1 20 21 22
21 1 21 22 23
22 1 22 23 24
23 1 23 24 25
24 1 24 25 26
25 1 25 26 27
26 1 26 27 28
27 1 27 28 29
28 1 28 29 30
