LAMMPS data file

30 atoms
29 bonds
28 angles

1 atom types
1 bond types
1 angle types

-23.750000 23.750000 xlo xhi
-23.750000 23.750000 ylo yhi
-23.750000 23.750000 zlo zhi

Masses

1 1.0

Atoms

1 1 1 -0.495000 3.620967 2.974000 0 0 0
2 1 1 -0.947000 2.756967 3.320000 0 0 0
3 1 1 -0.973000 2.616967 2.313000 0 0 0
4 1 1 -1.497000 3.392967 2.062000 0 0 0
5 1 1 -2.904000 3.563967 1.688000 0 0 0
6 1 1 -3.139000 3.725967 0.737000 0 0 0
7 1 1 -2.561000 3.449967 0.259000 0 0 0
8 1 1 -2.358000 2.405967 0.502000 0 0 0
9 1 1 -2.525000 1.791967 0.436000 0 0 0
10 1 1 -3.421000 1.155967 0.092000 0 0 0
11 1 1 -4.413000 0.973967 0.181000 0 0 0
12 1 1 -4.917000 0.201967 -0.214000 0 0 0
13 1 1 -4.318000 0.296967 -1.240000 0 0 0
14 1 1 -3.182000 0.228967 -1.190000 0 0 0
15 1 1 -2.496000 -0.295033 -1.881000 0 0 0
16 1 1 -2.042000 -1.270033 -1.938000 0 0 0
17 1 1 -1.896000 -2.073033 -2.049000 0 0 0
18 1 1 -0.818000 -1.913033 -1.410000 0 0 0
19 1 1 -0.504000 -1.792033 -0.458000 0 0 0
20 1 1 0.494000 -1.756033 -0.347000 0 0 0
21 1 1 1.070000 -1.296033 0.078000 0 0 0
22 1 1 2.138000 -0.598033 0.065000 0 0 0
23 1 1 2.943000 -0.676033 -0.638000 0 0 0
24 1 1 4.332000 -0.869033 -0.372000 0 0 0
25 1 1 5.171000 -1.452033 -0.456000 0 0 0
26 1 1 5.987000 -1.899033 0.071000 0 0 0
27 1 1 6.140000 -2.866033 -0.187000 0 0 0
28 1 1 5.808000 -4.035033 -0.278000 0 0 0
29 1 1 5.410000 -3.886033 -0.818000 0 0 0
30 1 1 5.913000 -3.507033 -1.302000 0 0 0

Bonds

1 1 1 2
2 1 2 3
3 1 3 4
4 1 4 5
5 1 5 6
6 1 6 7
7 1 7 8
8 1 8 9
9 1 9 10
10 1 10 11
11 1 11 12
12 1 12 13
13 1 13 14
14 1 14 15
15 1 15 16
16 1 16 17
17 1 17 18
18 1 18 19
19 1 19 20
20 1 20 21
21 1 21 22
22 1 22 23
23 1 23 24
24 1 24 25
25 1 25 26
26 1 26 27
27 1 27 28
28 1 28 29
29 1 29 30

Angles

1 1 1 2 3
2 1 2 3 4
3 1 3 4 5
4 1 4 5 6
5 1 5 6 7
6 1 6 7 8
7 1 7 8 9
8 1 8 9 10
9 1 9 10 11
10 1 10 11 12
11 1 11 12 13
12 1 12 13 14
13 1 13 14 15
14 1 14 15 16
15 1 15 16 17
16 1 16 17 18
17 1 17 18 19
18 1 18 19 20
19 1 19 20 21
20 1 20 21 22
21 1 21 22 23
22 1 22 23 24
23 1 23 24 25
24 1 24 25 26
25 1 25 26 27
26 1 26 27 28
27 1 27 28 29
28 1 28 29 30
