LAMMPS data file

30 atoms
29 bonds
28 angles

1 atom types
1 bond types
1 angle types

-23.750000 23.750000 xlo xhi
-23.750000 23.750000 ylo yhi
-23.750000 23.750000 zlo zhi

Masses

1 1.0

Atoms

1 1 1 -2.408933 -4.600000 3.236933 0 0 0
2 1 1 -2.191933 -4.097000 4.063933 0 0 0
3 1 1 -1.422933 -4.440000 4.364933 0 0 0
4 1 1 -0.851933 -5.106000 4.293933 0 0 0
5 1 1 0.063067 -4.907000 4.341933 0 0 0
6 1 1 0.013067 -4.352000 5.130933 0 0 0
7 1 1 0.642067 -4.264000 5.172933 0 0 0
8 1 1 -0.019933 -3.484000 4.229933 0 0 0
9 1 1 0.332067 -3.439000 3.079933 0 0 0
10 1 1 -0.052933 -3.617000 1.950933 0 0 0
11 1 1 -0.763933 -3.384000 2.976933 0 0 0
12 1 1 -1.502933 -3.547000 2.495933 0 0 0
13 1 1 -1.854933 -2.369000 2.122933 0 0 0
14 1 1 -2.253933 -2.008000 1.219933 0 0 0
15 1 1 -2.231933 -0.864000 1.260933 0 0 0
16 1 1 -1.644933 0.046000 0.875933 0 0 0
17 1 1 -2.146933 -0.510000 -0.341067 0 0 0
18 1 1 -1.843933 -0.007000 -1.138067 0 0 0
19 1 1 -1.022933 0.497000 -2.067067 0 0 0
20 1 1 -0.634933 0.643000 -2.846067 0 0 0
21 1 1 -0.151933 1.406000 -3.179067 0 0 0
22 1 1 1.071067 1.897000 -4.085067 0 0 0
23 1 1 1.528067 2.932000 -4.162067 0 0 0
24 1 1 2.219067 4.215000 -4.365066 0 0 0
25 1 1 2.832067 5.118000 -4.623067 0 0 0
26 1 1 2.906067 6.384000 -4.419067 0 0 0
27 1 1 2.923067 7.205000 -3.972067 0 0 0
28 1 1 3.365067 7.825000 -4.868067 0 0 0
29 1 1 2.265067 8.533000 -4.890067 0 0 0
30 1 1 2.842067 8.294000 -5.863067 0 0 0

Bonds

1 1 1 2
2 1 2 3
3 1 3 4
4 1 4 5
5 1 5 6
6 1 6 7
7 1 7 8
8 1 8 9
9 1 9 10
10 1 10 11
11 1 11 12
12 1 12 13
13 1 13 14
14 1 14 15
15 1 15 16
16 1 16 17
17 1 17 18
18 1 18 19
19 1 19 20
20 1 20 21
21 1 21 22
22 1 22 23
23 1 23 24
24 1 24 25
25 1 25 26
26 1 26 27
27 1 27 28
28 1 28 29
29 1 29 30

Angles

1 1 1 2 3
2 1 2 3 4
3 1 3 4 5
4 1 4 5 6
5 1 5 6 7
6 1 6 7 8
7 1 7 8 9
8 1 8 9 10
9 1 9 10 11
10 1 10 11 12
11 1 11 12 13
12 1 12 13 14
13 1 13 14 15
14 1 14 15 16
15 1 15 16 17
16 1 16 17 18
17 1 17 18 19
18 1 18 19 20
19 1 19 20 21
20 1 20 21 22
21 1 21 22 23
22 1 22 23 24
23 1 23 24 25
24 1 24 25 26
25 1 25 26 27
26 1 26 27 28
27 1 27 28 29
28 1 28 29 30
