LAMMPS data file

30 atoms
29 bonds
28 angles

1 atom types
1 bond types
1 angle types

-23.750000 23.750000 xlo xhi
-23.750000 23.750000 ylo yhi
-23.750000 23.750000 zlo zhi

Masses

1 1.0

Atoms

1 1 1 0.605967 0.366933 1.215000 0 0 0
2 1 1 -0.481033 0.603933 0.992000 0 0 0
3 1 1 -1.265033 0.431933 1.353000 0 0 0
4 1 1 -1.360033 0.897933 2.064000 0 0 0
5 1 1 -0.921033 1.227933 2.283000 0 0 0
6 1 1 -0.055033 1.530933 2.513000 0 0 0
7 1 1 0.412967 2.251933 1.753000 0 0 0
8 1 1 0.417967 2.220933 0.761000 0 0 0
9 1 1 0.026967 2.520933 -0.109000 0 0 0
10 1 1 -0.154033 2.107933 -0.792000 0 0 0
11 1 1 0.034967 1.836933 -1.710000 0 0 0
12 1 1 0.884967 1.338933 -1.481000 0 0 0
13 1 1 1.328967 1.470933 -2.329000 0 0 0
14 1 1 1.600967 0.872933 -2.739000 0 0 0
15 1 1 1.058967 0.041933 -3.192000 0 0 0
16 1 1 0.608967 0.120933 -2.293000 0 0 0
17 1 1 0.316967 -0.629067 -1.437000 0 0 0
18 1 1 0.775967 -1.241067 -1.738000 0 0 0
19 1 1 1.393967 -1.480067 -1.252000 0 0 0
20 1 1 1.209967 -1.313067 -0.158000 0 0 0
21 1 1 0.715967 -0.671067 0.350000 0 0 0
22 1 1 0.109967 -0.856067 0.369000 0 0 0
23 1 1 0.363967 -1.311067 1.144000 0 0 0
24 1 1 0.688967 -1.833067 0.706000 0 0 0
25 1 1 0.447967 -2.667067 0.378000 0 0 0
26 1 1 -0.473033 -2.817067 -0.443000 0 0 0
27 1 1 -1.698033 -2.104067 -0.299000 0 0 0
28 1 1 -2.012033 -1.197067 0.437000 0 0 0
29 1 1 -1.801033 -0.693067 1.684000 0 0 0
30 1 1 -2.785033 -1.031067 1.970000 0 0 0

Bonds

1 1 1 2
2 1 2 3
3 1 3 4
4 1 4 5
5 1 5 6
6 1 6 7
7 1 7 8
8 1 8 9
9 1 9 10
10 1 10 11
11 1 11 12
12 1 12 13
13 1 13 14
14 1 14 15
15 1 15 16
16 1 16 17
17 1 17 18
18 1 18 19
19 1 19 20
20 1 20 21
21 1 21 22
22 1 22 23
23 1 23 24
24 1 24 25
25 1 25 26
26 1 26 27
27 1 27 28
28 1 28 29
29 1 29 30

Angles

1 1 1 2 3
2 1 2 3 4
3 1 3 4 5
4 1 4 5 6
5 1 5 6 7
6 1 6 7 8
7 1 7 8 9
8 1 8 9 10
9 1 9 10 11
10 1 10 11 12
11 1 11 12 13
12 1 12 13 14
13 1 13 14 15
14 1 14 15 16
15 1 15 16 17
16 1 16 17 18
17 1 17 18 19
18 1 18 19 20
19 1 19 20 21
20 1 20 21 22
21 1 21 22 23
22 1 22 23 24
23 1 23 24 25
24 1 24 25 26
25 1 25 26 27
26 1 26 27 28
27 1 27 28 29
28 1 28 29 30
