LAMMPS data file

30 atoms
29 bonds
28 angles

1 atom types
1 bond types
1 angle types

-23.750000 23.750000 xlo xhi
-23.750000 23.750000 ylo yhi
-23.750000 23.750000 zlo zhi

Masses

1 1.0

Atoms

1 1 1 2.080933 -2.904033 4.531033 0 0 0
2 1 1 1.635933 -2.025033 4.481033 0 0 0
3 1 1 1.137933 -1.017033 4.680033 0 0 0
4 1 1 1.328933 0.066967 4.955033 0 0 0
5 1 1 0.520933 0.133967 5.098033 0 0 0
6 1 1 -0.470067 0.818967 5.267034 0 0 0
7 1 1 -0.276067 1.734967 5.683033 0 0 0
8 1 1 -1.396067 1.758967 5.430033 0 0 0
9 1 1 -1.286067 1.307967 4.394033 0 0 0
10 1 1 -0.997067 -0.073033 3.709033 0 0 0
11 1 1 -1.488067 0.426967 2.681033 0 0 0
12 1 1 -2.172067 0.293967 1.945033 0 0 0
13 1 1 -2.141067 -0.478033 1.194033 0 0 0
14 1 1 -2.272067 0.257967 0.216033 0 0 0
15 1 1 -1.758067 -0.149033 -0.510967 0 0 0
16 1 1 -1.483067 -1.234033 -0.527967 0 0 0
17 1 1 -1.854067 -1.734033 -1.475967 0 0 0
18 1 1 -1.556067 -1.502033 -2.356967 0 0 0
19 1 1 -1.344067 -0.928033 -2.558967 0 0 0
20 1 1 -1.012067 0.014967 -2.971967 0 0 0
21 1 1 -0.440067 0.693967 -3.457967 0 0 0
22 1 1 0.264933 -0.096033 -3.390967 0 0 0
23 1 1 1.211933 0.376967 -3.474967 0 0 0
24 1 1 1.572933 1.259967 -3.265967 0 0 0
25 1 1 1.870933 1.640967 -4.037967 0 0 0
26 1 1 0.852933 1.423967 -4.388967 0 0 0
27 1 1 1.049933 0.670967 -4.988967 0 0 0
28 1 1 2.062933 -0.028033 -5.411967 0 0 0
29 1 1 3.034933 -0.303033 -5.239966 0 0 0
30 1 1 3.319933 -0.411033 -6.203967 0 0 0

Bonds

1 1 1 2
2 1 2 3
3 1 3 4
4 1 4 5
5 1 5 6
6 1 6 7
7 1 7 8
8 1 8 9
9 1 9 10
10 1 10 11
11 1 11 12
12 1 12 13
13 1 13 14
14 1 14 15
15 1 15 16
16 1 16 17
17 1 17 18
18 1 18 19
19 1 19 20
20 1 20 21
21 1 21 22
22 1 22 23
23 1 23 24
24 1 24 25
25 1 25 26
26 1 26 27
27 1 27 28
28 1 28 29
29 1 29 30

Angles

1 1 1 2 3
2 1 2 3 4
3 1 3 4 5
4 1 4 5 6
5 1 5 6 7
6 1 6 7 8
7 1 7 8 9
8 1 8 9 10
9 1 9 10 11
10 1 10 11 12
11 1 11 12 13
12 1 12 13 14
13 1 13 14 15
14 1 14 15 16
15 1 15 16 17
16 1 16 17 18
17 1 17 18 19
18 1 18 19 20
19 1 19 20 21
20 1 20 21 22
21 1 21 22 23
22 1 22 23 24
23 1 23 24 25
24 1 24 25 26
25 1 25 26 27
26 1 26 27 28
27 1 27 28 29
28 1 28 29 30
