LAMMPS data file

30 atoms
29 bonds
28 angles

1 atom types
1 bond types
1 angle types

-23.750000 23.750000 xlo xhi
-23.750000 23.750000 ylo yhi
-23.750000 23.750000 zlo zhi

Masses

1 1.0

Atoms

1 1 1 -1.334967 -0.499000 -0.060000 0 0 0
2 1 1 -2.679967 -0.446000 0.076000 0 0 0
3 1 1 -2.662967 0.068000 -0.912000 0 0 0
4 1 1 -1.890967 -0.013000 -1.099000 0 0 0
5 1 1 -1.875967 -1.307000 -1.546000 0 0 0
6 1 1 -1.410967 -1.284000 -2.390000 0 0 0
7 1 1 -1.967967 -2.318000 -1.851000 0 0 0
8 1 1 -1.829967 -2.183000 -1.032000 0 0 0
9 1 1 -0.771967 -1.845000 -1.024000 0 0 0
10 1 1 0.230033 -1.604000 -1.339000 0 0 0
11 1 1 1.010033 -1.971000 -1.615000 0 0 0
12 1 1 0.669033 -1.820000 -0.515000 0 0 0
13 1 1 1.208033 -0.863000 0.429000 0 0 0
14 1 1 0.846033 -0.162000 1.429000 0 0 0
15 1 1 0.087033 0.534000 1.951000 0 0 0
16 1 1 0.072033 0.213000 2.920000 0 0 0
17 1 1 1.147033 0.598000 2.377000 0 0 0
18 1 1 2.237033 0.433000 1.656000 0 0 0
19 1 1 2.981033 0.637000 1.861000 0 0 0
20 1 1 2.348033 1.404000 1.255000 0 0 0
21 1 1 1.284033 1.429000 1.582000 0 0 0
22 1 1 0.180033 0.921000 1.022000 0 0 0
23 1 1 0.255033 0.048000 0.484000 0 0 0
24 1 1 1.380033 0.293000 0.324000 0 0 0
25 1 1 1.556033 0.840000 0.717000 0 0 0
26 1 1 1.126033 1.765000 0.236000 0 0 0
27 1 1 0.310033 2.029000 0.077000 0 0 0
28 1 1 -0.802967 1.482000 -0.987000 0 0 0
29 1 1 -1.225967 1.775000 -1.949000 0 0 0
30 1 1 -0.471967 1.846000 -2.077000 0 0 0

Bonds

1 1 1 2
2 1 2 3
3 1 3 4
4 1 4 5
5 1 5 6
6 1 6 7
7 1 7 8
8 1 8 9
9 1 9 10
10 1 10 11
11 1 11 12
12 1 12 13
13 1 13 14
14 1 14 15
15 1 15 16
16 1 16 17
17 1 17 18
18 1 18 19
19 1 19 20
20 1 20 21
21 1 21 22
22 1 22 23
23 1 23 24
24 1 24 25
25 1 25 26
26 1 26 27
27 1 27 28
28 1 28 29
29 1 29 30

Angles

1 1 1 2 3
2 1 2 3 4
3 1 3 4 5
4 1 4 5 6
5 1 5 6 7
6 1 6 7 8
7 1 7 8 9
8 1 8 9 10
9 1 9 10 11
10 1 10 11 12
11 1 11 12 13
12 1 12 13 14
13 1 13 14 15
14 1 14 15 16
15 1 15 16 17
16 1 16 17 18
17 1 17 18 19
18 1 18 19 20
19 1 19 20 21
20 1 20 21 22
21 1 21 22 23
22 1 22 23 24
23 1 23 24 25
24 1 24 25 26
25 1 25 26 27
26 1 26 27 28
27 1 27 28 29
28 1 28 29 30
