LAMMPS data file

30 atoms
29 bonds
28 angles

1 atom types
1 bond types
1 angle types

-23.750000 23.750000 xlo xhi
-23.750000 23.750000 ylo yhi
-23.750000 23.750000 zlo zhi

Masses

1 1.0

Atoms

1 1 1 1.433000 0.317033 -3.460000 0 0 0
2 1 1 0.473000 0.551033 -3.304000 0 0 0
3 1 1 0.782000 0.755033 -2.281000 0 0 0
4 1 1 0.518000 0.336033 -1.397000 0 0 0
5 1 1 0.696000 -0.391967 -0.120000 0 0 0
6 1 1 0.124000 -0.077967 0.783000 0 0 0
7 1 1 -0.453000 -0.068967 1.348000 0 0 0
8 1 1 -1.000000 -0.324967 0.562000 0 0 0
9 1 1 -0.555000 0.254033 -0.118000 0 0 0
10 1 1 -0.535000 1.424033 -0.669000 0 0 0
11 1 1 0.027000 1.193033 -0.102000 0 0 0
12 1 1 1.116000 1.650033 -0.259000 0 0 0
13 1 1 1.345000 2.272033 -1.302000 0 0 0
14 1 1 0.244000 2.624033 -1.687000 0 0 0
15 1 1 -0.431000 1.331033 -1.998000 0 0 0
16 1 1 -1.067000 0.638033 -1.623000 0 0 0
17 1 1 -2.035000 0.191033 -1.635000 0 0 0
18 1 1 -1.796000 -0.053967 -1.012000 0 0 0
19 1 1 -1.096000 -0.396967 -0.678000 0 0 0
20 1 1 -0.347000 -0.802967 -0.141000 0 0 0
21 1 1 -0.196000 -1.948967 -0.358000 0 0 0
22 1 1 -0.033000 -2.763967 0.043000 0 0 0
23 1 1 0.047000 -2.791967 1.020000 0 0 0
24 1 1 0.550000 -1.947967 1.634000 0 0 0
25 1 1 1.123000 -1.246967 1.800000 0 0 0
26 1 1 0.588000 -0.545967 2.407000 0 0 0
27 1 1 0.030000 -0.989967 2.950000 0 0 0
28 1 1 -0.406000 0.107033 3.068000 0 0 0
29 1 1 0.127000 0.489033 3.011000 0 0 0
30 1 1 0.727000 0.221033 3.518000 0 0 0

Bonds

1 1 1 2
2 1 2 3
3 1 3 4
4 1 4 5
5 1 5 6
6 1 6 7
7 1 7 8
8 1 8 9
9 1 9 10
10 1 10 11
11 1 11 12
12 1 12 13
13 1 13 14
14 1 14 15
15 1 15 16
16 1 16 17
17 1 17 18
18 1 18 19
19 1 19 20
20 1 20 21
21 1 21 22
22 1 22 23
23 1 23 24
24 1 24 25
25 1 25 26
26 1 26 27
27 1 27 28
28 1 28 29
29 1 29 30

Angles

1 1 1 2 3
2 1 2 3 4
3 1 3 4 5
4 1 4 5 6
5 1 5 6 7
6 1 6 7 8
7 1 7 8 9
8 1 8 9 10
9 1 9 10 11
10 1 10 11 12
11 1 11 12 13
12 1 12 13 14
13 1 13 14 15
14 1 14 15 16
15 1 15 16 17
16 1 16 17 18
17 1 17 18 19
18 1 18 19 20
19 1 19 20 21
20 1 20 21 22
21 1 21 22 23
22 1 22 23 24
23 1 23 24 25
24 1 24 25 26
25 1 25 26 27
26 1 26 27 28
27 1 27 28 29
28 1 28 29 30
