LAMMPS data file

30 atoms
29 bonds
28 angles

1 atom types
1 bond types
1 angle types

-23.750000 23.750000 xlo xhi
-23.750000 23.750000 ylo yhi
-23.750000 23.750000 zlo zhi

Masses

1 1.0

Atoms

1 1 1 1.438967 3.216000 -1.421067 0 0 0
2 1 1 0.821967 3.511000 -2.312067 0 0 0
3 1 1 1.057967 3.544000 -3.494067 0 0 0
4 1 1 0.162967 3.680000 -3.718067 0 0 0
5 1 1 -0.465033 3.033000 -3.686067 0 0 0
6 1 1 -0.249033 2.528000 -2.919067 0 0 0
7 1 1 0.610967 2.859000 -3.123067 0 0 0
8 1 1 1.621967 2.203000 -2.869067 0 0 0
9 1 1 1.539967 2.143000 -1.653067 0 0 0
10 1 1 1.340967 1.481000 -0.854067 0 0 0
11 1 1 0.914967 2.005000 0.070933 0 0 0
12 1 1 1.473967 2.111000 0.664933 0 0 0
13 1 1 2.492967 1.898000 1.067933 0 0 0
14 1 1 2.993967 0.807000 1.586933 0 0 0
15 1 1 1.925967 0.123000 1.871933 0 0 0
16 1 1 0.974967 0.608000 1.230933 0 0 0
17 1 1 0.391967 -0.410000 0.612933 0 0 0
18 1 1 -0.530033 0.124000 0.639933 0 0 0
19 1 1 -1.446033 0.117000 0.943933 0 0 0
20 1 1 -2.435033 -0.560000 1.176933 0 0 0
21 1 1 -1.925033 -1.387000 0.751933 0 0 0
22 1 1 -1.789033 -2.623000 0.305933 0 0 0
23 1 1 -1.311033 -2.299000 1.048933 0 0 0
24 1 1 -0.751033 -3.088000 2.082933 0 0 0
25 1 1 -0.510033 -4.057000 2.418933 0 0 0
26 1 1 -0.963033 -4.590000 3.405933 0 0 0
27 1 1 -1.690033 -4.725000 2.811933 0 0 0
28 1 1 -2.012033 -4.200000 1.962933 0 0 0
29 1 1 -2.192033 -3.904000 0.925933 0 0 0
30 1 1 -1.496033 -4.148000 0.466933 0 0 0

Bonds

1 1 1 2
2 1 2 3
3 1 3 4
4 1 4 5
5 1 5 6
6 1 6 7
7 1 7 8
8 1 8 9
9 1 9 10
10 1 10 11
11 1 11 12
12 1 12 13
13 1 13 14
14 1 14 15
15 1 15 16
16 1 16 17
17 1 17 18
18 1 18 19
19 1 19 20
20 1 20 21
21 1 21 22
22 1 22 23
23 1 23 24
24 1 24 25
25 1 25 26
26 1 26 27
27 1 27 28
28 1 28 29
29 1 29 30

Angles

1 1 1 2 3
2 1 2 3 4
3 1 3 4 5
4 1 4 5 6
5 1 5 6 7
6 1 6 7 8
7 1 7 8 9
8 1 8 9 10
9 1 9 10 11
10 1 10 11 12
11 1 11 12 13
12 1 12 13 14
13 1 13 14 15
14 1 14 15 16
15 1 15 16 17
16 1 16 17 18
17 1 17 18 19
18 1 18 19 20
19 1 19 20 21
20 1 20 21 22
21 1 21 22 23
22 1 22 23 24
23 1 23 24 25
24 1 24 25 26
25 1 25 26 27
26 1 26 27 28
27 1 27 28 29
28 1 28 29 30
