LAMMPS data file

30 atoms
29 bonds
28 angles

1 atom types
1 bond types
1 angle types

-23.750000 23.750000 xlo xhi
-23.750000 23.750000 ylo yhi
-23.750000 23.750000 zlo zhi

Masses

1 1.0

Atoms

1 1 1 -4.290067 -1.922067 1.214033 0 0 0
2 1 1 -3.997067 -2.010067 0.368033 0 0 0
3 1 1 -3.266067 -2.389067 -0.581967 0 0 0
4 1 1 -2.629067 -2.924067 -1.570967 0 0 0
5 1 1 -2.355067 -2.875067 -2.068967 0 0 0
6 1 1 -1.585067 -2.161067 -2.339967 0 0 0
7 1 1 -0.792067 -1.955067 -2.776967 0 0 0
8 1 1 -0.503067 -1.498067 -3.317967 0 0 0
9 1 1 0.083933 -0.931067 -2.761967 0 0 0
10 1 1 0.491933 -0.180067 -2.240967 0 0 0
11 1 1 0.897933 -0.790067 -1.310967 0 0 0
12 1 1 1.656933 -1.152067 -0.757967 0 0 0
13 1 1 2.488933 -1.225067 -0.106967 0 0 0
14 1 1 3.335933 -1.421067 -0.210967 0 0 0
15 1 1 3.500933 -0.821067 0.099033 0 0 0
16 1 1 3.536933 0.223933 0.867033 0 0 0
17 1 1 2.294933 0.270933 1.168033 0 0 0
18 1 1 1.530933 0.989933 1.383033 0 0 0
19 1 1 0.545933 1.539933 2.125033 0 0 0
20 1 1 -0.788067 1.649933 2.006033 0 0 0
21 1 1 -0.813067 2.517933 2.537033 0 0 0
22 1 1 0.038933 3.360933 1.892033 0 0 0
23 1 1 0.796933 3.492933 1.308033 0 0 0
24 1 1 0.794933 3.537933 -0.050967 0 0 0
25 1 1 0.715933 2.524933 0.350033 0 0 0
26 1 1 0.184933 1.764933 0.667033 0 0 0
27 1 1 0.560933 1.075933 0.531033 0 0 0
28 1 1 -0.258067 0.476933 0.519033 0 0 0
29 1 1 -0.585067 0.098933 1.348033 0 0 0
30 1 1 -1.596067 0.728933 1.715033 0 0 0

Bonds

1 1 1 2
2 1 2 3
3 1 3 4
4 1 4 5
5 1 5 6
6 1 6 7
7 1 7 8
8 1 8 9
9 1 9 10
10 1 10 11
11 1 11 12
12 1 12 13
13 1 13 14
14 1 14 15
15 1 15 16
16 1 16 17
17 1 17 18
18 1 18 19
19 1 19 20
20 1 20 21
21 1 21 22
22 1 22 23
23 1 23 24
24 1 24 25
25 1 25 26
26 1 26 27
27 1 27 28
28 1 28 29
29 1 29 30

Angles

1 1 1 2 3
2 1 2 3 4
3 1 3 4 5
4 1 4 5 6
5 1 5 6 7
6 1 6 7 8
7 1 7 8 9
8 1 8 9 10
9 1 9 10 11
10 1 10 11 12
11 1 11 12 13
12 1 12 13 14
13 1 13 14 15
14 1 14 15 16
15 1 15 16 17
16 1 16 17 18
17 1 17 18 19
18 1 18 19 20
19 1 19 20 21
20 1 20 21 22
21 1 21 22 23
22 1 22 23 24
23 1 23 24 25
24 1 24 25 26
25 1 25 26 27
26 1 26 27 28
27 1 27 28 29
28 1 28 29 30
