LAMMPS data file

30 atoms
29 bonds
28 angles

1 atom types
1 bond types
1 angle types

-23.750000 23.750000 xlo xhi
-23.750000 23.750000 ylo yhi
-23.750000 23.750000 zlo zhi

Masses

1 1.0

Atoms

1 1 1 3.550933 -2.737067 0.383033 0 0 0
2 1 1 4.012933 -2.920067 1.563033 0 0 0
3 1 1 3.190933 -2.900067 2.155033 0 0 0
4 1 1 2.693933 -1.766067 2.211033 0 0 0
5 1 1 3.699933 -1.832067 3.040033 0 0 0
6 1 1 3.004933 -1.891067 3.951033 0 0 0
7 1 1 2.155933 -1.904067 3.802033 0 0 0
8 1 1 1.720933 -1.890067 3.930033 0 0 0
9 1 1 1.231933 -1.456067 3.612033 0 0 0
10 1 1 1.427933 -0.555067 3.183033 0 0 0
11 1 1 1.174933 0.007933 2.104033 0 0 0
12 1 1 1.833933 0.982933 1.937033 0 0 0
13 1 1 0.855933 1.071933 2.289033 0 0 0
14 1 1 0.062933 1.365933 2.622033 0 0 0
15 1 1 -1.016067 1.800933 2.210033 0 0 0
16 1 1 -1.801067 1.633933 1.540033 0 0 0
17 1 1 -2.008067 0.833933 0.604033 0 0 0
18 1 1 -2.248067 0.290933 0.328033 0 0 0
19 1 1 -3.150067 0.733933 0.637033 0 0 0
20 1 1 -3.444067 0.796933 -0.517967 0 0 0
21 1 1 -4.022067 1.462933 -1.433967 0 0 0
22 1 1 -2.846067 1.599933 -1.920967 0 0 0
23 1 1 -2.435067 1.845933 -2.531967 0 0 0
24 1 1 -2.499067 1.629933 -3.298967 0 0 0
25 1 1 -2.296067 1.728933 -4.155967 0 0 0
26 1 1 -1.257067 1.577933 -4.065967 0 0 0
27 1 1 -0.643067 1.238933 -5.015966 0 0 0
28 1 1 -0.478067 0.148933 -5.379967 0 0 0
29 1 1 -0.410067 -0.096067 -6.424967 0 0 0
30 1 1 -0.064067 -0.805067 -7.354967 0 0 0

Bonds

1 1 1 2
2 1 2 3
3 1 3 4
4 1 4 5
5 1 5 6
6 1 6 7
7 1 7 8
8 1 8 9
9 1 9 10
10 1 10 11
11 1 11 12
12 1 12 13
13 1 13 14
14 1 14 15
15 1 15 16
16 1 16 17
17 1 17 18
18 1 18 19
19 1 19 20
20 1 20 21
21 1 21 22
22 1 22 23
23 1 23 24
24 1 24 25
25 1 25 26
26 1 26 27
27 1 27 28
28 1 28 29
29 1 29 30

Angles

1 1 1 2 3
2 1 2 3 4
3 1 3 4 5
4 1 4 5 6
5 1 5 6 7
6 1 6 7 8
7 1 7 8 9
8 1 8 9 10
9 1 9 10 11
10 1 10 11 12
11 1 11 12 13
12 1 12 13 14
13 1 13 14 15
14 1 14 15 16
15 1 15 16 17
16 1 16 17 18
17 1 17 18 19
18 1 18 19 20
19 1 19 20 21
20 1 20 21 22
21 1 21 22 23
22 1 22 23 24
23 1 23 24 25
24 1 24 25 26
25 1 25 26 27
26 1 26 27 28
27 1 27 28 29
28 1 28 29 30
