LAMMPS data file

30 atoms
29 bonds
28 angles

1 atom types
1 bond types
1 angle types

-23.750000 23.750000 xlo xhi
-23.750000 23.750000 ylo yhi
-23.750000 23.750000 zlo zhi

Masses

1 1.0

Atoms

1 1 1 1.483033 2.500067 3.405000 0 0 0
2 1 1 0.631033 2.107067 3.352000 0 0 0
3 1 1 -0.081967 2.201067 3.365000 0 0 0
4 1 1 -0.515967 1.084067 3.243000 0 0 0
5 1 1 -0.880967 0.965067 2.400000 0 0 0
6 1 1 -0.542967 1.493067 1.591000 0 0 0
7 1 1 0.122033 2.188067 1.613000 0 0 0
8 1 1 -0.259967 2.226067 0.797000 0 0 0
9 1 1 -1.149967 1.314067 0.694000 0 0 0
10 1 1 -0.779967 0.393067 0.277000 0 0 0
11 1 1 0.103033 -0.145933 -0.615000 0 0 0
12 1 1 0.970033 -0.180933 -0.970000 0 0 0
13 1 1 2.073033 -0.360933 -1.278000 0 0 0
14 1 1 2.605033 -0.013933 -0.797000 0 0 0
15 1 1 1.885033 -0.849933 -0.066000 0 0 0
16 1 1 0.934033 -0.627933 0.280000 0 0 0
17 1 1 0.426033 -1.001933 0.332000 0 0 0
18 1 1 0.536033 -2.084933 0.151000 0 0 0
19 1 1 0.895033 -3.218933 -0.600000 0 0 0
20 1 1 0.124033 -3.481933 -0.987000 0 0 0
21 1 1 -0.538967 -3.109933 -1.338000 0 0 0
22 1 1 -0.708967 -2.285933 -1.146000 0 0 0
23 1 1 -0.475967 -2.160933 -2.165000 0 0 0
24 1 1 -0.126967 -1.460933 -2.886000 0 0 0
25 1 1 0.006033 -0.564933 -2.618000 0 0 0
26 1 1 -0.666967 -0.087933 -2.145000 0 0 0
27 1 1 -0.580967 0.826067 -2.018000 0 0 0
28 1 1 -1.385967 1.302067 -1.115000 0 0 0
29 1 1 -1.897967 1.332067 -0.792000 0 0 0
30 1 1 -2.198967 1.706067 0.036000 0 0 0

Bonds

1 1 1 2
2 1 2 3
3 1 3 4
4 1 4 5
5 1 5 6
6 1 6 7
7 1 7 8
8 1 8 9
9 1 9 10
10 1 10 11
11 1 11 12
12 1 12 13
13 1 13 14
14 1 14 15
15 1 15 16
16 1 16 17
17 1 17 18
18 1 18 19
19 1 19 20
20 1 20 21
21 1 21 22
22 1 22 23
23 1 23 24
24 1 24 25
25 1 25 26
26 1 26 27
27 1 27 28
28 1 28 29
29 1 29 30

Angles

1 1 1 2 3
2 1 2 3 4
3 1 3 4 5
4 1 4 5 6
5 1 5 6 7
6 1 6 7 8
7 1 7 8 9
8 1 8 9 10
9 1 9 10 11
10 1 10 11 12
11 1 11 12 13
12 1 12 13 14
13 1 13 14 15
14 1 14 15 16
15 1 15 16 17
16 1 16 17 18
17 1 17 18 19
18 1 18 19 20
19 1 19 20 21
20 1 20 21 22
21 1 21 22 23
22 1 22 23 24
23 1 23 24 25
24 1 24 25 26
25 1 25 26 27
26 1 26 27 28
27 1 27 28 29
28 1 28 29 30
