LAMMPS data file

30 atoms
29 bonds
28 angles

1 atom types
1 bond types
1 angle types

-23.750000 23.750000 xlo xhi
-23.750000 23.750000 ylo yhi
-23.750000 23.750000 zlo zhi

Masses

1 1.0

Atoms

1 1 1 -0.876000 4.180934 0.938067 0 0 0
2 1 1 -1.847000 3.629933 0.611067 0 0 0
3 1 1 -1.748000 2.970933 1.546067 0 0 0
4 1 1 -0.790000 2.125933 1.313067 0 0 0
5 1 1 -0.077000 1.141933 2.195067 0 0 0
6 1 1 -0.471000 0.251933 1.710067 0 0 0
7 1 1 0.466000 0.574933 1.051067 0 0 0
8 1 1 1.097000 1.039933 0.302067 0 0 0
9 1 1 1.911000 0.534933 -0.274933 0 0 0
10 1 1 2.493000 0.925933 -0.830933 0 0 0
11 1 1 2.284000 0.993933 -1.718933 0 0 0
12 1 1 1.380000 0.253933 -2.193933 0 0 0
13 1 1 1.732000 -0.740067 -2.425933 0 0 0
14 1 1 1.041000 -1.379067 -2.758933 0 0 0
15 1 1 0.345000 -0.905067 -3.203933 0 0 0
16 1 1 -0.555000 -1.127067 -2.468933 0 0 0
17 1 1 -1.028000 -1.000067 -1.924933 0 0 0
18 1 1 -1.004000 -1.529067 -1.517933 0 0 0
19 1 1 -0.386000 -1.736067 -1.318933 0 0 0
20 1 1 -0.326000 -1.498067 -0.588933 0 0 0
21 1 1 -0.290000 -0.396067 -0.164933 0 0 0
22 1 1 -0.513000 0.309933 0.655067 0 0 0
23 1 1 -1.534000 0.447933 1.340067 0 0 0
24 1 1 -1.883000 -0.690067 1.289067 0 0 0
25 1 1 -1.637000 -1.556067 1.774067 0 0 0
26 1 1 -0.569000 -1.936067 1.590067 0 0 0
27 1 1 0.412000 -1.993067 0.943067 0 0 0
28 1 1 0.746000 -1.185067 0.417067 0 0 0
29 1 1 0.454000 -0.673067 1.283067 0 0 0
30 1 1 1.173000 -1.039067 2.434067 0 0 0

Bonds

1 1 1 2
2 1 2 3
3 1 3 4
4 1 4 5
5 1 5 6
6 1 6 7
7 1 7 8
8 1 8 9
9 1 9 10
10 1 10 11
11 1 11 12
12 1 12 13
13 1 13 14
14 1 14 15
15 1 15 16
16 1 16 17
17 1 17 18
18 1 18 19
19 1 19 20
20 1 20 21
21 1 21 22
22 1 22 23
23 1 23 24
24 1 24 25
25 1 25 26
26 1 26 27
27 1 27 28
28 1 28 29
29 1 29 30

Angles

1 1 1 2 3
2 1 2 3 4
3 1 3 4 5
4 1 4 5 6
5 1 5 6 7
6 1 6 7 8
7 1 7 8 9
8 1 8 9 10
9 1 9 10 11
10 1 10 11 12
11 1 11 12 13
12 1 12 13 14
13 1 13 14 15
14 1 14 15 16
15 1 15 16 17
16 1 16 17 18
17 1 17 18 19
18 1 18 19 20
19 1 19 20 21
20 1 20 21 22
21 1 21 22 23
22 1 22 23 24
23 1 23 24 25
24 1 24 25 26
25 1 25 26 27
26 1 26 27 28
27 1 27 28 29
28 1 28 29 30
