LAMMPS data file

30 atoms
29 bonds
28 angles

1 atom types
1 bond types
1 angle types

-23.750000 23.750000 xlo xhi
-23.750000 23.750000 ylo yhi
-23.750000 23.750000 zlo zhi

Masses

1 1.0

Atoms

1 1 1 -1.828933 0.880000 2.307967 0 0 0
2 1 1 -3.190933 0.985000 3.039967 0 0 0
3 1 1 -2.266933 0.800000 3.448967 0 0 0
4 1 1 -1.368933 0.772000 3.866967 0 0 0
5 1 1 -0.333933 0.786000 3.822967 0 0 0
6 1 1 0.655067 1.241000 4.617967 0 0 0
7 1 1 1.019067 0.264000 4.437967 0 0 0
8 1 1 1.091067 -0.311000 3.672967 0 0 0
9 1 1 1.001067 0.159000 3.233967 0 0 0
10 1 1 1.028067 -0.397000 2.057967 0 0 0
11 1 1 1.912067 0.360000 1.343967 0 0 0
12 1 1 1.580067 1.027000 0.728967 0 0 0
13 1 1 1.456067 1.560000 -0.355033 0 0 0
14 1 1 0.536067 1.784000 -1.011033 0 0 0
15 1 1 0.079067 1.792000 -1.483033 0 0 0
16 1 1 -0.157933 0.742000 -1.450033 0 0 0
17 1 1 0.383067 0.685000 -2.060033 0 0 0
18 1 1 0.712067 1.798000 -2.424033 0 0 0
19 1 1 1.421067 1.347000 -2.100033 0 0 0
20 1 1 1.539067 0.033000 -2.098033 0 0 0
21 1 1 0.368067 -0.207000 -1.198033 0 0 0
22 1 1 0.348067 -1.506000 -1.097033 0 0 0
23 1 1 -0.696933 -1.414000 -1.942033 0 0 0
24 1 1 -1.953933 -1.640000 -2.369033 0 0 0
25 1 1 -1.863933 -2.283000 -3.010033 0 0 0
26 1 1 -1.287933 -2.628000 -2.395033 0 0 0
27 1 1 -0.889933 -2.521000 -3.549033 0 0 0
28 1 1 -0.157933 -1.712000 -3.136033 0 0 0
29 1 1 0.481067 -1.044000 -2.780033 0 0 0
30 1 1 0.388067 -1.352000 -2.123033 0 0 0

Bonds

1 1 1 2
2 1 2 3
3 1 3 4
4 1 4 5
5 1 5 6
6 1 6 7
7 1 7 8
8 1 8 9
9 1 9 10
10 1 10 11
11 1 11 12
12 1 12 13
13 1 13 14
14 1 14 15
15 1 15 16
16 1 16 17
17 1 17 18
18 1 18 19
19 1 19 20
20 1 20 21
21 1 21 22
22 1 22 23
23 1 23 24
24 1 24 25
25 1 25 26
26 1 26 27
27 1 27 28
28 1 28 29
29 1 29 30

Angles

1 1 1 2 3
2 1 2 3 4
3 1 3 4 5
4 1 4 5 6
5 1 5 6 7
6 1 6 7 8
7 1 7 8 9
8 1 8 9 10
9 1 9 10 11
10 1 10 11 12
11 1 11 12 13
12 1 12 13 14
13 1 13 14 15
14 1 14 15 16
15 1 15 16 17
16 1 16 17 18
17 1 17 18 19
18 1 18 19 20
19 1 19 20 21
20 1 20 21 22
21 1 21 22 23
22 1 22 23 24
23 1 23 24 25
24 1 24 25 26
25 1 25 26 27
26 1 26 27 28
27 1 27 28 29
28 1 28 29 30
