LAMMPS data file

30 atoms
29 bonds
28 angles

1 atom types
1 bond types
1 angle types

-23.750000 23.750000 xlo xhi
-23.750000 23.750000 ylo yhi
-23.750000 23.750000 zlo zhi

Masses

1 1.0

Atoms

1 1 1 -0.464967 -0.927933 -1.663100 0 0 0
2 1 1 -0.876967 -1.330933 -0.501100 0 0 0
3 1 1 -1.142967 -1.876933 -0.001100 0 0 0
4 1 1 -2.145967 -2.099933 -1.136100 0 0 0
5 1 1 -2.389967 -3.129933 -1.141100 0 0 0
6 1 1 -3.406967 -2.780933 -1.160100 0 0 0
7 1 1 -3.595967 -2.398933 -0.369100 0 0 0
8 1 1 -3.675967 -1.576933 0.644900 0 0 0
9 1 1 -3.706967 -0.873933 0.809900 0 0 0
10 1 1 -4.154967 -0.820933 1.670900 0 0 0
11 1 1 -3.462967 -0.452933 2.487900 0 0 0
12 1 1 -2.886967 -0.133933 2.779900 0 0 0
13 1 1 -2.657967 0.542067 1.844900 0 0 0
14 1 1 -1.925967 1.124067 1.087900 0 0 0
15 1 1 -0.842967 0.535067 0.288900 0 0 0
16 1 1 -0.262967 1.402067 -0.038100 0 0 0
17 1 1 0.083033 2.581067 -0.237100 0 0 0
18 1 1 0.460033 1.940067 -1.125100 0 0 0
19 1 1 0.282033 2.097067 -1.864100 0 0 0
20 1 1 0.818033 1.550067 -2.565100 0 0 0
21 1 1 1.856033 1.793067 -2.518100 0 0 0
22 1 1 2.705033 1.566067 -2.114100 0 0 0
23 1 1 3.046033 1.851067 -1.597100 0 0 0
24 1 1 3.628033 1.194067 -1.430100 0 0 0
25 1 1 3.435033 0.727067 -0.429100 0 0 0
26 1 1 3.384033 0.013067 0.174900 0 0 0
27 1 1 3.915033 0.227067 0.935900 0 0 0
28 1 1 4.404033 0.448067 2.005900 0 0 0
29 1 1 5.070034 -0.383933 2.237900 0 0 0
30 1 1 4.515033 -0.802933 2.919900 0 0 0

Bonds

1 1 1 2
2 1 2 3
3 1 3 4
4 1 4 5
5 1 5 6
6 1 6 7
7 1 7 8
8 1 8 9
9 1 9 10
10 1 10 11
11 1 11 12
12 1 12 13
13 1 13 14
14 1 14 15
15 1 15 16
16 1 16 17
17 1 17 18
18 1 18 19
19 1 19 20
20 1 20 21
21 1 21 22
22 1 22 23
23 1 23 24
24 1 24 25
25 1 25 26
26 1 26 27
27 1 27 28
28 1 28 29
29 1 29 30

Angles

1 1 1 2 3
2 1 2 3 4
3 1 3 4 5
4 1 4 5 6
5 1 5 6 7
6 1 6 7 8
7 1 7 8 9
8 1 8 9 10
9 1 9 10 11
10 1 10 11 12
11 1 11 12 13
12 1 12 13 14
13 1 13 14 15
14 1 14 15 16
15 1 15 16 17
16 1 16 17 18
17 1 17 18 19
18 1 18 19 20
19 1 19 20 21
20 1 20 21 22
21 1 21 22 23
22 1 22 23 24
23 1 23 24 25
24 1 24 25 26
25 1 25 26 27
26 1 26 27 28
27 1 27 28 29
28 1 28 29 30
