LAMMPS data file

30 atoms
29 bonds
28 angles

1 atom types
1 bond types
1 angle types

-23.750000 23.750000 xlo xhi
-23.750000 23.750000 ylo yhi
-23.750000 23.750000 zlo zhi

Masses

1 1.0

Atoms

1 1 1 -2.240933 2.434100 -3.592000 0 0 0
2 1 1 -2.954933 3.022100 -2.692000 0 0 0
3 1 1 -3.659933 3.125100 -1.730000 0 0 0
4 1 1 -4.310933 2.590100 -1.073000 0 0 0
5 1 1 -3.895933 1.649100 -0.589000 0 0 0
6 1 1 -2.892933 1.641100 -0.118000 0 0 0
7 1 1 -2.264933 1.166100 0.371000 0 0 0
8 1 1 -1.892933 0.254100 1.278000 0 0 0
9 1 1 -1.853933 -0.166900 1.902000 0 0 0
10 1 1 -1.375933 -0.711900 1.878000 0 0 0
11 1 1 -0.085933 -0.658900 2.126000 0 0 0
12 1 1 1.013067 -0.056900 2.078000 0 0 0
13 1 1 1.877067 0.242100 2.151000 0 0 0
14 1 1 2.148067 1.351100 2.221000 0 0 0
15 1 1 2.630067 1.089100 2.735000 0 0 0
16 1 1 3.529067 1.150100 2.389000 0 0 0
17 1 1 3.170067 0.828100 1.467000 0 0 0
18 1 1 3.535067 -0.209900 0.627000 0 0 0
19 1 1 3.223067 -1.318900 0.161000 0 0 0
20 1 1 2.598067 -1.884900 -0.586000 0 0 0
21 1 1 1.381067 -2.218900 -1.423000 0 0 0
22 1 1 0.490067 -2.330900 -1.637000 0 0 0
23 1 1 -0.336933 -2.165900 -2.261000 0 0 0
24 1 1 -0.009933 -1.683900 -2.742000 0 0 0
25 1 1 0.225067 -1.213900 -1.840000 0 0 0
26 1 1 0.149067 -1.287900 -0.917000 0 0 0
27 1 1 -0.704933 -1.334900 -0.219000 0 0 0
28 1 1 0.163067 -1.448900 0.368000 0 0 0
29 1 1 0.807067 -0.955900 0.236000 0 0 0
30 1 1 1.542067 -0.892900 -0.569000 0 0 0

Bonds

1 1 1 2
2 1 2 3
3 1 3 4
4 1 4 5
5 1 5 6
6 1 6 7
7 1 7 8
8 1 8 9
9 1 9 10
10 1 10 11
11 1 11 12
12 1 12 13
13 1 13 14
14 1 14 15
15 1 15 16
16 1 16 17
17 1 17 18
18 1 18 19
19 1 19 20
20 1 20 21
21 1 21 22
22 1 22 23
23 1 23 24
24 1 24 25
25 1 25 26
26 1 26 27
27 1 27 28
28 1 28 29
29 1 29 30

Angles

1 1 1 2 3
2 1 2 3 4
3 1 3 4 5
4 1 4 5 6
5 1 5 6 7
6 1 6 7 8
7 1 7 8 9
8 1 8 9 10
9 1 9 10 11
10 1 10 11 12
11 1 11 12 13
12 1 12 13 14
13 1 13 14 15
14 1 14 15 16
15 1 15 16 17
16 1 16 17 18
17 1 17 18 19
18 1 18 19 20
19 1 19 20 21
20 1 20 21 22
21 1 21 22 23
22 1 22 23 24
23 1 23 24 25
24 1 24 25 26
25 1 25 26 27
26 1 26 27 28
27 1 27 28 29
28 1 28 29 30
