LAMMPS data file

30 atoms
29 bonds
28 angles

1 atom types
1 bond types
1 angle types

-23.750000 23.750000 xlo xhi
-23.750000 23.750000 ylo yhi
-23.750000 23.750000 zlo zhi

Masses

1 1.0

Atoms

1 1 1 -4.010067 0.963033 -0.928000 0 0 0
2 1 1 -3.741067 0.920033 -1.589000 0 0 0
3 1 1 -3.592067 0.843033 -2.451000 0 0 0
4 1 1 -3.021067 1.263033 -3.298000 0 0 0
5 1 1 -3.356067 1.987033 -2.186000 0 0 0
6 1 1 -3.565067 3.152033 -1.882000 0 0 0
7 1 1 -3.575067 3.407033 -0.346000 0 0 0
8 1 1 -3.279067 2.740033 0.511000 0 0 0
9 1 1 -3.047067 1.743033 -0.072000 0 0 0
10 1 1 -1.943067 1.781033 0.608000 0 0 0
11 1 1 -1.425067 1.359033 1.721000 0 0 0
12 1 1 -0.833067 0.488033 1.197000 0 0 0
13 1 1 -0.627067 0.584033 0.181000 0 0 0
14 1 1 -1.518067 1.173033 -0.127000 0 0 0
15 1 1 -2.204067 0.718033 0.551000 0 0 0
16 1 1 -2.119067 0.312033 1.170000 0 0 0
17 1 1 -1.593067 0.070033 1.970000 0 0 0
18 1 1 -0.924067 -0.273967 2.585000 0 0 0
19 1 1 0.183933 -0.222967 2.126000 0 0 0
20 1 1 0.532933 -0.555967 1.331000 0 0 0
21 1 1 1.755933 -0.870967 1.680000 0 0 0
22 1 1 2.733933 -1.602967 1.272000 0 0 0
23 1 1 3.482933 -1.415967 0.846000 0 0 0
24 1 1 3.668933 -0.712967 0.014000 0 0 0
25 1 1 4.730933 -1.413967 -0.585000 0 0 0
26 1 1 5.833933 -1.498967 -0.529000 0 0 0
27 1 1 5.946933 -2.501967 -0.664000 0 0 0
28 1 1 5.077933 -3.299967 -0.428000 0 0 0
29 1 1 5.569933 -4.374967 -1.011000 0 0 0
30 1 1 4.854933 -4.757967 -1.667000 0 0 0

Bonds

1 1 1 2
2 1 2 3
3 1 3 4
4 1 4 5
5 1 5 6
6 1 6 7
7 1 7 8
8 1 8 9
9 1 9 10
10 1 10 11
11 1 11 12
12 1 12 13
13 1 13 14
14 1 14 15
15 1 15 16
16 1 16 17
17 1 17 18
18 1 18 19
19 1 19 20
20 1 20 21
21 1 21 22
22 1 22 23
23 1 23 24
24 1 24 25
25 1 25 26
26 1 26 27
27 1 27 28
28 1 28 29
29 1 29 30

Angles

1 1 1 2 3
2 1 2 3 4
3 1 3 4 5
4 1 4 5 6
5 1 5 6 7
6 1 6 7 8
7 1 7 8 9
8 1 8 9 10
9 1 9 10 11
10 1 10 11 12
11 1 11 12 13
12 1 12 13 14
13 1 13 14 15
14 1 14 15 16
15 1 15 16 17
16 1 16 17 18
17 1 17 18 19
18 1 18 19 20
19 1 19 20 21
20 1 20 21 22
21 1 21 22 23
22 1 22 23 24
23 1 23 24 25
24 1 24 25 26
25 1 25 26 27
26 1 26 27 28
27 1 27 28 29
28 1 28 29 30
