LAMMPS data file

30 atoms
29 bonds
28 angles

1 atom types
1 bond types
1 angle types

-23.750000 23.750000 xlo xhi
-23.750000 23.750000 ylo yhi
-23.750000 23.750000 zlo zhi

Masses

1 1.0

Atoms

1 1 1 -2.753967 2.442100 2.263000 0 0 0
2 1 1 -1.655967 2.619100 2.746000 0 0 0
3 1 1 -1.486967 1.557100 3.214000 0 0 0
4 1 1 -1.099967 0.602100 2.939000 0 0 0
5 1 1 -1.525967 0.298100 2.092000 0 0 0
6 1 1 -1.194967 -0.375900 1.428000 0 0 0
7 1 1 -1.232967 -0.651900 0.123000 0 0 0
8 1 1 -1.428967 -1.837900 -0.379000 0 0 0
9 1 1 -1.461967 -2.438900 -1.166000 0 0 0
10 1 1 -1.349967 -3.673900 -1.897000 0 0 0
11 1 1 -0.829967 -4.086900 -1.975000 0 0 0
12 1 1 -0.115967 -4.241900 -2.471000 0 0 0
13 1 1 0.147033 -3.625900 -1.623000 0 0 0
14 1 1 0.527033 -3.190900 -0.506000 0 0 0
15 1 1 0.698033 -2.656900 0.596000 0 0 0
16 1 1 -0.181967 -2.298900 1.060000 0 0 0
17 1 1 0.114033 -1.691900 2.241000 0 0 0
18 1 1 0.202033 -0.659900 2.545000 0 0 0
19 1 1 0.802033 0.387100 2.338000 0 0 0
20 1 1 1.292033 0.910100 1.817000 0 0 0
21 1 1 0.949033 0.809100 0.836000 0 0 0
22 1 1 0.287033 1.168100 0.191000 0 0 0
23 1 1 0.598033 1.372100 -0.656000 0 0 0
24 1 1 1.593033 1.097100 -1.696000 0 0 0
25 1 1 2.341033 1.014100 -2.248000 0 0 0
26 1 1 2.370033 2.161100 -1.920000 0 0 0
27 1 1 1.984033 3.230100 -1.752000 0 0 0
28 1 1 0.847033 3.369100 -2.319000 0 0 0
29 1 1 0.641033 4.087100 -2.665000 0 0 0
30 1 1 0.927033 4.308100 -3.156000 0 0 0

Bonds

1 1 1 2
2 1 2 3
3 1 3 4
4 1 4 5
5 1 5 6
6 1 6 7
7 1 7 8
8 1 8 9
9 1 9 10
10 1 10 11
11 1 11 12
12 1 12 13
13 1 13 14
14 1 14 15
15 1 15 16
16 1 16 17
17 1 17 18
18 1 18 19
19 1 19 20
20 1 20 21
21 1 21 22
22 1 22 23
23 1 23 24
24 1 24 25
25 1 25 26
26 1 26 27
27 1 27 28
28 1 28 29
29 1 29 30

Angles

1 1 1 2 3
2 1 2 3 4
3 1 3 4 5
4 1 4 5 6
5 1 5 6 7
6 1 6 7 8
7 1 7 8 9
8 1 8 9 10
9 1 9 10 11
10 1 10 11 12
11 1 11 12 13
12 1 12 13 14
13 1 13 14 15
14 1 14 15 16
15 1 15 16 17
16 1 16 17 18
17 1 17 18 19
18 1 18 19 20
19 1 19 20 21
20 1 20 21 22
21 1 21 22 23
22 1 22 23 24
23 1 23 24 25
24 1 24 25 26
25 1 25 26 27
26 1 26 27 28
27 1 27 28 29
28 1 28 29 30
