LAMMPS data file

30 atoms
29 bonds
28 angles

1 atom types
1 bond types
1 angle types

-23.750000 23.750000 xlo xhi
-23.750000 23.750000 ylo yhi
-23.750000 23.750000 zlo zhi

Masses

1 1.0

Atoms

1 1 1 -1.206067 0.760033 3.862000 0 0 0
2 1 1 -0.893067 1.051033 3.327000 0 0 0
3 1 1 -1.253067 1.192033 2.163000 0 0 0
4 1 1 -0.760067 2.175033 1.967000 0 0 0
5 1 1 -1.024067 1.613033 1.035000 0 0 0
6 1 1 -0.555067 1.427033 0.177000 0 0 0
7 1 1 0.355933 1.533033 1.237000 0 0 0
8 1 1 -0.015067 0.303033 1.566000 0 0 0
9 1 1 0.754933 -0.042967 2.602000 0 0 0
10 1 1 1.686933 -0.400967 2.644000 0 0 0
11 1 1 1.042933 -1.177967 2.156000 0 0 0
12 1 1 0.275933 -0.961967 1.236000 0 0 0
13 1 1 -0.238067 -0.826967 1.641000 0 0 0
14 1 1 -1.216067 -0.095967 1.797000 0 0 0
15 1 1 -1.798067 0.087033 0.576000 0 0 0
16 1 1 -1.742067 -0.139967 -0.660000 0 0 0
17 1 1 -1.845067 -0.722967 -1.440000 0 0 0
18 1 1 -1.492067 -1.372967 -0.867000 0 0 0
19 1 1 -1.780067 -1.331967 -0.270000 0 0 0
20 1 1 -0.851067 -0.826967 0.441000 0 0 0
21 1 1 0.327933 -0.404967 0.188000 0 0 0
22 1 1 0.057933 -0.078967 -0.438000 0 0 0
23 1 1 0.792933 -0.634967 -1.351000 0 0 0
24 1 1 0.772933 0.116033 -2.172000 0 0 0
25 1 1 1.292933 1.102033 -2.742000 0 0 0
26 1 1 0.984933 0.587033 -3.711000 0 0 0
27 1 1 2.125933 0.265033 -4.453000 0 0 0
28 1 1 2.033933 -0.499967 -3.657000 0 0 0
29 1 1 2.530933 -1.173967 -3.212000 0 0 0
30 1 1 1.631933 -1.516967 -3.642000 0 0 0

Bonds

1 1 1 2
2 1 2 3
3 1 3 4
4 1 4 5
5 1 5 6
6 1 6 7
7 1 7 8
8 1 8 9
9 1 9 10
10 1 10 11
11 1 11 12
12 1 12 13
13 1 13 14
14 1 14 15
15 1 15 16
16 1 16 17
17 1 17 18
18 1 18 19
19 1 19 20
20 1 20 21
21 1 21 22
22 1 22 23
23 1 23 24
24 1 24 25
25 1 25 26
26 1 26 27
27 1 27 28
28 1 28 29
29 1 29 30

Angles

1 1 1 2 3
2 1 2 3 4
3 1 3 4 5
4 1 4 5 6
5 1 5 6 7
6 1 6 7 8
7 1 7 8 9
8 1 8 9 10
9 1 9 10 11
10 1 10 11 12
11 1 11 12 13
12 1 12 13 14
13 1 13 14 15
14 1 14 15 16
15 1 15 16 17
16 1 16 17 18
17 1 17 18 19
18 1 18 19 20
19 1 19 20 21
20 1 20 21 22
21 1 21 22 23
22 1 22 23 24
23 1 23 24 25
24 1 24 25 26
25 1 25 26 27
26 1 26 27 28
27 1 27 28 29
28 1 28 29 30
