LAMMPS data file

30 atoms
29 bonds
28 angles

1 atom types
1 bond types
1 angle types

-23.750000 23.750000 xlo xhi
-23.750000 23.750000 ylo yhi
-23.750000 23.750000 zlo zhi

Masses

1 1.0

Atoms

1 1 1 2.066933 -6.903067 -2.500033 0 0 0
2 1 1 1.455933 -6.226067 -2.122033 0 0 0
3 1 1 0.605933 -5.862067 -2.224033 0 0 0
4 1 1 -0.400067 -5.443067 -2.345033 0 0 0
5 1 1 -0.081067 -5.099067 -3.154033 0 0 0
6 1 1 0.626933 -4.022067 -3.468033 0 0 0
7 1 1 0.398933 -3.025067 -3.065033 0 0 0
8 1 1 0.697933 -2.076067 -2.697033 0 0 0
9 1 1 0.524933 -1.576067 -1.995033 0 0 0
10 1 1 0.161933 -0.493067 -1.699033 0 0 0
11 1 1 0.211933 0.221933 -1.570033 0 0 0
12 1 1 -0.405067 1.127933 -1.879033 0 0 0
13 1 1 -1.275067 1.318933 -1.615033 0 0 0
14 1 1 -1.181067 2.199933 -1.378033 0 0 0
15 1 1 -1.625067 2.899933 -0.600033 0 0 0
16 1 1 -1.925067 3.863933 -0.198033 0 0 0
17 1 1 -1.016067 4.239933 0.163967 0 0 0
18 1 1 -1.601067 4.582933 0.749967 0 0 0
19 1 1 -1.693067 4.734933 1.542967 0 0 0
20 1 1 -1.567067 3.614933 1.883967 0 0 0
21 1 1 -1.119067 2.528933 1.746967 0 0 0
22 1 1 -1.280067 1.789933 2.742967 0 0 0
23 1 1 -1.347067 1.750933 3.755967 0 0 0
24 1 1 -0.403067 1.599933 3.536967 0 0 0
25 1 1 0.922933 1.714933 2.819967 0 0 0
26 1 1 1.435933 1.306933 1.797967 0 0 0
27 1 1 1.844933 0.332933 1.488967 0 0 0
28 1 1 1.955933 0.205933 2.366967 0 0 0
29 1 1 2.015933 0.198933 3.447967 0 0 0
30 1 1 1.991933 0.490933 4.463967 0 0 0

Bonds

1 1 1 2
2 1 2 3
3 1 3 4
4 1 4 5
5 1 5 6
6 1 6 7
7 1 7 8
8 1 8 9
9 1 9 10
10 1 10 11
11 1 11 12
12 1 12 13
13 1 13 14
14 1 14 15
15 1 15 16
16 1 16 17
17 1 17 18
18 1 18 19
19 1 19 20
20 1 20 21
21 1 21 22
22 1 22 23
23 1 23 24
24 1 24 25
25 1 25 26
26 1 26 27
27 1 27 28
28 1 28 29
29 1 29 30

Angles

1 1 1 2 3
2 1 2 3 4
3 1 3 4 5
4 1 4 5 6
5 1 5 6 7
6 1 6 7 8
7 1 7 8 9
8 1 8 9 10
9 1 9 10 11
10 1 10 11 12
11 1 11 12 13
12 1 12 13 14
13 1 13 14 15
14 1 14 15 16
15 1 15 16 17
16 1 16 17 18
17 1 17 18 19
18 1 18 19 20
19 1 19 20 21
20 1 20 21 22
21 1 21 22 23
22 1 22 23 24
23 1 23 24 25
24 1 24 25 26
25 1 25 26 27
26 1 26 27 28
27 1 27 28 29
28 1 28 29 30
