LAMMPS data file

30 atoms
29 bonds
28 angles

1 atom types
1 bond types
1 angle types

-23.750000 23.750000 xlo xhi
-23.750000 23.750000 ylo yhi
-23.750000 23.750000 zlo zhi

Masses

1 1.0

Atoms

1 1 1 -1.082033 3.610933 2.804933 0 0 0
2 1 1 -0.147033 3.548933 2.192933 0 0 0
3 1 1 0.420967 4.511933 1.879933 0 0 0
4 1 1 1.184967 4.597933 2.843933 0 0 0
5 1 1 2.311967 4.608934 2.747933 0 0 0
6 1 1 2.399967 3.595933 2.338933 0 0 0
7 1 1 1.329967 3.177933 1.622933 0 0 0
8 1 1 1.247967 2.285933 0.965933 0 0 0
9 1 1 0.450967 1.531933 0.556933 0 0 0
10 1 1 -0.282033 0.615933 -0.562067 0 0 0
11 1 1 -1.126033 0.675933 -0.757067 0 0 0
12 1 1 -1.928033 0.644933 -0.450067 0 0 0
13 1 1 -2.480033 0.529933 -0.595067 0 0 0
14 1 1 -2.346033 0.043933 -1.570067 0 0 0
15 1 1 -2.444033 -0.118067 -2.573067 0 0 0
16 1 1 -2.252033 -0.286067 -3.517067 0 0 0
17 1 1 -1.657033 -1.035067 -3.334067 0 0 0
18 1 1 -1.651033 -0.867067 -2.246067 0 0 0
19 1 1 -1.212033 -0.451067 -1.836067 0 0 0
20 1 1 -0.152033 -0.517067 -1.592067 0 0 0
21 1 1 -0.082033 -1.122067 -0.660067 0 0 0
22 1 1 -0.754033 -1.408067 0.559933 0 0 0
23 1 1 -0.466033 -1.745067 1.110933 0 0 0
24 1 1 1.067967 -2.209067 1.306933 0 0 0
25 1 1 1.852967 -2.568067 1.044933 0 0 0
26 1 1 1.366967 -3.145067 1.010933 0 0 0
27 1 1 1.742967 -3.969067 0.109933 0 0 0
28 1 1 1.445967 -4.392067 -1.148067 0 0 0
29 1 1 1.215967 -4.882067 -1.223067 0 0 0
30 1 1 2.021967 -5.266066 -1.034067 0 0 0

Bonds

1 1 1 2
2 1 2 3
3 1 3 4
4 1 4 5
5 1 5 6
6 1 6 7
7 1 7 8
8 1 8 9
9 1 9 10
10 1 10 11
11 1 11 12
12 1 12 13
13 1 13 14
14 1 14 15
15 1 15 16
16 1 16 17
17 1 17 18
18 1 18 19
19 1 19 20
20 1 20 21
21 1 21 22
22 1 22 23
23 1 23 24
24 1 24 25
25 1 25 26
26 1 26 27
27 1 27 28
28 1 28 29
29 1 29 30

Angles

1 1 1 2 3
2 1 2 3 4
3 1 3 4 5
4 1 4 5 6
5 1 5 6 7
6 1 6 7 8
7 1 7 8 9
8 1 8 9 10
9 1 9 10 11
10 1 10 11 12
11 1 11 12 13
12 1 12 13 14
13 1 13 14 15
14 1 14 15 16
15 1 15 16 17
16 1 16 17 18
17 1 17 18 19
18 1 18 19 20
19 1 19 20 21
20 1 20 21 22
21 1 21 22 23
22 1 22 23 24
23 1 23 24 25
24 1 24 25 26
25 1 25 26 27
26 1 26 27 28
27 1 27 28 29
28 1 28 29 30
