LAMMPS data file

30 atoms
29 bonds
28 angles

1 atom types
1 bond types
1 angle types

-23.750000 23.750000 xlo xhi
-23.750000 23.750000 ylo yhi
-23.750000 23.750000 zlo zhi

Masses

1 1.0

Atoms

1 1 1 -3.490033 5.004000 1.591067 0 0 0
2 1 1 -2.093033 5.077000 1.467067 0 0 0
3 1 1 -1.599033 4.382000 1.713067 0 0 0
4 1 1 -0.869033 3.765000 1.618067 0 0 0
5 1 1 -0.035033 3.470000 1.288067 0 0 0
6 1 1 0.530967 2.689000 0.693067 0 0 0
7 1 1 0.788967 1.755000 0.557067 0 0 0
8 1 1 0.257967 1.253000 0.538067 0 0 0
9 1 1 -0.763033 1.161000 -0.455933 0 0 0
10 1 1 -0.707033 0.417000 -0.916933 0 0 0
11 1 1 0.487967 0.453000 -0.755933 0 0 0
12 1 1 1.555967 -0.510000 -0.454933 0 0 0
13 1 1 0.417967 -0.637000 -0.990933 0 0 0
14 1 1 -0.512033 -0.673000 -1.446933 0 0 0
15 1 1 -0.899033 -1.154000 -0.978933 0 0 0
16 1 1 -1.422033 -1.642000 -0.401933 0 0 0
17 1 1 -1.991033 -2.291000 -0.292933 0 0 0
18 1 1 -1.114033 -3.495000 -0.273933 0 0 0
19 1 1 -1.431033 -3.475000 0.846067 0 0 0
20 1 1 -0.975033 -3.686000 1.414067 0 0 0
21 1 1 -0.431033 -2.610000 1.345067 0 0 0
22 1 1 -0.437033 -2.373000 0.523067 0 0 0
23 1 1 -0.240033 -1.415000 0.425067 0 0 0
24 1 1 0.926967 -0.791000 0.424067 0 0 0
25 1 1 1.504967 0.443000 0.232067 0 0 0
26 1 1 2.496967 0.361000 -0.228933 0 0 0
27 1 1 2.544967 -0.533000 -1.068933 0 0 0
28 1 1 2.717967 -0.851000 -1.878933 0 0 0
29 1 1 2.689967 -1.666000 -2.081933 0 0 0
30 1 1 2.086967 -2.428000 -2.446933 0 0 0

Bonds

1 1 1 2
2 1 2 3
3 1 3 4
4 1 4 5
5 1 5 6
6 1 6 7
7 1 7 8
8 1 8 9
9 1 9 10
10 1 10 11
11 1 11 12
12 1 12 13
13 1 13 14
14 1 14 15
15 1 15 16
16 1 16 17
17 1 17 18
18 1 18 19
19 1 19 20
20 1 20 21
21 1 21 22
22 1 22 23
23 1 23 24
24 1 24 25
25 1 25 26
26 1 26 27
27 1 27 28
28 1 28 29
29 1 29 30

Angles

1 1 1 2 3
2 1 2 3 4
3 1 3 4 5
4 1 4 5 6
5 1 5 6 7
6 1 6 7 8
7 1 7 8 9
8 1 8 9 10
9 1 9 10 11
10 1 10 11 12
11 1 11 12 13
12 1 12 13 14
13 1 13 14 15
14 1 14 15 16
15 1 15 16 17
16 1 16 17 18
17 1 17 18 19
18 1 18 19 20
19 1 19 20 21
20 1 20 21 22
21 1 21 22 23
22 1 22 23 24
23 1 23 24 25
24 1 24 25 26
25 1 25 26 27
26 1 26 27 28
27 1 27 28 29
28 1 28 29 30
