LAMMPS data file

30 atoms
29 bonds
28 angles

1 atom types
1 bond types
1 angle types

-23.750000 23.750000 xlo xhi
-23.750000 23.750000 ylo yhi
-23.750000 23.750000 zlo zhi

Masses

1 1.0

Atoms

1 1 1 2.054967 -1.073067 -1.861033 0 0 0
2 1 1 1.220967 -0.357067 -1.861033 0 0 0
3 1 1 0.576967 -0.482067 -0.920033 0 0 0
4 1 1 0.435967 -1.472067 -0.188033 0 0 0
5 1 1 1.243967 -0.913067 -0.173033 0 0 0
6 1 1 1.732967 -1.332067 0.924967 0 0 0
7 1 1 1.102967 -1.707067 1.665967 0 0 0
8 1 1 0.313967 -1.316067 0.954967 0 0 0
9 1 1 0.387967 -2.122067 0.862967 0 0 0
10 1 1 -0.540033 -2.736067 1.253967 0 0 0
11 1 1 -1.568033 -2.324067 1.379967 0 0 0
12 1 1 -1.957033 -1.423067 1.096967 0 0 0
13 1 1 -1.645033 -0.620067 1.063967 0 0 0
14 1 1 -1.443033 -0.712067 0.174967 0 0 0
15 1 1 -1.226033 -1.813067 0.101967 0 0 0
16 1 1 -0.685033 -2.243067 0.321967 0 0 0
17 1 1 -0.366033 -0.920067 0.129967 0 0 0
18 1 1 -0.414033 -0.987067 -1.035033 0 0 0
19 1 1 -0.130033 -0.286067 -1.989033 0 0 0
20 1 1 0.270967 0.591933 -2.846033 0 0 0
21 1 1 0.816967 0.562933 -1.478033 0 0 0
22 1 1 0.935967 1.048933 -0.263033 0 0 0
23 1 1 1.263967 2.252933 -0.337033 0 0 0
24 1 1 0.790967 3.187933 -0.869033 0 0 0
25 1 1 0.451967 3.838933 -0.814033 0 0 0
26 1 1 -0.571033 3.354933 -0.473033 0 0 0
27 1 1 -1.373033 3.194933 -0.069033 0 0 0
28 1 1 -0.768033 2.877933 1.091967 0 0 0
29 1 1 -0.639033 2.400933 2.061967 0 0 0
30 1 1 -0.276033 1.526933 2.089967 0 0 0

Bonds

1 1 1 2
2 1 2 3
3 1 3 4
4 1 4 5
5 1 5 6
6 1 6 7
7 1 7 8
8 1 8 9
9 1 9 10
10 1 10 11
11 1 11 12
12 1 12 13
13 1 13 14
14 1 14 15
15 1 15 16
16 1 16 17
17 1 17 18
18 1 18 19
19 1 19 20
20 1 20 21
21 1 21 22
22 1 22 23
23 1 23 24
24 1 24 25
25 1 25 26
26 1 26 27
27 1 27 28
28 1 28 29
29 1 29 30

Angles

1 1 1 2 3
2 1 2 3 4
3 1 3 4 5
4 1 4 5 6
5 1 5 6 7
6 1 6 7 8
7 1 7 8 9
8 1 8 9 10
9 1 9 10 11
10 1 10 11 12
11 1 11 12 13
12 1 12 13 14
13 1 13 14 15
14 1 14 15 16
15 1 15 16 17
16 1 16 17 18
17 1 17 18 19
18 1 18 19 20
19 1 19 20 21
20 1 20 21 22
21 1 21 22 23
22 1 22 23 24
23 1 23 24 25
24 1 24 25 26
25 1 25 26 27
26 1 26 27 28
27 1 27 28 29
28 1 28 29 30
