LAMMPS data file

30 atoms
29 bonds
28 angles

1 atom types
1 bond types
1 angle types

-23.750000 23.750000 xlo xhi
-23.750000 23.750000 ylo yhi
-23.750000 23.750000 zlo zhi

Masses

1 1.0

Atoms

1 1 1 2.839000 1.096000 3.225033 0 0 0
2 1 1 3.254000 0.406000 2.987033 0 0 0
3 1 1 3.837000 -0.434000 3.277033 0 0 0
4 1 1 4.038000 -1.506000 3.139033 0 0 0
5 1 1 4.111000 -2.111000 2.341033 0 0 0
6 1 1 2.996000 -2.725000 1.752033 0 0 0
7 1 1 2.451000 -2.322000 1.299033 0 0 0
8 1 1 1.642000 -1.516000 0.980033 0 0 0
9 1 1 1.715000 -0.645000 0.814033 0 0 0
10 1 1 1.834000 -0.953000 1.869033 0 0 0
11 1 1 1.266000 -0.793000 2.733033 0 0 0
12 1 1 0.111000 -1.033000 2.328033 0 0 0
13 1 1 0.368000 -0.907000 1.584033 0 0 0
14 1 1 0.697000 -0.918000 0.799033 0 0 0
15 1 1 -0.120000 -1.562000 0.064033 0 0 0
16 1 1 -0.668000 -1.632000 -0.859967 0 0 0
17 1 1 -1.390000 -1.238000 -0.600967 0 0 0
18 1 1 -1.940000 -1.012000 0.007033 0 0 0
19 1 1 -2.309000 -0.317000 -0.267967 0 0 0
20 1 1 -2.330000 0.669000 -0.171967 0 0 0
21 1 1 -2.988000 1.181000 -0.873967 0 0 0
22 1 1 -2.468000 1.174000 -1.610967 0 0 0
23 1 1 -3.463000 0.771000 -2.444967 0 0 0
24 1 1 -3.199000 0.888000 -3.172967 0 0 0
25 1 1 -2.762000 1.527000 -3.667967 0 0 0
26 1 1 -1.613000 1.427000 -3.833967 0 0 0
27 1 1 -1.147000 2.185000 -3.559967 0 0 0
28 1 1 -1.298000 2.980000 -3.063967 0 0 0
29 1 1 -1.477000 3.404000 -2.553967 0 0 0
30 1 1 -1.987000 3.916000 -2.514967 0 0 0

Bonds

1 1 1 2
2 1 2 3
3 1 3 4
4 1 4 5
5 1 5 6
6 1 6 7
7 1 7 8
8 1 8 9
9 1 9 10
10 1 10 11
11 1 11 12
12 1 12 13
13 1 13 14
14 1 14 15
15 1 15 16
16 1 16 17
17 1 17 18
18 1 18 19
19 1 19 20
20 1 20 21
21 1 21 22
22 1 22 23
23 1 23 24
24 1 24 25
25 1 25 26
26 1 26 27
27 1 27 28
28 1 28 29
29 1 29 30

Angles

1 1 1 2 3
2 1 2 3 4
3 1 3 4 5
4 1 4 5 6
5 1 5 6 7
6 1 6 7 8
7 1 7 8 9
8 1 8 9 10
9 1 9 10 11
10 1 10 11 12
11 1 11 12 13
12 1 12 13 14
13 1 13 14 15
14 1 14 15 16
15 1 15 16 17
16 1 16 17 18
17 1 17 18 19
18 1 18 19 20
19 1 19 20 21
20 1 20 21 22
21 1 21 22 23
22 1 22 23 24
23 1 23 24 25
24 1 24 25 26
25 1 25 26 27
26 1 26 27 28
27 1 27 28 29
28 1 28 29 30
