LAMMPS data file

30 atoms
29 bonds
28 angles

1 atom types
1 bond types
1 angle types

-23.750000 23.750000 xlo xhi
-23.750000 23.750000 ylo yhi
-23.750000 23.750000 zlo zhi

Masses

1 1.0

Atoms

1 1 1 0.677000 -3.514033 -1.262000 0 0 0
2 1 1 0.725000 -3.455033 -2.234000 0 0 0
3 1 1 1.837000 -3.092033 -2.090000 0 0 0
4 1 1 2.542000 -2.641033 -2.143000 0 0 0
5 1 1 2.410000 -2.001033 -2.385000 0 0 0
6 1 1 2.362000 -1.063033 -2.373000 0 0 0
7 1 1 2.925000 -0.414033 -2.390000 0 0 0
8 1 1 2.326000 0.352967 -1.709000 0 0 0
9 1 1 2.810000 0.127967 -1.116000 0 0 0
10 1 1 2.014000 0.328967 -0.485000 0 0 0
11 1 1 2.140000 -0.802033 -0.651000 0 0 0
12 1 1 0.666000 -1.138033 -0.610000 0 0 0
13 1 1 0.339000 -0.868033 0.596000 0 0 0
14 1 1 0.232000 0.287967 1.183000 0 0 0
15 1 1 -0.590000 0.026967 1.982000 0 0 0
16 1 1 -0.794000 0.537967 2.933000 0 0 0
17 1 1 -0.926000 1.510967 2.758000 0 0 0
18 1 1 -1.408000 1.648967 1.876000 0 0 0
19 1 1 -2.055000 0.908967 1.732000 0 0 0
20 1 1 -2.167000 1.701967 1.101000 0 0 0
21 1 1 -2.816000 2.404967 0.980000 0 0 0
22 1 1 -1.728000 2.274967 0.442000 0 0 0
23 1 1 -0.868000 2.540967 0.578000 0 0 0
24 1 1 -0.828000 1.849967 1.108000 0 0 0
25 1 1 -1.505000 1.099967 0.529000 0 0 0
26 1 1 -2.480000 0.749967 0.755000 0 0 0
27 1 1 -1.910000 0.033967 0.647000 0 0 0
28 1 1 -1.554000 -0.245033 0.886000 0 0 0
29 1 1 -1.011000 0.200967 0.163000 0 0 0
30 1 1 -1.365000 0.643967 -0.801000 0 0 0

Bonds

1 1 1 2
2 1 2 3
3 1 3 4
4 1 4 5
5 1 5 6
6 1 6 7
7 1 7 8
8 1 8 9
9 1 9 10
10 1 10 11
11 1 11 12
12 1 12 13
13 1 13 14
14 1 14 15
15 1 15 16
16 1 16 17
17 1 17 18
18 1 18 19
19 1 19 20
20 1 20 21
21 1 21 22
22 1 22 23
23 1 23 24
24 1 24 25
25 1 25 26
26 1 26 27
27 1 27 28
28 1 28 29
29 1 29 30

Angles

1 1 1 2 3
2 1 2 3 4
3 1 3 4 5
4 1 4 5 6
5 1 5 6 7
6 1 6 7 8
7 1 7 8 9
8 1 8 9 10
9 1 9 10 11
10 1 10 11 12
11 1 11 12 13
12 1 12 13 14
13 1 13 14 15
14 1 14 15 16
15 1 15 16 17
16 1 16 17 18
17 1 17 18 19
18 1 18 19 20
19 1 19 20 21
20 1 20 21 22
21 1 21 22 23
22 1 22 23 24
23 1 23 24 25
24 1 24 25 26
25 1 25 26 27
26 1 26 27 28
27 1 27 28 29
28 1 28 29 30
