LAMMPS data file

30 atoms
29 bonds
28 angles

1 atom types
1 bond types
1 angle types

-23.750000 23.750000 xlo xhi
-23.750000 23.750000 ylo yhi
-23.750000 23.750000 zlo zhi

Masses

1 1.0

Atoms

1 1 1 -4.767034 -0.334967 1.165067 0 0 0
2 1 1 -4.486033 0.863033 1.078067 0 0 0
3 1 1 -4.175034 1.303033 0.388067 0 0 0
4 1 1 -3.375033 1.984033 1.250067 0 0 0
5 1 1 -2.854033 1.777033 1.817067 0 0 0
6 1 1 -2.876033 0.701033 1.768067 0 0 0
7 1 1 -3.621033 0.050033 1.458067 0 0 0
8 1 1 -3.080033 -0.689967 2.346067 0 0 0
9 1 1 -2.267033 -0.506967 2.376067 0 0 0
10 1 1 -1.799033 -0.991967 1.916067 0 0 0
11 1 1 -1.620033 -1.121967 1.277067 0 0 0
12 1 1 -2.218033 -0.945967 0.271067 0 0 0
13 1 1 -1.473033 -2.148967 0.396067 0 0 0
14 1 1 -0.592033 -2.739967 0.293067 0 0 0
15 1 1 0.045967 -2.159967 0.798067 0 0 0
16 1 1 0.654967 -1.544967 0.919067 0 0 0
17 1 1 0.759967 -0.524967 1.390067 0 0 0
18 1 1 0.884967 0.327033 1.226067 0 0 0
19 1 1 0.191967 0.692033 0.949067 0 0 0
20 1 1 -0.412033 0.418033 0.179067 0 0 0
21 1 1 0.587967 0.248033 -0.277933 0 0 0
22 1 1 1.346967 0.655033 -0.414933 0 0 0
23 1 1 2.382967 0.783033 -1.041933 0 0 0
24 1 1 3.062967 0.287033 -1.522933 0 0 0
25 1 1 3.038967 0.527033 -2.540933 0 0 0
26 1 1 3.645967 0.997033 -3.052933 0 0 0
27 1 1 4.528966 0.955033 -3.507933 0 0 0
28 1 1 5.236967 0.828033 -3.846933 0 0 0
29 1 1 6.188967 0.364033 -3.640933 0 0 0
30 1 1 7.056967 -0.048967 -3.413933 0 0 0

Bonds

1 1 1 2
2 1 2 3
3 1 3 4
4 1 4 5
5 1 5 6
6 1 6 7
7 1 7 8
8 1 8 9
9 1 9 10
10 1 10 11
11 1 11 12
12 1 12 13
13 1 13 14
14 1 14 15
15 1 15 16
16 1 16 17
17 1 17 18
18 1 18 19
19 1 19 20
20 1 20 21
21 1 21 22
22 1 22 23
23 1 23 24
24 1 24 25
25 1 25 26
26 1 26 27
27 1 27 28
28 1 28 29
29 1 29 30

Angles

1 1 1 2 3
2 1 2 3 4
3 1 3 4 5
4 1 4 5 6
5 1 5 6 7
6 1 6 7 8
7 1 7 8 9
8 1 8 9 10
9 1 9 10 11
10 1 10 11 12
11 1 11 12 13
12 1 12 13 14
13 1 13 14 15
14 1 14 15 16
15 1 15 16 17
16 1 16 17 18
17 1 17 18 19
18 1 18 19 20
19 1 19 20 21
20 1 20 21 22
21 1 21 22 23
22 1 22 23 24
23 1 23 24 25
24 1 24 25 26
25 1 25 26 27
26 1 26 27 28
27 1 27 28 29
28 1 28 29 30
