LAMMPS data file

30 atoms
29 bonds
28 angles

1 atom types
1 bond types
1 angle types

-23.750000 23.750000 xlo xhi
-23.750000 23.750000 ylo yhi
-23.750000 23.750000 zlo zhi

Masses

1 1.0

Atoms

1 1 1 -4.171067 -4.996967 2.428900 0 0 0
2 1 1 -4.180067 -5.956966 3.060900 0 0 0
3 1 1 -3.920067 -5.416966 4.198900 0 0 0
4 1 1 -4.296067 -4.214967 3.990900 0 0 0
5 1 1 -3.309067 -3.847967 3.913900 0 0 0
6 1 1 -3.048067 -2.782967 3.991900 0 0 0
7 1 1 -3.534067 -2.100967 3.462900 0 0 0
8 1 1 -3.258067 -1.521967 3.374900 0 0 0
9 1 1 -1.854067 -1.798967 3.537900 0 0 0
10 1 1 -1.330067 -2.002967 2.884900 0 0 0
11 1 1 -1.419067 -1.611967 1.898900 0 0 0
12 1 1 -1.115067 -0.769967 1.600900 0 0 0
13 1 1 -1.501067 0.632033 0.907900 0 0 0
14 1 1 -1.762067 1.883033 0.424900 0 0 0
15 1 1 -1.502067 1.605033 -0.654100 0 0 0
16 1 1 -1.199067 2.003033 -1.599100 0 0 0
17 1 1 -0.073067 1.916033 -1.858100 0 0 0
18 1 1 0.218933 2.447033 -2.701100 0 0 0
19 1 1 0.248933 1.363033 -2.706100 0 0 0
20 1 1 0.533933 0.520033 -3.155100 0 0 0
21 1 1 1.644933 0.103033 -3.051100 0 0 0
22 1 1 2.663933 0.287033 -2.994100 0 0 0
23 1 1 2.906933 1.369033 -2.750100 0 0 0
24 1 1 3.027933 2.830033 -2.601100 0 0 0
25 1 1 4.115933 2.921033 -3.947100 0 0 0
26 1 1 4.997933 2.225033 -4.324100 0 0 0
27 1 1 5.197933 2.732033 -3.349100 0 0 0
28 1 1 5.471933 3.490033 -2.151100 0 0 0
29 1 1 5.093933 4.167033 -1.389100 0 0 0
30 1 1 5.348933 4.530034 -0.448100 0 0 0

Bonds

1 1 1 2
2 1 2 3
3 1 3 4
4 1 4 5
5 1 5 6
6 1 6 7
7 1 7 8
8 1 8 9
9 1 9 10
10 1 10 11
11 1 11 12
12 1 12 13
13 1 13 14
14 1 14 15
15 1 15 16
16 1 16 17
17 1 17 18
18 1 18 19
19 1 19 20
20 1 20 21
21 1 21 22
22 1 22 23
23 1 23 24
24 1 24 25
25 1 25 26
26 1 26 27
27 1 27 28
28 1 28 29
29 1 29 30

Angles

1 1 1 2 3
2 1 2 3 4
3 1 3 4 5
4 1 4 5 6
5 1 5 6 7
6 1 6 7 8
7 1 7 8 9
8 1 8 9 10
9 1 9 10 11
10 1 10 11 12
11 1 11 12 13
12 1 12 13 14
13 1 13 14 15
14 1 14 15 16
15 1 15 16 17
16 1 16 17 18
17 1 17 18 19
18 1 18 19 20
19 1 19 20 21
20 1 20 21 22
21 1 21 22 23
22 1 22 23 24
23 1 23 24 25
24 1 24 25 26
25 1 25 26 27
26 1 26 27 28
27 1 27 28 29
28 1 28 29 30
