ITEM: TIMESTEP
0
ITEM: NUMBER OF ATOMS
4067
ITEM: BOX BOUNDS
-4631.092947 4670.465898
-4631.092947 4670.465898
-4631.092947 4670.465898
ITEM: ATOMS id type x y z c_q[1] c_q[2] c_q[3] c_q[4]
1 2 703.752941 -3087.393318 460.606470 1.000000 0.000005 0.000000 0.000000
2 2 703.752941 -3087.393417 470.506470 0.623490 0.000003 -0.000004 0.781831
3 2 703.752941 -3087.393516 480.406470 -0.222521 -0.000001 -0.000005 0.974928
4 2 703.752941 -3087.393615 490.306470 -0.900969 -0.000005 -0.000002 0.433884
5 2 703.752941 -3087.393714 500.206470 -0.900969 -0.000005 0.000002 -0.433884
6 2 703.752941 -3087.393813 510.106470 -0.222521 -0.000001 0.000005 -0.974928
7 2 703.752941 -3087.393912 520.006470 0.623490 0.000003 0.000004 -0.781831
8 2 703.752941 -3087.394011 529.906470 1.000000 0.000005 -0.000000 -0.000000
9 2 703.752941 -3087.394110 539.806470 0.623490 0.000003 -0.000004 0.781831
10 2 703.752941 -3087.394209 549.706470 -0.222521 -0.000001 -0.000005 0.974928
11 2 703.752941 -3087.394308 559.606470 -0.900969 -0.000005 -0.000002 0.433884
12 2 703.752941 -3087.394407 569.506470 -0.900969 -0.000005 0.000002 -0.433884
13 2 703.752941 -3087.394506 579.406470 -0.222521 -0.000001 0.000005 -0.974928
14 2 703.752941 -3087.394605 589.306470 0.623490 0.000003 0.000004 -0.781831
15 2 703.752941 -3087.394704 599.206470 1.000000 0.000005 -0.000000 -0.000000
16 2 703.752941 -3087.394803 609.106470 0.623490 0.000003 -0.000004 0.781831
17 2 703.752941 -3087.394902 619.006470 -0.222521 -0.000001 -0.000005 0.974928
18 2 703.752941 -3087.395001 628.906470 -0.900969 -0.000005 -0.000002 0.433884
19 2 703.752941 -3087.395100 638.806470 -0.900969 -0.000005 0.000002 -0.433884
20 2 703.752941 -3087.395199 648.706470 -0.222521 -0.000001 0.000005 -0.974928
21 2 703.752941 -3087.395298 658.606470 0.623490 0.000003 0.000004 -0.781831
22 1 673.470366 -3051.222784 658.606831 -0.061320 0.496226 -0.859489 0.106200
23 3 680.848575 -3055.482255 624.659535 -0.061320 0.496226 -0.859489 0.106200
24 2 647.735408 -3017.675628 637.683508 -0.088934 0.604736 -0.758316 0.226587
25 2 651.783820 -3020.012892 628.956679 -0.232602 -0.215829 -0.945604 0.071744
26 2 655.832232 -3022.350157 620.229849 -0.201117 -0.873870 -0.420832 -0.137124
27 2 659.880644 -3024.687421 611.503019 -0.018186 -0.873869 0.420834 -0.242735
28 2 663.929055 -3027.024685 602.776189 0.178439 -0.215827 0.945604 -0.165561
29 2 667.977467 -3029.361950 594.049360 0.240696 0.604737 0.758315 0.036283
30 2 672.025879 -3031.699214 585.322530 0.121704 0.969922 -0.000001 0.210806
31 2 676.074291 -3034.036478 576.595700 -0.088934 0.604736 -0.758316 0.226587
32 2 680.122702 -3036.373743 567.868870 -0.232602 -0.215829 -0.945604 0.071744
33 2 684.171114 -3038.711007 559.142041 -0.201117 -0.873870 -0.420832 -0.137124
34 2 688.219526 -3041.048272 550.415211 -0.018186 -0.873869 0.420834 -0.242735
35 2 692.267938 -3043.385536 541.688381 0.178439 -0.215827 0.945604 -0.165561
36 2 696.316349 -3045.722800 532.961551 0.240696 0.604737 0.758315 0.036283
37 2 700.364761 -3048.060065 524.234722 0.121704 0.969922 -0.000001 0.210806
38 2 704.413173 -3050.397329 515.507892 -0.088934 0.604736 -0.758316 0.226587
39 2 708.461585 -3052.734593 506.781062 -0.232602 -0.215829 -0.945604 0.071744
40 2 712.509996 -3055.071858 498.054232 -0.201117 -0.873870 -0.420832 -0.137124
41 2 716.558408 -3057.409122 489.327403 -0.018186 -0.873869 0.420834 -0.242735
42 2 720.606820 -3059.746386 480.600573 0.178439 -0.215827 0.945604 -0.165561
43 2 724.655232 -3062.083651 471.873743 0.240696 0.604737 0.758315 0.036283
44 2 728.703644 -3064.420915 463.146913 0.121704 0.969922 -0.000001 0.210806
45 2 732.752055 -3066.758179 454.420084 -0.088934 0.604736 -0.758316 0.226587
46 2 736.800467 -3069.095444 445.693254 -0.232602 -0.215829 -0.945604 0.071744
47 2 740.848879 -3071.432708 436.966424 -0.201117 -0.873870 -0.420832 -0.137124
48 2 744.897291 -3073.769972 428.239594 -0.018186 -0.873869 0.420834 -0.242735
49 1 757.802828 -3028.800594 422.182596 0.926477 0.059909 -0.270582 -0.254630
50 3 739.186828 -3027.863041 451.806328 0.926477 0.059909 -0.270582 -0.254630
51 2 759.234246 -2983.253347 434.384419 0.869231 0.215820 -0.270622 -0.353020
52 2 753.068087 -2985.076177 441.912086 0.817959 -0.077020 -0.337465 0.459487
53 2 746.901928 -2986.899008 449.439753 0.150747 -0.311862 -0.150190 0.925992
54 2 740.735769 -2988.721838 456.967420 -0.629980 -0.311866 0.150182 0.695205
55 2 734.569610 -2990.544668 464.495087 -0.936319 -0.077028 0.337463 -0.059085
56 2 728.403451 -2992.367499 472.022754 -0.537591 0.215813 0.270628 -0.768883
57 2 722.237292 -2994.190329 479.550421 0.265954 0.346143 0.000004 -0.899696
58 2 716.071132 -2996.013160 487.078088 0.869231 0.215820 -0.270622 -0.353020
59 2 709.904973 -2997.835990 494.605755 0.817959 -0.077020 -0.337465 0.459487
60 2 703.738814 -2999.658821 502.133422 0.150747 -0.311862 -0.150190 0.925992
61 2 697.572655 -3001.481651 509.661089 -0.629980 -0.311866 0.150182 0.695205
62 2 691.406496 -3003.304481 517.188756 -0.936319 -0.077028 0.337463 -0.059085
63 2 685.240337 -3005.127312 524.716423 -0.537591 0.215813 0.270628 -0.768883
64 2 679.074178 -3006.950142 532.244090 0.265954 0.346143 0.000004 -0.899696
65 2 672.908019 -3008.772973 539.771757 0.869231 0.215820 -0.270622 -0.353020
66 2 666.741859 -3010.595803 547.299424 0.817959 -0.077020 -0.337465 0.459487
67 2 660.575700 -3012.418633 554.827091 0.150747 -0.311862 -0.150190 0.925992
68 2 654.409541 -3014.241464 562.354758 -0.629980 -0.311866 0.150182 0.695205
69 2 648.243382 -3016.064294 569.882425 -0.936319 -0.077028 0.337463 -0.059085
70 2 642.077223 -3017.887125 577.410092 -0.537591 0.215813 0.270628 -0.768883
71 2 635.911064 -3019.709955 584.937759 0.265954 0.346143 0.000004 -0.899696
72 2 629.744905 -3021.532786 592.465426 0.869231 0.215820 -0.270622 -0.353020
73 2 623.578746 -3023.355616 599.993093 0.817959 -0.077020 -0.337465 0.459487
74 2 617.412586 -3025.178446 607.520760 0.150747 -0.311862 -0.150190 0.925992
75 2 611.246427 -3027.001277 615.048427 -0.629980 -0.311866 0.150182 0.695205
76 1 582.189685 -2993.286827 599.411076 0.391957 -0.474845 0.762925 -0.197072
77 3 609.672539 -2990.783055 577.883794 0.391957 -0.474845 0.762925 -0.197072
78 2 570.072217 -2958.029157 570.505215 0.399141 -0.527715 0.661738 -0.352572
79 2 578.985857 -2958.478172 566.220895 0.524512 0.188343 0.825171 0.092236
80 2 587.899498 -2958.927186 561.936575 0.254915 0.762574 0.367233 0.467588
81 2 596.813139 -2959.376201 557.652255 -0.206638 0.762572 -0.367238 0.490837
82 2 605.726779 -2959.825215 553.367935 -0.512589 0.188337 -0.825172 0.144475
83 2 614.640420 -2960.274230 549.083615 -0.432549 -0.527719 -0.661734 -0.310679
84 2 623.554060 -2960.723244 544.799295 -0.026791 -0.846392 0.000003 -0.531886
85 2 632.467701 -2961.172259 540.514975 0.399141 -0.527715 0.661738 -0.352572
86 2 641.381341 -2961.621273 536.230655 0.524512 0.188343 0.825171 0.092236
87 2 650.294982 -2962.070288 531.946335 0.254915 0.762574 0.367233 0.467588
88 2 659.208623 -2962.519302 527.662015 -0.206638 0.762572 -0.367238 0.490837
89 2 668.122263 -2962.968317 523.377695 -0.512589 0.188337 -0.825172 0.144475
90 2 677.035904 -2963.417331 519.093375 -0.432549 -0.527719 -0.661734 -0.310679
91 2 685.949544 -2963.866346 514.809055 -0.026791 -0.846392 0.000003 -0.531886
92 2 694.863185 -2964.315360 510.524735 0.399141 -0.527715 0.661738 -0.352572
93 2 703.776825 -2964.764375 506.240415 0.524512 0.188343 0.825171 0.092236
94 2 712.690466 -2965.213389 501.956095 0.254915 0.762574 0.367233 0.467588
95 2 721.604107 -2965.662404 497.671775 -0.206638 0.762572 -0.367238 0.490837
96 2 730.517747 -2966.111418 493.387455 -0.512589 0.188337 -0.825172 0.144475
97 2 739.431388 -2966.560433 489.103135 -0.432549 -0.527719 -0.661734 -0.310679
98 2 748.345028 -2967.009447 484.818815 -0.026791 -0.846392 0.000003 -0.531886
99 2 757.258669 -2967.458462 480.534495 0.399141 -0.527715 0.661738 -0.352572
100 2 766.172309 -2967.907476 476.250175 0.524512 0.188343 0.825171 0.092236
101 2 775.085950 -2968.356491 471.965855 0.254915 0.762574 0.367233 0.467588
102 2 783.999591 -2968.805505 467.681535 -0.206638 0.762572 -0.367238 0.490837
103 1 790.334969 -2922.811492 476.042093 -0.786597 -0.229370 0.542851 0.184300
104 3 757.485485 -2928.437709 486.731205 -0.786597 -0.229370 0.542851 0.184300
105 2 776.423308 -2880.285242 490.990970 -0.726787 -0.404149 0.506781 0.227196
106 2 767.312487 -2883.821353 492.571749 -0.630773 0.144235 0.631949 -0.426571
107 2 758.201666 -2887.357464 494.152529 -0.059774 0.584006 0.281246 -0.759121
108 2 749.090845 -2890.893575 495.733309 0.556236 0.584009 -0.281240 -0.520038
109 2 739.980025 -2894.429685 497.314088 0.753389 0.144241 -0.631947 0.110645
110 2 730.869204 -2897.965796 498.894868 0.383225 -0.404143 -0.506785 0.658009
111 2 721.758383 -2901.501907 500.475647 -0.275515 -0.648200 -0.000004 0.709879
112 2 712.647562 -2905.038018 502.056427 -0.726787 -0.404149 0.506781 0.227196
113 2 703.536741 -2908.574128 503.637207 -0.630773 0.144235 0.631949 -0.426571
114 2 694.425920 -2912.110239 505.217986 -0.059774 0.584006 0.281246 -0.759121
115 2 685.315099 -2915.646350 506.798766 0.556236 0.584009 -0.281240 -0.520038
116 2 676.204279 -2919.182461 508.379546 0.753389 0.144241 -0.631947 0.110645
117 2 667.093458 -2922.718571 509.960325 0.383225 -0.404143 -0.506785 0.658009
118 2 657.982637 -2926.254682 511.541105 -0.275515 -0.648200 -0.000004 0.709879
119 2 648.871816 -2929.790793 513.121884 -0.726787 -0.404149 0.506781 0.227196
120 2 639.760995 -2933.326903 514.702664 -0.630773 0.144235 0.631949 -0.426571
121 2 630.650174 -2936.863014 516.283444 -0.059774 0.584006 0.281246 -0.759121
122 2 621.539353 -2940.399125 517.864223 0.556236 0.584009 -0.281240 -0.520038
123 2 612.428533 -2943.935236 519.445003 0.753389 0.144241 -0.631947 0.110645
124 2 603.317712 -2947.471346 521.025783 0.383225 -0.404143 -0.506785 0.658009
125 2 594.206891 -2951.007457 522.606562 -0.275515 -0.648200 -0.000004 0.709879
126 2 585.096070 -2954.543568 524.187342 -0.726787 -0.404149 0.506781 0.227196
127 2 575.985249 -2958.079679 525.768122 -0.630773 0.144235 0.631949 -0.426571
128 2 566.874428 -2961.615789 527.348901 -0.059774 0.584006 0.281246 -0.759121
129 2 557.763607 -2965.151900 528.929681 0.556236 0.584009 -0.281240 -0.520038
130 1 539.784574 -2930.898156 501.931153 -0.672674 0.392989 -0.569194 0.262844
131 3 573.816969 -2922.866052 503.441579 -0.672674 0.392989 -0.569194 0.262844
132 2 542.781676 -2891.693761 475.863588 -0.658513 0.383484 -0.480880 0.433652
133 2 552.344378 -2890.822668 478.273136 -0.749620 -0.136869 -0.599644 -0.244469
134 2 561.907081 -2889.951576 480.682684 -0.276247 -0.554157 -0.266863 -0.738500
135 2 571.469783 -2889.080484 483.092232 0.405145 -0.554153 0.266870 -0.676426
136 2 581.032485 -2888.209391 485.501780 0.781455 -0.136861 0.599645 -0.104989
137 2 590.595188 -2887.338299 487.911328 0.569313 0.383490 0.480875 0.545506
138 2 600.157890 -2886.467206 490.320876 -0.071533 0.615066 -0.000004 0.785224
139 2 609.720592 -2885.596114 492.730424 -0.658513 0.383484 -0.480880 0.433652
140 2 619.283295 -2884.725021 495.139972 -0.749620 -0.136869 -0.599644 -0.244469
141 2 628.845997 -2883.853929 497.549520 -0.276247 -0.554157 -0.266863 -0.738500
142 2 638.408699 -2882.982836 499.959068 0.405145 -0.554153 0.266870 -0.676426
143 2 647.971402 -2882.111744 502.368616 0.781455 -0.136861 0.599645 -0.104989
144 2 657.534104 -2881.240651 504.778164 0.569313 0.383490 0.480875 0.545506
145 2 667.096807 -2880.369559 507.187712 -0.071533 0.615066 -0.000004 0.785224
146 2 676.659509 -2879.498466 509.597259 -0.658513 0.383484 -0.480880 0.433652
147 2 686.222211 -2878.627374 512.006807 -0.749620 -0.136869 -0.599644 -0.244469
148 2 695.784914 -2877.756281 514.416355 -0.276247 -0.554157 -0.266863 -0.738500
149 2 705.347616 -2876.885189 516.825903 0.405145 -0.554153 0.266870 -0.676426
150 2 714.910318 -2876.014097 519.235451 0.781455 -0.136861 0.599645 -0.104989
151 2 724.473021 -2875.143004 521.644999 0.569313 0.383490 0.480875 0.545506
152 2 734.035723 -2874.271912 524.054547 -0.071533 0.615066 -0.000004 0.785224
153 2 743.598425 -2873.400819 526.464095 -0.658513 0.383484 -0.480880 0.433652
154 2 753.161128 -2872.529727 528.873643 -0.749620 -0.136869 -0.599644 -0.244469
155 2 762.723830 -2871.658634 531.283191 -0.276247 -0.554157 -0.266863 -0.738500
156 2 772.286533 -2870.787542 533.692739 0.405145 -0.554153 0.266870 -0.676426
157 1 764.447513 -2826.828067 548.911132 0.546536 0.369618 -0.745983 -0.090497
158 3 733.566580 -2836.243088 535.393536 0.546536 0.369618 -0.745983 -0.090497
159 2 737.574786 -2788.671614 555.797848 0.491780 0.541005 -0.678395 -0.072436
160 2 730.193168 -2792.966530 550.790312 0.363252 -0.193080 -0.845947 0.339326
161 2 722.811550 -2797.261445 545.782775 -0.038811 -0.781771 -0.376484 0.495568
162 2 715.429932 -2801.556360 540.775239 -0.411649 -0.781773 0.376480 0.278638
163 2 708.048314 -2805.851275 535.767703 -0.474507 -0.193084 0.845946 -0.148113
164 2 700.666696 -2810.146190 530.760167 -0.180051 0.541001 0.678398 -0.463331
165 2 693.285077 -2814.441106 525.752631 0.249987 0.867701 0.000002 -0.429652
166 2 685.903459 -2818.736021 520.745094 0.491780 0.541005 -0.678395 -0.072436
167 2 678.521841 -2823.030936 515.737558 0.363252 -0.193080 -0.845947 0.339326
168 2 671.140223 -2827.325851 510.730022 -0.038811 -0.781771 -0.376484 0.495568
169 2 663.758605 -2831.620766 505.722486 -0.411649 -0.781773 0.376480 0.278638
170 2 656.376987 -2835.915682 500.714950 -0.474507 -0.193084 0.845946 -0.148113
171 2 648.995369 -2840.210597 495.707413 -0.180051 0.541001 0.678398 -0.463331
172 2 641.613751 -2844.505512 490.699877 0.249987 0.867701 0.000002 -0.429652
173 2 634.232133 -2848.800427 485.692341 0.491780 0.541005 -0.678395 -0.072436
174 2 626.850515 -2853.095342 480.684805 0.363252 -0.193080 -0.845947 0.339326
175 2 619.468897 -2857.390257 475.677269 -0.038811 -0.781771 -0.376484 0.495568
176 2 612.087279 -2861.685173 470.669733 -0.411649 -0.781773 0.376480 0.278638
177 2 604.705661 -2865.980088 465.662196 -0.474507 -0.193084 0.845946 -0.148113
178 2 597.324043 -2870.275003 460.654660 -0.180051 0.541001 0.678398 -0.463331
179 2 589.942425 -2874.569918 455.647124 0.249987 0.867701 0.000002 -0.429652
180 2 582.560807 -2878.864833 450.639588 0.491780 0.541005 -0.678395 -0.072436
181 2 575.179189 -2883.159749 445.632052 0.363252 -0.193080 -0.845947 0.339326
182 2 567.797571 -2887.454664 440.624515 -0.038811 -0.781771 -0.376484 0.495568
183 2 560.415953 -2891.749579 435.616979 -0.411649 -0.781773 0.376480 0.278638
184 1 557.902752 -2854.225173 407.137374 0.867720 -0.261081 0.302971 -0.295140
185 3 581.699218 -2844.626334 430.940535 0.867720 -0.261081 0.302971 -0.295140
186 2 570.056691 -2810.784446 393.329036 0.834018 -0.190413 0.238777 -0.459503
187 2 575.732158 -2809.812494 401.382258 0.879255 0.067963 0.297746 0.365566
188 2 581.407624 -2808.840541 409.435480 0.262396 0.275162 0.132506 0.915356
189 2 587.083091 -2807.868588 417.488702 -0.552053 0.275157 -0.132514 0.775865
190 2 592.758558 -2806.896635 425.541924 -0.950795 0.067954 -0.297748 0.052131
191 2 598.434024 -2805.924682 433.595146 -0.633569 -0.190420 -0.238772 -0.710858
192 2 604.109491 -2804.952729 441.648368 0.160748 -0.305404 0.000005 -0.938557
193 2 609.784958 -2803.980776 449.701590 0.834018 -0.190413 0.238777 -0.459503
194 2 615.460424 -2803.008823 457.754812 0.879255 0.067963 0.297746 0.365566
195 2 621.135891 -2802.036870 465.808034 0.262396 0.275162 0.132506 0.915356
196 2 626.811358 -2801.064918 473.861256 -0.552053 0.275157 -0.132514 0.775865
197 2 632.486824 -2800.092965 481.914479 -0.950795 0.067954 -0.297748 0.052131
198 2 638.162291 -2799.121012 489.967701 -0.633569 -0.190420 -0.238772 -0.710858
199 2 643.837758 -2798.149059 498.020923 0.160748 -0.305404 0.000005 -0.938557
200 2 649.513224 -2797.177106 506.074145 0.834018 -0.190413 0.238777 -0.459503
201 2 655.188691 -2796.205153 514.127367 0.879255 0.067963 0.297746 0.365566
202 2 660.864157 -2795.233200 522.180589 0.262396 0.275162 0.132506 0.915356
203 2 666.539624 -2794.261247 530.233811 -0.552053 0.275157 -0.132514 0.775865
204 2 672.215091 -2793.289294 538.287033 -0.950795 0.067954 -0.297748 0.052131
205 2 677.890557 -2792.317342 546.340255 -0.633569 -0.190420 -0.238772 -0.710858
206 2 683.566024 -2791.345389 554.393477 0.160748 -0.305404 0.000005 -0.938557
207 2 689.241491 -2790.373436 562.446699 0.834018 -0.190413 0.238777 -0.459503
208 2 694.916957 -2789.401483 570.499922 0.879255 0.067963 0.297746 0.365566
209 2 700.592424 -2788.429530 578.553144 0.262396 0.275162 0.132506 0.915356
210 2 706.267891 -2787.457577 586.606366 -0.552053 0.275157 -0.132514 0.775865
211 1 683.641335 -2747.588336 597.740448 -0.236868 -0.462792 0.854106 -0.014831
212 3 669.960059 -2756.148482 566.683297 -0.236868 -0.462792 0.854106 -0.014831
213 2 652.582217 -2712.995209 589.732210 -0.194139 -0.608958 0.763609 -0.091550
214 2 650.750789 -2716.720195 580.744421 -0.049467 0.217334 0.952205 -0.208864
215 2 648.919360 -2720.445181 571.756632 0.132454 0.879970 0.423772 -0.168900
216 2 647.087931 -2724.170167 562.768843 0.214635 0.879970 -0.423771 -0.001750
217 2 645.256503 -2727.895153 553.781054 0.135191 0.217335 -0.952205 0.166717
218 2 643.425074 -2731.620139 544.793265 -0.046054 -0.608958 -0.763609 0.209643
219 2 641.593645 -2735.345125 535.805477 -0.192620 -0.976693 -0.000000 0.094704
220 2 639.762216 -2739.070111 526.817688 -0.194139 -0.608958 0.763609 -0.091550
221 2 637.930788 -2742.795097 517.829899 -0.049467 0.217334 0.952205 -0.208864
222 2 636.099359 -2746.520082 508.842110 0.132454 0.879970 0.423772 -0.168900
223 2 634.267930 -2750.245068 499.854321 0.214635 0.879970 -0.423771 -0.001750
224 2 632.436501 -2753.970054 490.866532 0.135191 0.217335 -0.952205 0.166717
225 2 630.605073 -2757.695040 481.878743 -0.046054 -0.608958 -0.763609 0.209643
226 2 628.773644 -2761.420026 472.890955 -0.192620 -0.976693 -0.000000 0.094704
227 2 626.942215 -2765.145012 463.903166 -0.194139 -0.608958 0.763609 -0.091550
228 2 625.110787 -2768.869998 454.915377 -0.049467 0.217334 0.952205 -0.208864
229 2 623.279358 -2772.594984 445.927588 0.132454 0.879970 0.423772 -0.168900
230 2 621.447929 -2776.319970 436.939799 0.214635 0.879970 -0.423771 -0.001750
231 2 619.616500 -2780.044956 427.952010 0.135191 0.217335 -0.952205 0.166717
232 2 617.785072 -2783.769942 418.964222 -0.046054 -0.608958 -0.763609 0.209643
233 2 615.953643 -2787.494928 409.976433 -0.192620 -0.976693 -0.000000 0.094704
234 2 614.122214 -2791.219914 400.988644 -0.194139 -0.608958 0.763609 -0.091550
235 2 612.290785 -2794.944900 392.000855 -0.049467 0.217334 0.952205 -0.208864
236 2 610.459357 -2798.669886 383.013066 0.132454 0.879970 0.423772 -0.168900
237 2 608.627928 -2802.394872 374.025277 0.214635 0.879970 -0.423771 -0.001750
238 1 618.340620 -2760.481593 354.675192 -0.952252 0.095922 0.001839 0.289847
239 3 620.164256 -2754.050363 389.030885 -0.952252 0.095922 0.001839 0.289847
240 2 629.177325 -2714.604374 356.500510 -0.903301 -0.026910 0.033736 0.426831
241 2 628.346522 -2714.800554 366.363637 -0.896909 0.009598 0.042073 -0.440104
242 2 627.515719 -2714.996733 376.226764 -0.215126 0.038878 0.018728 -0.975632
243 2 626.684917 -2715.192913 386.089892 0.628651 0.038882 -0.018719 -0.776489
244 2 625.854114 -2715.389093 395.953019 0.999041 0.009607 -0.042071 0.007366
245 2 625.023311 -2715.585272 405.816146 0.617133 -0.026902 -0.033742 0.785675
246 2 624.192508 -2715.781452 415.679274 -0.229489 -0.043154 -0.000005 0.972354
247 2 623.361706 -2715.977632 425.542401 -0.903301 -0.026910 0.033736 0.426831
248 2 622.530903 -2716.173811 435.405528 -0.896909 0.009598 0.042073 -0.440104
249 2 621.700100 -2716.369991 445.268656 -0.215126 0.038878 0.018728 -0.975632
250 2 620.869297 -2716.566171 455.131783 0.628651 0.038882 -0.018719 -0.776489
251 2 620.038495 -2716.762350 464.994910 0.999041 0.009607 -0.042071 0.007366
252 2 619.207692 -2716.958530 474.858037 0.617133 -0.026902 -0.033742 0.785675
253 2 618.376889 -2717.154710 484.721165 -0.229489 -0.043154 -0.000005 0.972354
254 2 617.546087 -2717.350889 494.584292 -0.903301 -0.026910 0.033736 0.426831
255 2 616.715284 -2717.547069 504.447419 -0.896909 0.009598 0.042073 -0.440104
256 2 615.884481 -2717.743249 514.310547 -0.215126 0.038878 0.018728 -0.975632
257 2 615.053678 -2717.939428 524.173674 0.628651 0.038882 -0.018719 -0.776489
258 2 614.222876 -2718.135608 534.036801 0.999041 0.009607 -0.042071 0.007366
259 2 613.392073 -2718.331788 543.899929 0.617133 -0.026902 -0.033742 0.785675
260 2 612.561270 -2718.527967 553.763056 -0.229489 -0.043154 -0.000005 0.972354
261 2 611.730467 -2718.724147 563.626183 -0.903301 -0.026910 0.033736 0.426831
262 2 610.899665 -2718.920326 573.489311 -0.896909 0.009598 0.042073 -0.440104
263 2 610.068862 -2719.116506 583.352438 -0.215126 0.038878 0.018728 -0.975632
264 2 609.238059 -2719.312686 593.215565 0.628651 0.038882 -0.018719 -0.776489
265 1 578.504345 -2683.571988 591.337656 -0.102968 0.497024 -0.853450 0.118270
266 3 588.770609 -2687.055220 558.058970 -0.102968 0.497024 -0.853450 0.118270
267 2 554.098324 -2649.978209 568.948166 -0.128227 0.599355 -0.751569 0.243875
268 2 558.900605 -2652.085632 560.551329 -0.270618 -0.213909 -0.937190 0.051802
269 2 563.702886 -2654.193056 552.154493 -0.209228 -0.866095 -0.417088 -0.179280
270 2 568.505166 -2656.300480 543.757656 0.009715 -0.866094 0.417090 -0.275360
271 2 573.307447 -2658.407904 535.360819 0.221342 -0.213906 0.937191 -0.164088
272 2 578.109728 -2660.515328 526.963983 0.266294 0.599357 0.751568 0.070745
273 2 582.912008 -2662.622751 518.567146 0.110721 0.961292 -0.000001 0.252306
274 2 587.714289 -2664.730175 510.170309 -0.128227 0.599355 -0.751569 0.243875
275 2 592.516570 -2666.837599 501.773473 -0.270618 -0.213909 -0.937190 0.051802
276 2 597.318850 -2668.945023 493.376636 -0.209228 -0.866095 -0.417088 -0.179280
277 2 602.121131 -2671.052446 484.979799 0.009715 -0.866094 0.417090 -0.275360
278 2 606.923411 -2673.159870 476.582963 0.221342 -0.213906 0.937191 -0.164088
279 2 611.725692 -2675.267294 468.186126 0.266294 0.599357 0.751568 0.070745
280 2 616.527973 -2677.374718 459.789290 0.110721 0.961292 -0.000001 0.252306
281 2 621.330253 -2679.482142 451.392453 -0.128227 0.599355 -0.751569 0.243875
282 2 626.132534 -2681.589565 442.995616 -0.270618 -0.213909 -0.937190 0.051802
283 2 630.934815 -2683.696989 434.598780 -0.209228 -0.866095 -0.417088 -0.179280
284 2 635.737095 -2685.804413 426.201943 0.009715 -0.866094 0.417090 -0.275360
285 2 640.539376 -2687.911837 417.805106 0.221342 -0.213906 0.937191 -0.164088
286 2 645.341657 -2690.019260 409.408270 0.266294 0.599357 0.751568 0.070745
287 2 650.143937 -2692.126684 401.011433 0.110721 0.961292 -0.000001 0.252306
288 2 654.946218 -2694.234108 392.614596 -0.128227 0.599355 -0.751569 0.243875
289 2 659.748498 -2696.341532 384.217760 -0.270618 -0.213909 -0.937190 0.051802
290 2 664.550779 -2698.448956 375.820923 -0.209228 -0.866095 -0.417088 -0.179280
291 2 669.353060 -2700.556379 367.424086 0.009715 -0.866094 0.417090 -0.275360
292 1 682.021646 -2655.300698 363.311253 0.915506 0.081454 -0.306414 -0.247639
293 3 660.972997 -2655.209090 391.274550 0.915506 0.081454 -0.306414 -0.247639
294 2 681.716731 -2609.988554 376.433819 0.857540 0.240805 -0.301953 -0.339798
295 2 674.969650 -2612.045712 383.380400 0.800332 -0.085937 -0.376533 0.458591
296 2 668.222569 -2614.102870 390.326982 0.140458 -0.347966 -0.167577 0.911652
297 2 661.475488 -2616.160029 397.273563 -0.625184 -0.347970 0.167569 0.678220
298 2 654.728407 -2618.217187 404.220145 -0.920050 -0.085945 0.376531 -0.065925
299 2 647.981325 -2620.274345 411.166726 -0.522099 0.240798 0.301958 -0.760427
300 2 641.234244 -2622.331504 418.113308 0.269003 0.386216 0.000004 -0.882312
301 2 634.487163 -2624.388662 425.059889 0.857540 0.240805 -0.301953 -0.339798
302 2 627.740082 -2626.445821 432.006471 0.800332 -0.085937 -0.376533 0.458591
303 2 620.993001 -2628.502979 438.953052 0.140458 -0.347966 -0.167577 0.911652
304 2 614.245919 -2630.560137 445.899634 -0.625184 -0.347970 0.167569 0.678220
305 2 607.498838 -2632.617296 452.846215 -0.920050 -0.085945 0.376531 -0.065925
306 2 600.751757 -2634.674454 459.792797 -0.522099 0.240798 0.301958 -0.760427
307 2 594.004676 -2636.731612 466.739378 0.269003 0.386216 0.000004 -0.882312
308 2 587.257595 -2638.788771 473.685960 0.857540 0.240805 -0.301953 -0.339798
309 2 580.510513 -2640.845929 480.632541 0.800332 -0.085937 -0.376533 0.458591
310 2 573.763432 -2642.903088 487.579123 0.140458 -0.347966 -0.167577 0.911652
311 2 567.016351 -2644.960246 494.525704 -0.625184 -0.347970 0.167569 0.678220
312 2 560.269270 -2647.017404 501.472286 -0.920050 -0.085945 0.376531 -0.065925
313 2 553.522189 -2649.074563 508.418867 -0.522099 0.240798 0.301958 -0.760427
314 2 546.775107 -2651.131721 515.365449 0.269003 0.386216 0.000004 -0.882312
315 2 540.028026 -2653.188879 522.312030 0.857540 0.240805 -0.301953 -0.339798
316 2 533.280945 -2655.246038 529.258612 0.800332 -0.085937 -0.376533 0.458591
317 2 526.533864 -2657.303196 536.205193 0.140458 -0.347966 -0.167577 0.911652
318 2 519.786783 -2659.360355 543.151775 -0.625184 -0.347970 0.167569 0.678220
319 1 491.624903 -2625.750229 525.751974 0.429689 -0.467955 0.744098 -0.206647
320 3 520.775176 -2622.438546 506.665478 0.429689 -0.467955 0.744098 -0.206647
321 2 481.430024 -2590.098921 496.588060 0.434262 -0.513417 0.643810 -0.365141
322 2 490.677654 -2590.338964 493.061911 0.556237 0.183240 0.802815 0.111858
323 2 499.925283 -2590.579007 489.535761 0.259354 0.741914 0.357284 0.504626
324 2 509.172913 -2590.819050 486.009612 -0.232828 0.741912 -0.357289 0.517400
325 2 518.420542 -2591.059094 482.483463 -0.549686 0.183235 -0.802816 0.140561
326 2 527.668171 -2591.299137 478.957313 -0.452619 -0.513422 -0.643806 -0.342123
327 2 536.915801 -2591.539180 475.431164 -0.014721 -0.823461 0.000003 -0.567182
328 2 546.163430 -2591.779223 471.905015 0.434262 -0.513417 0.643810 -0.365141
329 2 555.411060 -2592.019267 468.378866 0.556237 0.183240 0.802815 0.111858
330 2 564.658689 -2592.259310 464.852716 0.259354 0.741914 0.357284 0.504626
331 2 573.906319 -2592.499353 461.326567 -0.232828 0.741912 -0.357289 0.517400
332 2 583.153948 -2592.739396 457.800418 -0.549686 0.183235 -0.802816 0.140561
333 2 592.401578 -2592.979440 454.274269 -0.452619 -0.513422 -0.643806 -0.342123
334 2 601.649207 -2593.219483 450.748119 -0.014721 -0.823461 0.000003 -0.567182
335 2 610.896837 -2593.459526 447.221970 0.434262 -0.513417 0.643810 -0.365141
336 2 620.144466 -2593.699569 443.695821 0.556237 0.183240 0.802815 0.111858
337 2 629.392096 -2593.939613 440.169672 0.259354 0.741914 0.357284 0.504626
338 2 638.639725 -2594.179656 436.643522 -0.232828 0.741912 -0.357289 0.517400
339 2 647.887354 -2594.419699 433.117373 -0.549686 0.183235 -0.802816 0.140561
340 2 657.134984 -2594.659742 429.591224 -0.452619 -0.513422 -0.643806 -0.342123
341 2 666.382613 -2594.899785 426.065075 -0.014721 -0.823461 0.000003 -0.567182
342 2 675.630243 -2595.139829 422.538925 0.434262 -0.513417 0.643810 -0.365141
343 2 684.877872 -2595.379872 419.012776 0.556237 0.183240 0.802815 0.111858
344 2 694.125502 -2595.619915 415.486627 0.259354 0.741914 0.357284 0.504626
345 2 703.373131 -2595.859958 411.960477 -0.232828 0.741912 -0.357289 0.517400
346 1 708.269706 -2549.956887 421.677305 -0.762160 -0.248456 0.571965 0.173892
347 3 674.730394 -2556.250084 429.456138 -0.762160 -0.248456 0.571965 0.173892
348 2 692.494060 -2507.932677 436.188677 -0.702562 -0.424031 0.531713 0.209488
349 2 683.338720 -2511.625788 436.930762 -0.601825 0.151331 0.663038 -0.418672
350 2 674.183381 -2515.318898 437.672846 -0.047901 0.612737 0.295083 -0.731563
351 2 665.028041 -2519.012009 438.414931 0.542093 0.612740 -0.295076 -0.493573
352 2 655.872701 -2522.705120 439.157015 0.723880 0.151337 -0.663037 0.116088
353 2 646.717362 -2526.398230 439.899100 0.360571 -0.424026 -0.531717 0.638332
354 2 637.562022 -2530.091341 440.641185 -0.274256 -0.680089 -0.000003 0.679899
355 2 628.406682 -2533.784452 441.383269 -0.702562 -0.424031 0.531713 0.209488
356 2 619.251343 -2537.477562 442.125354 -0.601825 0.151331 0.663038 -0.418672
357 2 610.096003 -2541.170673 442.867438 -0.047901 0.612737 0.295083 -0.731563
358 2 600.940663 -2544.863784 443.609523 0.542093 0.612740 -0.295076 -0.493573
359 2 591.785324 -2548.556894 444.351607 0.723880 0.151337 -0.663037 0.116088
360 2 582.629984 -2552.250005 445.093692 0.360571 -0.424026 -0.531717 0.638332
361 2 573.474645 -2555.943116 445.835776 -0.274256 -0.680089 -0.000003 0.679899
362 2 564.319305 -2559.636226 446.577861 -0.702562 -0.424031 0.531713 0.209488
363 2 555.163965 -2563.329337 447.319945 -0.601825 0.151331 0.663038 -0.418672
364 2 546.008626 -2567.022448 448.062030 -0.047901 0.612737 0.295083 -0.731563
365 2 536.853286 -2570.715558 448.804114 0.542093 0.612740 -0.295076 -0.493573
366 2 527.697946 -2574.408669 449.546199 0.723880 0.151337 -0.663037 0.116088
367 2 518.542607 -2578.101780 450.288283 0.360571 -0.424026 -0.531717 0.638332
368 2 509.387267 -2581.794890 451.030368 -0.274256 -0.680089 -0.000003 0.679899
369 2 500.231927 -2585.488001 451.772452 -0.702562 -0.424031 0.531713 0.209488
370 2 491.076588 -2589.181112 452.514537 -0.601825 0.151331 0.663038 -0.418672
371 2 481.921248 -2592.874222 453.256621 -0.047901 0.612737 0.295083 -0.731563
372 2 472.765908 -2596.567333 453.998706 0.542093 0.612740 -0.295076 -0.493573
373 1 456.586374 -2562.038965 426.222824 -0.701686 0.379287 -0.539978 0.268705
374 3 490.243148 -2553.565757 430.742367 -0.701686 0.379287 -0.539978 0.268705
375 2 461.151458 -2522.288068 401.232599 -0.684990 0.362091 -0.454054 0.439902
376 2 470.463539 -2521.331942 404.454550 -0.771013 -0.129234 -0.566192 -0.261272
377 2 479.775620 -2520.375817 407.676501 -0.276448 -0.523243 -0.251976 -0.765703
378 2 489.087701 -2519.419691 410.898452 0.426288 -0.523240 0.251983 -0.693544