LAMMPS data file

4067 atoms
4067 ellipsoids
4516 bonds
8882 angles
0 dihedrals

3 atom types
5 bond types
12 angle types
0 dihedral types

-4631.092947 4670.465898 xlo xhi
-4631.092947 4670.465898 ylo yhi
-4631.092947 4670.465898 zlo zhi

Masses

1 196016.000000
2 1950.000000
3 19500.000000

Atoms

1 2 -86.520100 -674.392000 155.465000 1 1.000000 1 -3.000000
2 2 -93.405500 -678.247000 161.292000 1 1.000000 1 -3.000000
3 2 -100.617000 -679.492000 167.997000 1 1.000000 1 -3.000000
4 2 -107.403000 -680.816000 175.015000 1 1.000000 1 -3.000000
5 2 -113.058000 -680.641000 183.089000 1 1.000000 1 -3.000000
6 2 -119.212000 -679.985000 190.803000 1 1.000000 1 -3.000000
7 2 -123.012000 -679.864000 199.910000 1 1.000000 1 -3.000000
8 2 -124.919000 -680.718000 209.652000 1 1.000000 1 -3.000000
9 2 -125.222000 -681.413000 219.539000 1 1.000000 1 -3.000000
10 2 -124.720000 -682.367000 229.409000 1 1.000000 1 -3.000000
11 2 -122.269000 -685.020000 238.626000 1 1.000000 1 -3.000000
12 2 -119.470000 -688.242000 247.529000 1 1.000000 1 -3.000000
13 2 -119.539000 -691.647000 256.893000 1 1.000000 1 -3.000000
14 2 -120.891000 -694.877000 266.168000 1 1.000000 1 -3.000000
15 2 -122.248000 -697.739000 275.478000 1 1.000000 1 -3.000000
16 2 -120.248000 -701.500000 284.482000 1 1.000000 1 -3.000000
17 2 -117.373000 -706.605000 292.487000 1 1.000000 1 -3.000000
18 2 -115.865000 -713.321000 299.670000 1 1.000000 1 -3.000000
19 2 -116.084000 -721.273000 305.637000 1 1.000000 1 -3.000000
20 2 -118.000000 -729.542000 310.856000 1 1.000000 1 -3.000000
21 2 -122.452000 -737.614000 314.285000 1 1.000000 2 -3.000000
22 1 -123.325000 -769.207000 279.292000 1 1.000000 2 0.000000
23 3 -111.157000 -740.370000 263.567000 1 1.000000 2 0.000000
24 2 -118.441000 -782.683000 234.340000 1 1.000000 2 -3.000000
25 2 -113.049000 -776.056000 229.416000 1 1.000000 1 -3.000000
26 2 -107.819000 -768.905000 224.901000 1 1.000000 1 -3.000000
27 2 -102.498000 -760.443000 224.440000 1 1.000000 1 -3.000000
28 2 -95.777300 -753.055000 224.073000 1 1.000000 1 -3.000000
29 2 -89.921900 -745.314000 226.174000 1 1.000000 1 -3.000000
30 2 -85.060100 -736.827000 228.135000 1 1.000000 1 -3.000000
31 2 -80.946900 -728.459000 231.350000 1 1.000000 1 -3.000000
32 2 -75.728300 -720.312000 233.405000 1 1.000000 1 -3.000000
33 2 -68.761800 -713.346000 234.139000 1 1.000000 1 -3.000000
34 2 -61.007700 -707.440000 235.729000 1 1.000000 1 -3.000000
35 2 -54.157500 -700.282000 235.175000 1 1.000000 1 -3.000000
36 2 -46.798900 -693.977000 233.264000 1 1.000000 1 -3.000000
37 2 -38.779600 -688.085000 232.723000 1 1.000000 1 -3.000000
38 2 -31.667100 -681.276000 231.839000 1 1.000000 1 -3.000000
39 2 -23.082800 -676.468000 230.645000 1 1.000000 1 -3.000000
40 2 -14.151800 -672.214000 230.808000 1 1.000000 1 -3.000000
41 2 -5.568620 -668.279000 233.757000 1 1.000000 1 -3.000000
42 2 2.648520 -663.881000 237.048000 1 1.000000 1 -3.000000
43 2 11.147200 -659.193000 239.256000 1 1.000000 1 -3.000000
44 2 17.984200 -653.182000 243.048000 1 1.000000 1 -3.000000
45 2 24.372300 -647.414000 248.121000 1 1.000000 1 -3.000000
46 2 29.747800 -641.738000 254.226000 1 1.000000 1 -3.000000
47 2 34.499100 -637.199000 261.701000 1 1.000000 1 -3.000000
48 2 39.993300 -632.702000 268.620000 1 1.000000 3 -3.000000
49 1 20.925600 -652.878000 306.729000 1 1.000000 3 0.000000
50 3 11.842700 -674.660000 280.814000 1 1.000000 3 0.000000
51 2 -2.484460 -687.067000 329.193000 1 1.000000 3 -3.000000
52 2 -5.143710 -693.530000 322.247000 1 1.000000 1 -3.000000
53 2 -6.594840 -700.351000 315.184000 1 1.000000 1 -3.000000
54 2 -6.490970 -705.912000 306.988000 1 1.000000 1 -3.000000
55 2 -5.876460 -710.959000 298.475000 1 1.000000 1 -3.000000
56 2 -4.412970 -715.056000 289.608000 1 1.000000 1 -3.000000
57 2 -0.297868 -717.252000 280.966000 1 1.000000 1 -3.000000
58 2 4.994940 -719.419000 272.849000 1 1.000000 1 -3.000000
59 2 11.618900 -719.543000 265.466000 1 1.000000 1 -3.000000
60 2 19.380000 -718.679000 259.374000 1 1.000000 1 -3.000000
61 2 26.174200 -716.161000 252.575000 1 1.000000 1 -3.000000
62 2 33.723900 -714.072000 246.472000 1 1.000000 1 -3.000000
63 2 41.755800 -712.159000 240.960000 1 1.000000 1 -3.000000
64 2 49.606500 -710.353000 235.144000 1 1.000000 1 -3.000000
65 2 57.092500 -707.887000 229.151000 1 1.000000 1 -3.000000
66 2 64.591600 -706.026000 222.986000 1 1.000000 1 -3.000000
67 2 72.660100 -706.379000 217.295000 1 1.000000 1 -3.000000
68 2 80.418100 -705.619000 211.255000 1 1.000000 1 -3.000000
69 2 89.219000 -707.624000 207.170000 1 1.000000 1 -3.000000
70 2 97.613600 -710.944000 203.096000 1 1.000000 1 -3.000000
71 2 106.245000 -712.611000 198.632000 1 1.000000 1 -3.000000
72 2 115.056000 -714.140000 194.397000 1 1.000000 1 -3.000000
73 2 124.429000 -713.986000 191.200000 1 1.000000 1 -3.000000
74 2 134.135000 -713.121000 189.326000 1 1.000000 1 -3.000000
75 2 143.122000 -710.603000 185.981000 1 1.000000 4 -3.000000
76 1 151.155000 -666.297000 200.146000 1 1.000000 4 0.000000
77 3 121.145000 -674.552000 216.127000 1 1.000000 4 0.000000
78 2 141.558000 -627.813000 225.695000 1 1.000000 4 -3.000000
79 2 136.926000 -632.451000 233.055000 1 1.000000 1 -3.000000
80 2 130.975000 -637.376000 239.194000 1 1.000000 1 -3.000000
81 2 124.493000 -641.079000 245.705000 1 1.000000 1 -3.000000
82 2 118.644000 -647.610000 250.287000 1 1.000000 1 -3.000000
83 2 112.356000 -654.473000 253.672000 1 1.000000 1 -3.000000
84 2 105.803000 -661.915000 254.775000 1 1.000000 1 -3.000000
85 2 99.690300 -669.429000 256.839000 1 1.000000 1 -3.000000
86 2 94.616500 -677.200000 260.073000 1 1.000000 1 -3.000000
87 2 92.255700 -686.339000 263.151000 1 1.000000 1 -3.000000
88 2 90.581700 -695.263000 267.149000 1 1.000000 1 -3.000000
89 2 88.739400 -704.627000 269.829000 1 1.000000 1 -3.000000
90 2 87.791100 -714.292000 271.693000 1 1.000000 1 -3.000000
91 2 85.843100 -723.877000 273.634000 1 1.000000 1 -3.000000
92 2 81.999600 -732.932000 273.479000 1 1.000000 1 -3.000000
93 2 80.039900 -742.318000 275.492000 1 1.000000 1 -3.000000
94 2 76.556100 -751.613000 275.853000 1 1.000000 1 -3.000000
95 2 71.339200 -759.994000 276.462000 1 1.000000 1 -3.000000
96 2 67.118000 -768.917000 277.270000 1 1.000000 1 -3.000000
97 2 62.304100 -777.641000 277.426000 1 1.000000 1 -3.000000
98 2 57.618200 -786.241000 276.520000 1 1.000000 1 -3.000000
99 2 50.644200 -793.124000 275.231000 1 1.000000 1 -3.000000
100 2 44.655000 -800.490000 272.164000 1 1.000000 1 -3.000000
101 2 36.674600 -806.385000 271.401000 1 1.000000 1 -3.000000
102 2 28.536000 -811.879000 272.475000 1 1.000000 5 -3.000000
103 1 -4.079690 -784.025000 292.076000 1 1.000000 5 0.000000
104 3 20.328500 -761.369000 281.388000 1 1.000000 5 0.000000
105 2 -21.388100 -742.316000 305.713000 1 1.000000 5 -3.000000
106 2 -12.676800 -738.444000 308.443000 1 1.000000 1 -3.000000
107 2 -3.911630 -735.947000 312.432000 1 1.000000 1 -3.000000
108 2 4.069170 -732.934000 317.245000 1 1.000000 1 -3.000000
109 2 11.739800 -732.051000 323.400000 1 1.000000 1 -3.000000
110 2 18.630300 -731.126000 330.403000 1 1.000000 1 -3.000000
111 2 25.626000 -731.684000 337.505000 1 1.000000 1 -3.000000
112 2 31.767300 -733.887000 344.971000 1 1.000000 1 -3.000000
113 2 38.397200 -737.040000 351.641000 1 1.000000 1 -3.000000
114 2 45.057300 -739.824000 358.404000 1 1.000000 1 -3.000000
115 2 50.231000 -743.650000 365.823000 1 1.000000 1 -3.000000
116 2 54.991300 -746.885000 373.928000 1 1.000000 1 -3.000000
117 2 59.800300 -751.512000 381.180000 1 1.000000 1 -3.000000
118 2 65.378800 -758.011000 386.200000 1 1.000000 1 -3.000000
119 2 73.375100 -763.571000 388.246000 1 1.000000 1 -3.000000
120 2 80.905500 -769.180000 391.480000 1 1.000000 1 -3.000000
121 2 88.243800 -775.369000 393.892000 1 1.000000 1 -3.000000
122 2 94.105200 -782.946000 396.298000 1 1.000000 1 -3.000000
123 2 99.395300 -791.251000 397.651000 1 1.000000 1 -3.000000
124 2 105.599000 -798.853000 398.598000 1 1.000000 1 -3.000000
125 2 112.106000 -806.274000 399.366000 1 1.000000 1 -3.000000
126 2 119.962000 -812.333000 399.940000 1 1.000000 1 -3.000000
127 2 128.863000 -816.594000 399.479000 1 1.000000 1 -3.000000
128 2 138.356000 -819.431000 399.561000 1 1.000000 1 -3.000000
129 2 147.638000 -822.697000 399.868000 1 1.000000 6 -3.000000
130 1 166.084000 -796.075000 434.213000 1 1.000000 6 0.000000
131 3 132.621000 -785.710000 433.126000 1 1.000000 6 0.000000
132 2 164.127000 -762.233000 466.974000 1 1.000000 6 -3.000000
133 2 154.447000 -762.767000 468.971000 1 1.000000 1 -3.000000
134 2 144.748000 -761.652000 469.927000 1 1.000000 1 -3.000000
135 2 134.821000 -761.119000 470.393000 1 1.000000 1 -3.000000
136 2 124.937000 -760.850000 470.142000 1 1.000000 1 -3.000000
137 2 115.652000 -760.149000 466.531000 1 1.000000 1 -3.000000
138 2 106.817000 -761.132000 462.201000 1 1.000000 1 -3.000000
139 2 98.498600 -762.468000 457.080000 1 1.000000 1 -3.000000
140 2 90.506700 -763.871000 451.462000 1 1.000000 1 -3.000000
141 2 81.571200 -765.574000 447.501000 1 1.000000 1 -3.000000
142 2 73.433300 -766.572000 441.974000 1 1.000000 1 -3.000000
143 2 66.177600 -769.154000 435.677000 1 1.000000 1 -3.000000
144 2 58.117300 -772.343000 430.968000 1 1.000000 1 -3.000000
145 2 50.500900 -775.323000 425.442000 1 1.000000 1 -3.000000
146 2 42.818400 -780.125000 421.452000 1 1.000000 1 -3.000000
147 2 36.448400 -784.145000 415.022000 1 1.000000 1 -3.000000
148 2 29.116900 -787.701000 409.433000 1 1.000000 1 -3.000000
149 2 23.833200 -791.166000 401.770000 1 1.000000 1 -3.000000
150 2 18.844600 -792.009000 393.306000 1 1.000000 1 -3.000000
151 2 15.062300 -793.526000 384.220000 1 1.000000 1 -3.000000
152 2 10.569900 -793.186000 375.403000 1 1.000000 1 -3.000000
153 2 6.503270 -789.905000 367.083000 1 1.000000 1 -3.000000
154 2 1.433170 -785.696000 359.696000 1 1.000000 1 -3.000000
155 2 -4.682480 -780.510000 353.961000 1 1.000000 1 -3.000000
156 2 -10.940500 -776.334000 347.541000 1 1.000000 7 -3.000000
157 1 -45.949400 -766.014000 377.459000 1 1.000000 7 0.000000
158 3 -17.618300 -766.372000 397.976000 1 1.000000 7 0.000000
159 2 -63.810500 -758.342000 420.494000 1 1.000000 7 -3.000000
160 2 -55.058600 -755.316000 424.087000 1 1.000000 1 -3.000000
161 2 -46.596200 -752.992000 428.620000 1 1.000000 1 -3.000000
162 2 -37.914800 -750.032000 432.288000 1 1.000000 1 -3.000000
163 2 -29.185700 -748.341000 436.548000 1 1.000000 1 -3.000000
164 2 -20.341700 -745.677000 440.042000 1 1.000000 1 -3.000000
165 2 -11.391600 -743.821000 443.558000 1 1.000000 1 -3.000000
166 2 -2.873620 -739.419000 445.672000 1 1.000000 1 -3.000000
167 2 6.099780 -735.838000 447.749000 1 1.000000 1 -3.000000
168 2 14.789700 -731.491000 449.814000 1 1.000000 1 -3.000000
169 2 23.887500 -729.562000 453.062000 1 1.000000 1 -3.000000
170 2 33.333700 -727.525000 455.255000 1 1.000000 1 -3.000000
171 2 42.388000 -725.277000 458.544000 1 1.000000 1 -3.000000
172 2 51.210700 -725.580000 463.077000 1 1.000000 1 -3.000000
173 2 59.450600 -726.600000 468.539000 1 1.000000 1 -3.000000
174 2 67.521100 -728.412000 473.994000 1 1.000000 1 -3.000000
175 2 76.048500 -732.112000 477.346000 1 1.000000 1 -3.000000
176 2 84.466400 -734.666000 481.835000 1 1.000000 1 -3.000000
177 2 92.967100 -739.369000 484.029000 1 1.000000 1 -3.000000
178 2 101.055000 -743.842000 487.487000 1 1.000000 1 -3.000000
179 2 109.563000 -747.526000 490.824000 1 1.000000 1 -3.000000
180 2 119.444000 -749.139000 491.201000 1 1.000000 1 -3.000000
181 2 129.065000 -748.077000 493.058000 1 1.000000 1 -3.000000
182 2 138.334000 -746.765000 496.184000 1 1.000000 1 -3.000000
183 2 147.146000 -744.302000 499.847000 1 1.000000 8 -3.000000
184 1 145.989000 -698.641000 511.754000 1 1.000000 8 0.000000
185 3 112.185000 -707.466000 510.725000 1 1.000000 8 0.000000
186 2 123.847000 -657.901000 520.341000 1 1.000000 8 -3.000000
187 2 115.523000 -662.544000 523.041000 1 1.000000 1 -3.000000
188 2 106.161000 -664.997000 524.814000 1 1.000000 1 -3.000000
189 2 97.129000 -668.999000 525.936000 1 1.000000 1 -3.000000
190 2 88.375500 -673.691000 526.314000 1 1.000000 1 -3.000000
191 2 80.762900 -679.770000 527.756000 1 1.000000 1 -3.000000
192 2 75.570300 -688.137000 526.589000 1 1.000000 1 -3.000000
193 2 70.729300 -696.472000 524.365000 1 1.000000 1 -3.000000
194 2 67.341400 -705.524000 522.408000 1 1.000000 1 -3.000000
195 2 62.622800 -714.105000 521.546000 1 1.000000 1 -3.000000
196 2 59.205800 -723.380000 521.761000 1 1.000000 1 -3.000000
197 2 55.877000 -732.655000 520.960000 1 1.000000 1 -3.000000
198 2 51.290300 -741.446000 520.579000 1 1.000000 1 -3.000000
199 2 46.789600 -749.968000 518.247000 1 1.000000 1 -3.000000
200 2 41.436700 -757.604000 514.885000 1 1.000000 1 -3.000000
201 2 37.879200 -765.810000 510.541000 1 1.000000 1 -3.000000
202 2 35.510500 -773.415000 504.646000 1 1.000000 1 -3.000000
203 2 32.422400 -782.677000 502.595000 1 1.000000 1 -3.000000
204 2 29.830400 -791.165000 498.119000 1 1.000000 1 -3.000000
205 2 27.413700 -800.476000 496.123000 1 1.000000 1 -3.000000
206 2 24.156500 -809.730000 494.747000 1 1.000000 1 -3.000000
207 2 19.439100 -818.391000 494.333000 1 1.000000 1 -3.000000
208 2 14.006300 -826.619000 493.726000 1 1.000000 1 -3.000000
209 2 8.683560 -834.778000 495.346000 1 1.000000 1 -3.000000
210 2 1.019460 -840.907000 496.215000 1 1.000000 9 -3.000000
211 1 -26.665000 -824.500000 530.719000 1 1.000000 9 0.000000
212 3 -8.326860 -796.255000 521.012000 1 1.000000 9 0.000000
213 2 -43.875300 -790.358000 558.375000 1 1.000000 9 -3.000000
214 2 -39.412700 -782.796000 553.811000 1 1.000000 1 -3.000000
215 2 -35.050700 -774.873000 550.026000 1 1.000000 1 -3.000000
216 2 -30.335100 -767.684000 544.998000 1 1.000000 1 -3.000000
217 2 -26.874700 -759.134000 541.284000 1 1.000000 1 -3.000000
218 2 -24.974800 -749.747000 538.736000 1 1.000000 1 -3.000000
219 2 -22.127100 -740.385000 537.053000 1 1.000000 1 -3.000000
220 2 -17.438200 -732.071000 534.377000 1 1.000000 1 -3.000000
221 2 -11.895100 -724.586000 531.239000 1 1.000000 1 -3.000000
222 2 -4.840180 -718.286000 528.396000 1 1.000000 1 -3.000000
223 2 3.338590 -713.321000 525.792000 1 1.000000 1 -3.000000
224 2 10.758600 -706.832000 526.640000 1 1.000000 1 -3.000000
225 2 16.242500 -698.617000 527.571000 1 1.000000 1 -3.000000
226 2 20.125200 -689.747000 529.660000 1 1.000000 1 -3.000000
227 2 25.652100 -681.729000 531.736000 1 1.000000 1 -3.000000
228 2 31.034200 -673.906000 534.423000 1 1.000000 1 -3.000000
229 2 37.099900 -666.277000 536.024000 1 1.000000 1 -3.000000
230 2 43.061700 -658.645000 538.291000 1 1.000000 1 -3.000000
231 2 47.461600 -649.788000 538.200000 1 1.000000 1 -3.000000
232 2 52.677000 -641.469000 537.639000 1 1.000000 1 -3.000000
233 2 59.599000 -634.368000 538.749000 1 1.000000 1 -3.000000
234 2 66.769900 -627.715000 537.395000 1 1.000000 1 -3.000000
235 2 73.293000 -620.470000 535.979000 1 1.000000 1 -3.000000
236 2 79.697800 -613.277000 533.660000 1 1.000000 1 -3.000000
237 2 84.640600 -605.271000 530.384000 1 1.000000 10 -3.000000
238 1 77.343200 -607.855000 483.855000 1 1.000000 10 0.000000
239 3 47.289900 -619.966000 497.342000 1 1.000000 10 0.000000
240 2 52.836200 -620.677000 445.656000 1 1.000000 10 -3.000000
241 2 44.247200 -618.810000 450.211000 1 1.000000 1 -3.000000
242 2 35.204400 -618.460000 454.202000 1 1.000000 1 -3.000000
243 2 25.936900 -620.073000 457.273000 1 1.000000 1 -3.000000
244 2 18.437100 -622.870000 463.139000 1 1.000000 1 -3.000000
245 2 12.204100 -624.934000 470.694000 1 1.000000 1 -3.000000
246 2 6.551380 -626.465000 478.717000 1 1.000000 1 -3.000000
247 2 -0.802197 -628.061000 485.337000 1 1.000000 1 -3.000000
248 2 -9.894870 -628.913000 489.042000 1 1.000000 1 -3.000000
249 2 -19.450700 -630.437000 491.472000 1 1.000000 1 -3.000000
250 2 -28.769200 -632.470000 493.961000 1 1.000000 1 -3.000000
251 2 -36.400500 -633.323000 500.244000 1 1.000000 1 -3.000000
252 2 -44.590500 -635.208000 505.506000 1 1.000000 1 -3.000000
253 2 -53.500100 -638.439000 508.567000 1 1.000000 1 -3.000000
254 2 -63.118900 -639.267000 510.368000 1 1.000000 1 -3.000000
255 2 -72.705400 -641.113000 511.947000 1 1.000000 1 -3.000000
256 2 -81.385500 -641.186000 516.790000 1 1.000000 1 -3.000000
257 2 -88.124500 -639.900000 523.888000 1 1.000000 1 -3.000000
258 2 -95.382600 -635.914000 529.342000 1 1.000000 1 -3.000000
259 2 -102.902000 -633.171000 535.228000 1 1.000000 1 -3.000000
260 2 -109.954000 -631.848000 542.073000 1 1.000000 1 -3.000000
261 2 -117.275000 -630.964000 548.749000 1 1.000000 1 -3.000000
262 2 -123.877000 -630.376000 556.092000 1 1.000000 1 -3.000000
263 2 -127.376000 -628.410000 565.163000 1 1.000000 1 -3.000000
264 2 -130.980000 -625.935000 574.094000 1 1.000000 11 -3.000000
265 1 -96.239700 -629.189000 605.918000 1 1.000000 11 0.000000
266 3 -79.487900 -632.327000 575.444000 1 1.000000 11 0.000000
267 2 -51.483500 -636.437000 618.961000 1 1.000000 11 -3.000000
268 2 -47.557700 -635.313000 609.947000 1 1.000000 1 -3.000000
269 2 -43.373400 -634.508000 601.014000 1 1.000000 1 -3.000000
270 2 -39.849900 -632.187000 592.122000 1 1.000000 1 -3.000000
271 2 -37.186800 -628.563000 583.320000 1 1.000000 1 -3.000000
272 2 -36.799200 -623.369000 574.832000 1 1.000000 1 -3.000000
273 2 -38.625900 -619.123000 566.106000 1 1.000000 1 -3.000000
274 2 -40.578200 -611.336000 560.356000 1 1.000000 1 -3.000000
275 2 -43.502200 -603.941000 554.305000 1 1.000000 1 -3.000000
276 2 -46.715600 -596.444000 548.689000 1 1.000000 1 -3.000000
277 2 -51.093200 -588.728000 544.326000 1 1.000000 1 -3.000000
278 2 -55.488500 -580.616000 540.562000 1 1.000000 1 -3.000000
279 2 -60.972400 -572.721000 537.978000 1 1.000000 1 -3.000000
280 2 -67.298400 -565.190000 538.153000 1 1.000000 1 -3.000000
281 2 -74.099400 -558.094000 536.968000 1 1.000000 1 -3.000000
282 2 -79.530700 -549.888000 535.918000 1 1.000000 1 -3.000000
283 2 -84.579300 -541.468000 535.782000 1 1.000000 1 -3.000000
284 2 -89.040800 -533.020000 538.341000 1 1.000000 1 -3.000000
285 2 -92.095500 -524.713000 542.747000 1 1.000000 1 -3.000000
286 2 -93.445000 -515.724000 546.809000 1 1.000000 1 -3.000000
287 2 -96.206300 -506.505000 548.428000 1 1.000000 1 -3.000000
288 2 -101.063000 -497.872000 548.662000 1 1.000000 1 -3.000000
289 2 -105.363000 -489.185000 547.210000 1 1.000000 1 -3.000000
290 2 -109.153000 -480.058000 546.299000 1 1.000000 1 -3.000000
291 2 -114.685000 -472.056000 544.531000 1 1.000000 12 -3.000000
292 1 -133.199000 -483.488000 502.647000 1 1.000000 12 0.000000
293 3 -124.721000 -514.483000 516.481000 1 1.000000 12 0.000000
294 2 -147.458000 -514.078000 469.704000 1 1.000000 12 -3.000000
295 2 -147.566000 -522.034000 475.561000 1 1.000000 1 -3.000000
296 2 -148.380000 -530.558000 480.474000 1 1.000000 1 -3.000000
297 2 -148.189000 -538.125000 486.788000 1 1.000000 1 -3.000000
298 2 -148.075000 -544.931000 493.934000 1 1.000000 1 -3.000000
299 2 -149.079000 -548.681000 502.997000 1 1.000000 1 -3.000000
300 2 -148.022000 -550.379000 512.736000 1 1.000000 1 -3.000000
301 2 -148.695000 -551.261000 522.567000 1 1.000000 1 -3.000000
302 2 -149.324000 -550.667000 532.487000 1 1.000000 1 -3.000000
303 2 -151.301000 -546.907000 541.510000 1 1.000000 1 -3.000000
304 2 -156.806000 -541.860000 547.930000 1 1.000000 1 -3.000000
305 2 -160.515000 -535.888000 555.022000 1 1.000000 1 -3.000000
306 2 -163.012000 -530.857000 563.219000 1 1.000000 1 -3.000000
307 2 -163.308000 -526.440000 572.121000 1 1.000000 1 -3.000000
308 2 -161.976000 -521.355000 580.481000 1 1.000000 1 -3.000000
309 2 -161.986000 -517.160000 589.339000 1 1.000000 1 -3.000000
310 2 -162.801000 -513.185000 598.326000 1 1.000000 1 -3.000000
311 2 -162.823000 -507.569000 606.428000 1 1.000000 1 -3.000000
312 2 -161.992000 -501.566000 614.238000 1 1.000000 1 -3.000000
313 2 -161.201000 -498.005000 623.463000 1 1.000000 1 -3.000000
314 2 -161.817000 -494.665000 632.750000 1 1.000000 1 -3.000000
315 2 -158.646000 -493.308000 641.951000 1 1.000000 1 -3.000000
316 2 -155.415000 -493.850000 651.278000 1 1.000000 1 -3.000000
317 2 -152.264000 -492.674000 660.619000 1 1.000000 1 -3.000000
318 2 -148.570000 -488.315000 668.723000 1 1.000000 13 -3.000000
319 1 -102.640000 -497.924000 663.477000 1 1.000000 13 0.000000
320 3 -115.595000 -502.839000 631.379000 1 1.000000 13 0.000000
321 2 -65.148000 -512.375000 638.848000 1 1.000000 13 -3.000000
322 2 -69.190700 -510.689000 630.005000 1 1.000000 1 -3.000000
323 2 -71.402500 -508.902000 620.414000 1 1.000000 1 -3.000000
324 2 -76.034100 -507.051000 611.816000 1 1.000000 1 -3.000000
325 2 -80.980200 -503.793000 603.890000 1 1.000000 1 -3.000000
326 2 -87.586500 -500.168000 597.481000 1 1.000000 1 -3.000000
327 2 -94.268600 -496.671000 590.973000 1 1.000000 1 -3.000000
328 2 -99.091400 -490.126000 585.244000 1 1.000000 1 -3.000000
329 2 -103.303000 -483.701000 579.025000 1 1.000000 1 -3.000000
330 2 -106.326000 -474.969000 575.575000 1 1.000000 1 -3.000000
331 2 -108.423000 -465.947000 572.008000 1 1.000000 1 -3.000000
332 2 -108.914000 -456.264000 569.781000 1 1.000000 1 -3.000000
333 2 -108.735000 -447.040000 566.341000 1 1.000000 1 -3.000000
334 2 -109.329000 -437.192000 565.449000 1 1.000000 1 -3.000000
335 2 -109.153000 -427.508000 563.650000 1 1.000000 1 -3.000000
336 2 -109.653000 -418.542000 559.335000 1 1.000000 1 -3.000000
337 2 -109.912000 -409.359000 555.798000 1 1.000000 1 -3.000000
338 2 -109.837000 -400.020000 552.616000 1 1.000000 1 -3.000000
339 2 -112.669000 -391.509000 548.409000 1 1.000000 1 -3.000000
340 2 -116.935000 -383.025000 545.448000 1 1.000000 1 -3.000000
341 2 -120.427000 -374.073000 543.133000 1 1.000000 1 -3.000000
342 2 -123.083000 -364.548000 543.397000 1 1.000000 1 -3.000000
343 2 -126.793000 -355.324000 543.553000 1 1.000000 1 -3.000000
344 2 -131.452000 -346.830000 545.441000 1 1.000000 1 -3.000000
345 2 -136.199000 -338.865000 548.703000 1 1.000000 14 -3.000000
346 1 -136.771000 -342.035000 595.806000 1 1.000000 14 0.000000
347 3 -115.092000 -367.786000 586.275000 1 1.000000 14 0.000000
348 2 -126.742000 -363.150000 636.726000 1 1.000000 14 -3.000000
349 2 -117.615000 -365.740000 633.823000 1 1.000000 1 -3.000000
350 2 -108.392000 -368.654000 631.599000 1 1.000000 1 -3.000000
351 2 -99.631900 -372.304000 628.679000 1 1.000000 1 -3.000000
352 2 -92.020600 -375.653000 623.315000 1 1.000000 1 -3.000000
353 2 -85.123900 -378.783000 617.096000 1 1.000000 1 -3.000000
354 2 -79.603100 -382.113000 609.669000 1 1.000000 1 -3.000000
355 2 -75.132900 -385.303000 601.405000 1 1.000000 1 -3.000000
356 2 -72.454800 -388.910000 592.477000 1 1.000000 1 -3.000000
357 2 -70.073600 -391.662000 583.241000 1 1.000000 1 -3.000000
358 2 -69.377800 -394.530000 573.804000 1 1.000000 1 -3.000000
359 2 -69.319500 -396.776000 564.176000 1 1.000000 1 -3.000000
360 2 -69.511800 -394.083000 554.621000 1 1.000000 1 -3.000000
361 2 -70.165100 -391.242000 545.137000 1 1.000000 1 -3.000000
362 2 -71.885600 -389.954000 535.461000 1 1.000000 1 -3.000000
363 2 -74.815900 -387.715000 526.274000 1 1.000000 1 -3.000000
364 2 -79.426900 -382.760000 518.872000 1 1.000000 1 -3.000000
365 2 -84.809900 -375.806000 514.276000 1 1.000000 1 -3.000000
366 2 -91.788500 -369.538000 511.126000 1 1.000000 1 -3.000000
367 2 -99.490100 -364.477000 507.631000 1 1.000000 1 -3.000000
368 2 -107.504000 -358.729000 506.910000 1 1.000000 1 -3.000000
369 2 -116.671000 -355.042000 508.186000 1 1.000000 1 -3.000000
370 2 -125.749000 -352.181000 511.074000 1 1.000000 1 -3.000000
371 2 -134.900000 -349.394000 513.871000 1 1.000000 1 -3.000000
372 2 -143.015000 -346.269000 518.578000 1 1.000000 15 -3.000000
373 1 -157.513000 -387.768000 535.701000 1 1.000000 15 0.000000
374 3 -122.778000 -391.788000 533.143000 1 1.000000 15 0.000000
375 2 -150.778000 -432.167000 550.083000 1 1.000000 15 -3.000000
376 2 -142.423000 -432.568000 544.923000 1 1.000000 1 -3.000000
377 2 -134.220000 -435.378000 540.004000 1 1.000000 1 -3.000000
378 2 -126.024000 -437.912000 535.161000 1 1.000000 1 -3.000000
379 2 -118.972000 -441.129000 529.110000 1 1.000000 1 -3.000000
380 2 -111.177000 -442.132000 523.272000 1 1.000000 1 -3.000000
381 2 -104.528000 -444.624000 516.335000 1 1.000000 1 -3.000000
382 2 -97.976900 -446.050000 509.057000 1 1.000000 1 -3.000000
383 2 -90.677900 -446.754000 502.441000 1 1.000000 1 -3.000000
384 2 -83.896400 -448.025000 495.400000 1 1.000000 1 -3.000000
385 2 -76.619400 -450.040000 488.948000 1 1.000000 1 -3.000000
386 2 -68.836000 -453.067000 483.709000 1 1.000000 1 -3.000000
387 2 -62.841900 -458.943000 478.597000 1 1.000000 1 -3.000000
388 2 -61.151900 -465.564000 471.407000 1 1.000000 1 -3.000000
389 2 -60.761100 -471.145000 463.360000 1 1.000000 1 -3.000000
390 2 -60.826900 -477.070000 455.392000 1 1.000000 1 -3.000000
391 2 -63.353700 -483.129000 447.941000 1 1.000000 1 -3.000000
392 2 -65.344300 -489.462000 440.590000 1 1.000000 1 -3.000000
393 2 -64.798700 -494.643000 432.144000 1 1.000000 1 -3.000000
394 2 -66.820700 -502.321000 426.239000 1 1.000000 1 -3.000000
395 2 -71.032000 -508.195000 419.482000 1 1.000000 1 -3.000000
396 2 -76.123700 -512.281000 411.969000 1 1.000000 1 -3.000000
397 2 -81.409300 -516.302000 404.519000 1 1.000000 1 -3.000000
398 2 -88.051000 -519.809000 398.084000 1 1.000000 1 -3.000000
399 2 -94.963500 -522.664000 391.533000 1 1.000000 16 -3.000000
400 1 -102.827000 -480.882000 371.069000 1 1.000000 16 0.000000
401 3 -72.740500 -475.810000 388.147000 1 1.000000 16 0.000000
402 2 -91.022400 -436.786000 359.172000 1 1.000000 16 -3.000000
403 2 -82.277800 -434.553000 363.083000 1 1.000000 1 -3.000000
404 2 -73.695600 -433.482000 367.918000 1 1.000000 1 -3.000000
405 2 -65.178400 -433.659000 372.935000 1 1.000000 1 -3.000000
406 2 -56.226600 -433.570000 377.221000 1 1.000000 1 -3.000000
407 2 -49.309300 -437.331000 383.200000 1 1.000000 1 -3.000000
408 2 -42.016400 -442.854000 387.122000 1 1.000000 1 -3.000000
409 2 -33.827300 -448.210000 388.639000 1 1.000000 1 -3.000000
410 2 -24.697600 -451.475000 390.388000 1 1.000000 1 -3.000000
411 2 -15.867400 -455.661000 392.014000 1 1.000000 1 -3.000000
412 2 -6.562490 -458.908000 390.600000 1 1.000000 1 -3.000000
413 2 1.606480 -464.342000 389.278000 1 1.000000 1 -3.000000
414 2 9.048910 -470.512000 386.972000 1 1.000000 1 -3.000000
415 2 17.563200 -473.886000 383.122000 1 1.000000 1 -3.000000
416 2 26.564000 -475.956000 379.712000 1 1.000000 1 -3.000000
417 2 34.529800 -479.201000 374.971000 1 1.000000 1 -3.000000
418 2 42.977200 -481.070000 370.209000 1 1.000000 1 -3.000000
419 2 52.311100 -480.517000 366.858000 1 1.000000 1 -3.000000
420 2 61.041900 -479.234000 362.341000 1 1.000000 1 -3.000000
421 2 69.407700 -477.411000 357.515000 1 1.000000 1 -3.000000
422 2 78.194800 -474.052000 354.367000 1 1.000000 1 -3.000000
423 2 87.309000 -470.459000 353.127000 1 1.000000 1 -3.000000
424 2 95.871400 -465.744000 354.671000 1 1.000000 1 -3.000000
425 2 104.753000 -461.884000 356.606000 1 1.000000 1 -3.000000
426 2 114.021000 -459.450000 359.319000 1 1.000000 17 -3.000000
427 1 101.764000 -424.778000 388.858000 1 1.000000 17 0.000000
428 3 71.226300 -440.401000 381.682000 1 1.000000 17 0.000000
429 2 70.737300 -400.240000 414.601000 1 1.000000 17 -3.000000
430 2 62.180800 -404.628000 412.349000 1 1.000000 1 -3.000000
431 2 53.863400 -409.606000 410.238000 1 1.000000 1 -3.000000
432 2 46.011200 -415.650000 409.595000 1 1.000000 1 -3.000000
433 2 37.704000 -420.365000 407.053000 1 1.000000 1 -3.000000
434 2 32.455700 -425.919000 400.737000 1 1.000000 1 -3.000000
435 2 29.180400 -429.779000 392.267000 1 1.000000 1 -3.000000
436 2 26.661300 -433.205000 383.315000 1 1.000000 1 -3.000000
437 2 26.406900 -433.353000 373.397000 1 1.000000 1 -3.000000
438 2 27.768800 -433.255000 363.589000 1 1.000000 1 -3.000000
439 2 28.589000 -432.182000 353.823000 1 1.000000 1 -3.000000
440 2 29.827400 -430.453000 344.251000 1 1.000000 1 -3.000000
441 2 31.061200 -427.487000 334.874000 1 1.000000 1 -3.000000
442 2 32.032800 -422.513000 326.381000 1 1.000000 1 -3.000000
443 2 34.394700 -417.620000 318.061000 1 1.000000 1 -3.000000
444 2 35.726600 -412.761000 309.581000 1 1.000000 1 -3.000000
445 2 36.352700 -406.103000 302.210000 1 1.000000 1 -3.000000
446 2 35.608000 -398.844000 295.652000 1 1.000000 1 -3.000000
447 2 36.863500 -391.920000 288.669000 1 1.000000 1 -3.000000
448 2 37.153200 -385.825000 280.942000 1 1.000000 1 -3.000000
449 2 38.051300 -378.655000 274.089000 1 1.000000 1 -3.000000
450 2 41.869400 -371.908000 267.796000 1 1.000000 1 -3.000000
451 2 48.137500 -365.869000 263.018000 1 1.000000 1 -3.000000
452 2 53.062500 -361.795000 255.497000 1 1.000000 1 -3.000000
453 2 58.452900 -356.699000 248.823000 1 1.000000 18 -3.000000
454 1 91.448100 -344.383000 280.244000 1 1.000000 18 0.000000
455 3 74.685700 -370.664000 296.208000 1 1.000000 18 0.000000
456 2 112.541000 -346.702000 322.376000 1 1.000000 18 -3.000000
457 2 109.737000 -355.848000 325.098000 1 1.000000 1 -3.000000
458 2 106.914000 -365.102000 327.035000 1 1.000000 1 -3.000000
459 2 104.413000 -374.462000 329.065000 1 1.000000 1 -3.000000
460 2 102.746000 -384.205000 329.223000 1 1.000000 1 -3.000000
461 2 103.116000 -393.577000 332.332000 1 1.000000 1 -3.000000
462 2 104.222000 -403.115000 334.884000 1 1.000000 1 -3.000000
463 2 106.636000 -412.718000 334.217000 1 1.000000 1 -3.000000
464 2 109.397000 -422.220000 334.410000 1 1.000000 1 -3.000000
465 2 114.736000 -430.324000 332.731000 1 1.000000 1 -3.000000
466 2 120.926000 -437.800000 330.633000 1 1.000000 1 -3.000000
467 2 129.284000 -442.888000 329.126000 1 1.000000 1 -3.000000
468 2 138.199000 -447.227000 329.082000 1 1.000000 1 -3.000000
469 2 146.782000 -452.032000 330.330000 1 1.000000 1 -3.000000
470 2 154.282000 -458.256000 332.002000 1 1.000000 1 -3.000000
471 2 161.853000 -464.284000 333.830000 1 1.000000 1 -3.000000
472 2 167.852000 -472.060000 334.904000 1 1.000000 1 -3.000000
473 2 174.637000 -479.202000 335.860000 1 1.000000 1 -3.000000
474 2 181.723000 -485.905000 337.865000 1 1.000000 1 -3.000000