LAMMPS data file

4067 atoms
4067 ellipsoids
4516 bonds
8882 angles
0 dihedrals

3 atom types
5 bond types
12 angle types
0 dihedral types

-4631.092947 4670.465898 xlo xhi
-4631.092947 4670.465898 ylo yhi
-4631.092947 4670.465898 zlo zhi

Masses

1 196016.000000
2 1950.000000
3 19500.000000

Atoms

1 2 451.022000 -808.512000 174.508000 1 1.000000 1 -3.000000
2 2 448.888000 -805.635000 165.294000 1 1.000000 1 -3.000000
3 2 449.146000 -801.807000 156.121000 1 1.000000 1 -3.000000
4 2 451.324000 -799.375000 146.692000 1 1.000000 1 -3.000000
5 2 452.620000 -797.283000 137.094000 1 1.000000 1 -3.000000
6 2 455.615000 -795.523000 127.912000 1 1.000000 1 -3.000000
7 2 456.367000 -793.663000 118.185000 1 1.000000 1 -3.000000
8 2 457.048000 -791.306000 108.542000 1 1.000000 1 -3.000000
9 2 459.031000 -789.536000 98.984500 1 1.000000 1 -3.000000
10 2 461.049000 -788.798000 89.370700 1 1.000000 1 -3.000000
11 2 462.337000 -786.316000 79.900200 1 1.000000 1 -3.000000
12 2 465.433000 -784.131000 70.740900 1 1.000000 1 -3.000000
13 2 469.197000 -783.522000 61.606500 1 1.000000 1 -3.000000
14 2 471.174000 -781.945000 52.066900 1 1.000000 1 -3.000000
15 2 471.650000 -782.664000 42.157800 1 1.000000 1 -3.000000
16 2 469.647000 -783.808000 32.555700 1 1.000000 1 -3.000000
17 2 465.523000 -784.551000 23.641100 1 1.000000 1 -3.000000
18 2 459.802000 -783.458000 15.726100 1 1.000000 1 -3.000000
19 2 453.849000 -780.725000 8.337980 1 1.000000 1 -3.000000
20 2 448.168000 -777.713000 0.778329 1 1.000000 1 -3.000000
21 2 444.520000 -773.322000 -7.167440 1 1.000000 2 -3.000000
22 1 418.889000 -740.156000 14.473200 1 1.000000 2 0.000000
23 3 442.882000 -748.530000 38.465200 1 1.000000 2 0.000000
24 2 406.668000 -713.716000 51.593200 1 1.000000 2 -3.000000
25 2 415.491000 -711.464000 55.217200 1 1.000000 1 -3.000000
26 2 424.162000 -710.264000 59.713800 1 1.000000 1 -3.000000
27 2 433.043000 -711.891000 63.867900 1 1.000000 1 -3.000000
28 2 442.467000 -713.253000 66.810000 1 1.000000 1 -3.000000
29 2 451.450000 -716.794000 68.668700 1 1.000000 1 -3.000000
30 2 460.675000 -720.266000 70.301300 1 1.000000 1 -3.000000
31 2 468.860000 -723.999000 74.412800 1 1.000000 1 -3.000000
32 2 476.618000 -727.390000 79.646700 1 1.000000 1 -3.000000
33 2 483.524000 -731.363000 85.572100 1 1.000000 1 -3.000000
34 2 488.816000 -737.340000 91.370800 1 1.000000 1 -3.000000
35 2 495.422000 -739.861000 98.292100 1 1.000000 1 -3.000000
36 2 501.440000 -742.324000 105.784000 1 1.000000 1 -3.000000
37 2 505.397000 -745.271000 114.371000 1 1.000000 1 -3.000000
38 2 510.362000 -749.110000 122.012000 1 1.000000 1 -3.000000
39 2 517.229000 -750.394000 128.981000 1 1.000000 1 -3.000000
40 2 524.552000 -751.686000 135.529000 1 1.000000 1 -3.000000
41 2 532.358000 -754.222000 141.160000 1 1.000000 1 -3.000000
42 2 539.079000 -757.450000 147.692000 1 1.000000 1 -3.000000
43 2 545.627000 -759.719000 154.747000 1 1.000000 1 -3.000000
44 2 554.033000 -761.083000 159.752000 1 1.000000 1 -3.000000
45 2 562.748000 -760.833000 164.373000 1 1.000000 1 -3.000000
46 2 571.688000 -758.855000 168.235000 1 1.000000 1 -3.000000
47 2 580.956000 -756.859000 171.179000 1 1.000000 1 -3.000000
48 2 590.245000 -754.107000 173.369000 1 1.000000 3 -3.000000
49 1 603.404000 -726.823000 137.199000 1 1.000000 3 0.000000
50 3 568.470000 -725.583000 135.690000 1 1.000000 3 0.000000
51 2 595.118000 -700.570000 98.890900 1 1.000000 3 -3.000000
52 2 585.773000 -697.900000 101.066000 1 1.000000 1 -3.000000
53 2 576.350000 -696.032000 103.309000 1 1.000000 1 -3.000000
54 2 566.829000 -694.127000 104.692000 1 1.000000 1 -3.000000
55 2 557.359000 -692.836000 107.273000 1 1.000000 1 -3.000000
56 2 549.696000 -691.102000 113.163000 1 1.000000 1 -3.000000
57 2 544.575000 -689.085000 121.400000 1 1.000000 1 -3.000000
58 2 537.743000 -687.428000 128.296000 1 1.000000 1 -3.000000
59 2 528.814000 -687.049000 132.661000 1 1.000000 1 -3.000000
60 2 519.467000 -686.605000 135.844000 1 1.000000 1 -3.000000
61 2 510.446000 -683.499000 138.656000 1 1.000000 1 -3.000000
62 2 501.704000 -679.422000 140.732000 1 1.000000 1 -3.000000
63 2 493.780000 -674.214000 143.743000 1 1.000000 1 -3.000000
64 2 485.838000 -670.315000 148.091000 1 1.000000 1 -3.000000
65 2 477.549000 -666.577000 152.136000 1 1.000000 1 -3.000000
66 2 470.418000 -660.025000 154.371000 1 1.000000 1 -3.000000
67 2 462.538000 -655.240000 157.880000 1 1.000000 1 -3.000000
68 2 453.222000 -652.756000 160.158000 1 1.000000 1 -3.000000
69 2 443.541000 -652.164000 162.227000 1 1.000000 1 -3.000000
70 2 433.800000 -651.210000 163.137000 1 1.000000 1 -3.000000
71 2 423.924000 -650.757000 161.847000 1 1.000000 1 -3.000000
72 2 414.625000 -650.194000 158.551000 1 1.000000 1 -3.000000
73 2 406.488000 -651.675000 153.077000 1 1.000000 1 -3.000000
74 2 398.722000 -652.754000 146.967000 1 1.000000 1 -3.000000
75 2 391.386000 -652.644000 140.239000 1 1.000000 4 -3.000000
76 1 412.701000 -667.097000 100.732000 1 1.000000 4 0.000000
77 3 436.368000 -674.285000 125.522000 1 1.000000 4 0.000000
78 2 449.204000 -684.211000 76.244800 1 1.000000 4 -3.000000
79 2 454.750000 -686.745000 84.012100 1 1.000000 1 -3.000000
80 2 461.102000 -690.264000 90.823600 1 1.000000 1 -3.000000
81 2 464.129000 -696.255000 98.023800 1 1.000000 1 -3.000000
82 2 465.557000 -702.678000 105.400000 1 1.000000 1 -3.000000
83 2 465.893000 -707.294000 114.192000 1 1.000000 1 -3.000000
84 2 463.871000 -711.576000 122.921000 1 1.000000 1 -3.000000
85 2 459.739000 -715.186000 131.132000 1 1.000000 1 -3.000000
86 2 455.053000 -718.315000 139.174000 1 1.000000 1 -3.000000
87 2 450.904000 -721.353000 147.663000 1 1.000000 1 -3.000000
88 2 445.972000 -722.933000 156.057000 1 1.000000 1 -3.000000
89 2 444.176000 -721.556000 165.659000 1 1.000000 1 -3.000000
90 2 441.453000 -721.368000 175.229000 1 1.000000 1 -3.000000
91 2 439.350000 -721.057000 184.893000 1 1.000000 1 -3.000000
92 2 438.942000 -720.901000 194.774000 1 1.000000 1 -3.000000
93 2 436.183000 -721.391000 204.230000 1 1.000000 1 -3.000000
94 2 432.340000 -722.435000 213.314000 1 1.000000 1 -3.000000
95 2 428.299000 -723.352000 222.319000 1 1.000000 1 -3.000000
96 2 423.824000 -724.361000 231.145000 1 1.000000 1 -3.000000
97 2 419.779000 -724.148000 240.261000 1 1.000000 1 -3.000000
98 2 415.682000 -722.510000 249.179000 1 1.000000 1 -3.000000
99 2 410.779000 -717.984000 256.494000 1 1.000000 1 -3.000000
100 2 407.092000 -713.001000 264.192000 1 1.000000 1 -3.000000
101 2 403.158000 -706.129000 270.194000 1 1.000000 1 -3.000000
102 2 397.576000 -699.402000 274.895000 1 1.000000 5 -3.000000
103 1 405.419000 -658.810000 252.071000 1 1.000000 5 0.000000
104 3 409.711000 -682.955000 227.112000 1 1.000000 5 0.000000
105 2 418.389000 -633.375000 214.502000 1 1.000000 5 -3.000000
106 2 417.680000 -640.024000 207.116000 1 1.000000 1 -3.000000
107 2 415.338000 -646.271000 199.871000 1 1.000000 1 -3.000000
108 2 411.151000 -652.342000 193.367000 1 1.000000 1 -3.000000
109 2 408.651000 -660.387000 188.077000 1 1.000000 1 -3.000000
110 2 406.446000 -669.297000 184.442000 1 1.000000 1 -3.000000
111 2 403.562000 -678.677000 183.279000 1 1.000000 1 -3.000000
112 2 400.944000 -688.219000 183.802000 1 1.000000 1 -3.000000
113 2 398.029000 -697.690000 183.640000 1 1.000000 1 -3.000000
114 2 396.207000 -706.880000 186.703000 1 1.000000 1 -3.000000
115 2 394.523000 -715.412000 191.456000 1 1.000000 1 -3.000000
116 2 391.511000 -723.393000 196.465000 1 1.000000 1 -3.000000
117 2 388.065000 -729.335000 203.606000 1 1.000000 1 -3.000000
118 2 384.750000 -734.333000 211.555000 1 1.000000 1 -3.000000
119 2 381.416000 -738.764000 219.752000 1 1.000000 1 -3.000000
120 2 377.046000 -742.565000 227.802000 1 1.000000 1 -3.000000
121 2 370.908000 -744.506000 235.318000 1 1.000000 1 -3.000000
122 2 364.902000 -746.386000 242.908000 1 1.000000 1 -3.000000
123 2 360.817000 -746.165000 251.890000 1 1.000000 1 -3.000000
124 2 356.666000 -747.482000 260.763000 1 1.000000 1 -3.000000
125 2 352.546000 -748.681000 269.703000 1 1.000000 1 -3.000000
126 2 349.719000 -748.250000 279.227000 1 1.000000 1 -3.000000
127 2 344.462000 -747.642000 287.633000 1 1.000000 1 -3.000000
128 2 341.412000 -746.903000 297.059000 1 1.000000 1 -3.000000
129 2 340.016000 -745.983000 306.846000 1 1.000000 6 -3.000000
130 1 340.243000 -698.867000 304.435000 1 1.000000 6 0.000000
131 3 333.448000 -708.426000 271.526000 1 1.000000 6 0.000000
132 2 334.446000 -657.737000 282.090000 1 1.000000 6 -3.000000
133 2 329.862000 -660.953000 273.974000 1 1.000000 1 -3.000000
134 2 324.042000 -664.430000 266.738000 1 1.000000 1 -3.000000
135 2 319.741000 -667.869000 258.532000 1 1.000000 1 -3.000000
136 2 315.131000 -673.484000 251.793000 1 1.000000 1 -3.000000
137 2 310.336000 -679.373000 245.508000 1 1.000000 1 -3.000000
138 2 307.816000 -687.573000 240.496000 1 1.000000 1 -3.000000
139 2 306.731000 -696.695000 236.816000 1 1.000000 1 -3.000000
140 2 308.586000 -705.719000 232.995000 1 1.000000 1 -3.000000
141 2 309.967000 -715.450000 231.638000 1 1.000000 1 -3.000000
142 2 309.758000 -725.245000 230.328000 1 1.000000 1 -3.000000
143 2 309.555000 -734.924000 228.074000 1 1.000000 1 -3.000000
144 2 307.983000 -744.619000 226.532000 1 1.000000 1 -3.000000
145 2 306.176000 -754.273000 225.054000 1 1.000000 1 -3.000000
146 2 304.999000 -764.095000 224.462000 1 1.000000 1 -3.000000
147 2 301.467000 -773.320000 223.869000 1 1.000000 1 -3.000000
148 2 300.098000 -783.168000 223.366000 1 1.000000 1 -3.000000
149 2 298.491000 -792.819000 222.119000 1 1.000000 1 -3.000000
150 2 296.687000 -802.475000 221.732000 1 1.000000 1 -3.000000
151 2 296.543000 -812.049000 224.421000 1 1.000000 1 -3.000000
152 2 294.960000 -821.456000 227.071000 1 1.000000 1 -3.000000
153 2 293.991000 -830.549000 230.604000 1 1.000000 1 -3.000000
154 2 295.122000 -838.649000 236.265000 1 1.000000 1 -3.000000
155 2 294.367000 -847.026000 241.482000 1 1.000000 1 -3.000000
156 2 294.012000 -855.777000 246.029000 1 1.000000 7 -3.000000
157 1 316.794000 -840.501000 284.446000 1 1.000000 7 0.000000
158 3 305.731000 -810.941000 269.454000 1 1.000000 7 0.000000
159 2 335.027000 -806.914000 312.089000 1 1.000000 7 -3.000000
160 2 328.410000 -800.290000 308.831000 1 1.000000 1 -3.000000
161 2 322.049000 -793.005000 306.789000 1 1.000000 1 -3.000000
162 2 315.798000 -786.088000 303.629000 1 1.000000 1 -3.000000
163 2 309.492000 -780.433000 298.566000 1 1.000000 1 -3.000000
164 2 302.375000 -775.296000 293.926000 1 1.000000 1 -3.000000
165 2 294.754000 -771.190000 289.122000 1 1.000000 1 -3.000000
166 2 286.310000 -768.833000 284.607000 1 1.000000 1 -3.000000
167 2 277.664000 -766.117000 280.696000 1 1.000000 1 -3.000000
168 2 268.643000 -763.118000 277.806000 1 1.000000 1 -3.000000
169 2 259.504000 -759.219000 277.940000 1 1.000000 1 -3.000000
170 2 250.472000 -756.849000 274.627000 1 1.000000 1 -3.000000
171 2 241.888000 -758.956000 270.290000 1 1.000000 1 -3.000000
172 2 234.544000 -763.116000 265.092000 1 1.000000 1 -3.000000
173 2 228.513000 -767.647000 258.688000 1 1.000000 1 -3.000000
174 2 224.337000 -774.262000 252.690000 1 1.000000 1 -3.000000
175 2 221.642000 -781.750000 246.880000 1 1.000000 1 -3.000000
176 2 217.100000 -789.501000 242.744000 1 1.000000 1 -3.000000
177 2 210.725000 -796.955000 241.395000 1 1.000000 1 -3.000000
178 2 204.758000 -804.717000 240.173000 1 1.000000 1 -3.000000
179 2 199.667000 -813.167000 241.344000 1 1.000000 1 -3.000000
180 2 195.800000 -822.307000 241.212000 1 1.000000 1 -3.000000
181 2 189.355000 -829.901000 241.589000 1 1.000000 1 -3.000000
182 2 183.739000 -838.064000 241.542000 1 1.000000 1 -3.000000
183 2 179.611000 -847.032000 242.939000 1 1.000000 8 -3.000000
184 1 162.566000 -838.648000 286.179000 1 1.000000 8 0.000000
185 3 167.298000 -806.644000 273.024000 1 1.000000 8 0.000000
186 2 150.421000 -810.415000 321.942000 1 1.000000 8 -3.000000
187 2 148.735000 -802.704000 315.941000 1 1.000000 1 -3.000000
188 2 145.085000 -796.774000 308.873000 1 1.000000 1 -3.000000
189 2 139.806000 -791.216000 302.657000 1 1.000000 1 -3.000000
190 2 134.630000 -786.103000 295.972000 1 1.000000 1 -3.000000
191 2 130.668000 -780.713000 288.773000 1 1.000000 1 -3.000000
192 2 129.623000 -776.458000 279.899000 1 1.000000 1 -3.000000
193 2 128.958000 -772.571000 270.827000 1 1.000000 1 -3.000000
194 2 126.271000 -769.022000 262.004000 1 1.000000 1 -3.000000
195 2 123.763000 -766.426000 252.771000 1 1.000000 1 -3.000000
196 2 118.755000 -764.692000 244.384000 1 1.000000 1 -3.000000
197 2 115.397000 -762.421000 235.274000 1 1.000000 1 -3.000000
198 2 112.775000 -761.245000 225.735000 1 1.000000 1 -3.000000
199 2 111.295000 -760.472000 216.058000 1 1.000000 1 -3.000000
200 2 111.196000 -758.555000 206.403000 1 1.000000 1 -3.000000
201 2 112.176000 -755.533000 197.088000 1 1.000000 1 -3.000000
202 2 111.998000 -753.115000 187.452000 1 1.000000 1 -3.000000
203 2 109.451000 -749.392000 178.668000 1 1.000000 1 -3.000000
204 2 106.199000 -744.978000 170.354000 1 1.000000 1 -3.000000
205 2 103.458000 -740.090000 162.245000 1 1.000000 1 -3.000000
206 2 98.855400 -733.888000 156.132000 1 1.000000 1 -3.000000
207 2 92.866100 -727.785000 151.174000 1 1.000000 1 -3.000000
208 2 86.449600 -721.313000 147.303000 1 1.000000 1 -3.000000
209 2 78.703400 -715.853000 144.538000 1 1.000000 1 -3.000000
210 2 69.891700 -711.659000 142.598000 1 1.000000 9 -3.000000
211 1 80.091700 -677.782000 111.406000 1 1.000000 9 0.000000
212 3 111.444000 -685.968000 124.765000 1 1.000000 9 0.000000
213 2 109.729000 -649.724000 87.740000 1 1.000000 9 -3.000000
214 2 118.485000 -654.109000 89.200000 1 1.000000 1 -3.000000
215 2 126.689000 -658.129000 93.129500 1 1.000000 1 -3.000000
216 2 135.465000 -660.334000 97.090700 1 1.000000 1 -3.000000
217 2 142.910000 -665.604000 100.828000 1 1.000000 1 -3.000000
218 2 149.924000 -671.716000 104.219000 1 1.000000 1 -3.000000
219 2 158.631000 -675.314000 107.184000 1 1.000000 1 -3.000000
220 2 166.943000 -679.428000 110.778000 1 1.000000 1 -3.000000
221 2 176.057000 -682.887000 112.706000 1 1.000000 1 -3.000000
222 2 185.130000 -684.768000 116.244000 1 1.000000 1 -3.000000
223 2 194.740000 -685.194000 118.434000 1 1.000000 1 -3.000000
224 2 203.959000 -687.404000 121.218000 1 1.000000 1 -3.000000
225 2 213.175000 -687.070000 124.710000 1 1.000000 1 -3.000000
226 2 222.300000 -688.028000 128.484000 1 1.000000 1 -3.000000
227 2 231.382000 -687.671000 132.331000 1 1.000000 1 -3.000000
228 2 240.441000 -687.358000 136.307000 1 1.000000 1 -3.000000
229 2 249.472000 -688.171000 140.121000 1 1.000000 1 -3.000000
230 2 258.734000 -689.842000 143.289000 1 1.000000 1 -3.000000
231 2 268.067000 -692.346000 145.276000 1 1.000000 1 -3.000000
232 2 277.952000 -693.427000 145.410000 1 1.000000 1 -3.000000
233 2 287.809000 -692.547000 145.039000 1 1.000000 1 -3.000000
234 2 297.548000 -691.335000 144.607000 1 1.000000 1 -3.000000
235 2 307.349000 -691.256000 143.555000 1 1.000000 1 -3.000000
236 2 316.972000 -691.722000 141.132000 1 1.000000 1 -3.000000
237 2 326.320000 -689.399000 138.954000 1 1.000000 10 -3.000000
238 1 323.122000 -707.567000 95.575100 1 1.000000 10 0.000000
239 3 290.228000 -697.962000 102.729000 1 1.000000 10 0.000000
240 2 299.541000 -720.468000 56.804500 1 1.000000 10 -3.000000
241 2 293.915000 -712.462000 55.383100 1 1.000000 1 -3.000000
242 2 288.567000 -704.066000 55.333000 1 1.000000 1 -3.000000
243 2 283.331000 -695.927000 57.395200 1 1.000000 1 -3.000000
244 2 277.310000 -688.750000 60.562400 1 1.000000 1 -3.000000
245 2 271.250000 -683.788000 66.577700 1 1.000000 1 -3.000000
246 2 266.072000 -677.585000 72.226100 1 1.000000 1 -3.000000
247 2 259.959000 -671.465000 77.022200 1 1.000000 1 -3.000000
248 2 253.578000 -665.204000 81.464800 1 1.000000 1 -3.000000
249 2 247.085000 -659.158000 85.702700 1 1.000000 1 -3.000000
250 2 242.390000 -651.484000 89.699900 1 1.000000 1 -3.000000
251 2 238.888000 -642.739000 92.626800 1 1.000000 1 -3.000000
252 2 235.148000 -633.824000 95.111900 1 1.000000 1 -3.000000
253 2 232.801000 -624.436000 97.343800 1 1.000000 1 -3.000000
254 2 231.372000 -614.687000 98.133800 1 1.000000 1 -3.000000
255 2 231.324000 -604.954000 99.488300 1 1.000000 1 -3.000000
256 2 228.623000 -595.585000 100.994000 1 1.000000 1 -3.000000
257 2 225.101000 -586.693000 103.713000 1 1.000000 1 -3.000000
258 2 220.878000 -578.960000 108.216000 1 1.000000 1 -3.000000
259 2 217.962000 -570.415000 112.294000 1 1.000000 1 -3.000000
260 2 215.111000 -561.465000 115.471000 1 1.000000 1 -3.000000
261 2 213.451000 -551.956000 117.536000 1 1.000000 1 -3.000000
262 2 213.376000 -542.142000 118.535000 1 1.000000 1 -3.000000
263 2 215.123000 -532.384000 118.553000 1 1.000000 1 -3.000000
264 2 218.168000 -522.998000 119.190000 1 1.000000 11 -3.000000
265 1 234.886000 -515.643000 75.696900 1 1.000000 11 0.000000
266 3 220.793000 -547.697000 73.542000 1 1.000000 11 0.000000
267 2 244.233000 -528.626000 31.272600 1 1.000000 11 -3.000000
268 2 241.733000 -537.568000 34.640900 1 1.000000 1 -3.000000
269 2 240.221000 -546.921000 37.373200 1 1.000000 1 -3.000000
270 2 237.560000 -555.378000 41.700300 1 1.000000 1 -3.000000
271 2 232.541000 -563.103000 45.296200 1 1.000000 1 -3.000000
272 2 226.890000 -571.175000 46.258500 1 1.000000 1 -3.000000
273 2 222.139000 -579.807000 45.817500 1 1.000000 1 -3.000000
274 2 218.525000 -589.006000 46.578400 1 1.000000 1 -3.000000
275 2 214.446000 -598.040000 45.501300 1 1.000000 1 -3.000000
276 2 210.649000 -606.922000 43.548100 1 1.000000 1 -3.000000
277 2 207.456000 -616.200000 42.101500 1 1.000000 1 -3.000000
278 2 203.365000 -624.929000 40.354900 1 1.000000 1 -3.000000
279 2 198.713000 -633.673000 39.527300 1 1.000000 1 -3.000000
280 2 195.201000 -642.879000 39.944300 1 1.000000 1 -3.000000
281 2 193.275000 -652.457000 40.497400 1 1.000000 1 -3.000000
282 2 190.326000 -661.812000 41.401300 1 1.000000 1 -3.000000
283 2 188.582000 -671.591000 42.321400 1 1.000000 1 -3.000000
284 2 188.069000 -681.160000 44.553600 1 1.000000 1 -3.000000
285 2 187.561000 -690.963000 46.071100 1 1.000000 1 -3.000000
286 2 186.785000 -700.761000 47.014100 1 1.000000 1 -3.000000
287 2 184.665000 -710.458000 47.093400 1 1.000000 1 -3.000000
288 2 181.783000 -719.890000 46.878800 1 1.000000 1 -3.000000
289 2 178.430000 -729.053000 45.622500 1 1.000000 1 -3.000000
290 2 175.038000 -738.392000 45.668300 1 1.000000 1 -3.000000
291 2 171.188000 -747.035000 48.638100 1 1.000000 12 -3.000000
292 1 127.167000 -732.877000 57.994600 1 1.000000 12 0.000000
293 3 142.467000 -703.779000 45.727800 1 1.000000 12 0.000000
294 2 92.644700 -700.736000 59.679500 1 1.000000 12 -3.000000
295 2 96.171300 -693.317000 54.148200 1 1.000000 1 -3.000000
296 2 100.116000 -686.699000 47.992800 1 1.000000 1 -3.000000
297 2 104.583000 -678.722000 44.172300 1 1.000000 1 -3.000000
298 2 111.458000 -672.162000 41.575300 1 1.000000 1 -3.000000
299 2 119.273000 -666.779000 38.686400 1 1.000000 1 -3.000000
300 2 127.786000 -662.867000 35.421900 1 1.000000 1 -3.000000
301 2 136.487000 -661.363000 30.840300 1 1.000000 1 -3.000000
302 2 145.362000 -660.364000 26.613700 1 1.000000 1 -3.000000
303 2 154.455000 -658.033000 23.311800 1 1.000000 1 -3.000000
304 2 163.646000 -656.507000 19.643700 1 1.000000 1 -3.000000
305 2 172.690000 -655.348000 15.788200 1 1.000000 1 -3.000000
306 2 181.509000 -652.045000 12.733000 1 1.000000 1 -3.000000
307 2 190.445000 -648.890000 9.982390 1 1.000000 1 -3.000000
308 2 199.731000 -645.719000 7.982780 1 1.000000 1 -3.000000
309 2 208.040000 -641.988000 4.044770 1 1.000000 1 -3.000000
310 2 216.360000 -639.126000 -0.530410 1 1.000000 1 -3.000000
311 2 223.554000 -633.854000 -4.803660 1 1.000000 1 -3.000000
312 2 231.176000 -628.785000 -8.641720 1 1.000000 1 -3.000000
313 2 238.366000 -623.946000 -13.476700 1 1.000000 1 -3.000000
314 2 246.056000 -620.231000 -18.563100 1 1.000000 1 -3.000000
315 2 253.516000 -615.741000 -23.212300 1 1.000000 1 -3.000000
316 2 260.462000 -609.299000 -26.246200 1 1.000000 1 -3.000000
317 2 267.170000 -602.438000 -28.283600 1 1.000000 1 -3.000000
318 2 274.781000 -596.512000 -30.448600 1 1.000000 13 -3.000000
319 1 254.437000 -558.395000 -11.472200 1 1.000000 13 0.000000
320 3 239.070000 -584.833000 5.545350 1 1.000000 13 0.000000
321 2 226.437000 -536.566000 19.602000 1 1.000000 13 -3.000000
322 2 225.725000 -545.190000 24.270800 1 1.000000 1 -3.000000
323 2 224.343000 -554.051000 28.546400 1 1.000000 1 -3.000000
324 2 220.575000 -562.663000 31.601000 1 1.000000 1 -3.000000
325 2 215.146000 -570.380000 34.474000 1 1.000000 1 -3.000000
326 2 209.635000 -576.631000 39.754200 1 1.000000 1 -3.000000
327 2 204.747000 -581.775000 46.734200 1 1.000000 1 -3.000000
328 2 196.836000 -585.164000 51.795300 1 1.000000 1 -3.000000
329 2 187.322000 -587.342000 53.512600 1 1.000000 1 -3.000000
330 2 177.664000 -587.179000 55.584000 1 1.000000 1 -3.000000
331 2 167.935000 -586.404000 54.539900 1 1.000000 1 -3.000000
332 2 158.015000 -585.446000 53.736900 1 1.000000 1 -3.000000
333 2 148.340000 -583.459000 53.297900 1 1.000000 1 -3.000000
334 2 138.982000 -580.204000 52.916200 1 1.000000 1 -3.000000
335 2 129.654000 -577.803000 50.606400 1 1.000000 1 -3.000000
336 2 120.889000 -574.158000 47.746400 1 1.000000 1 -3.000000
337 2 112.446000 -570.111000 44.448000 1 1.000000 1 -3.000000
338 2 104.893000 -566.346000 39.202400 1 1.000000 1 -3.000000
339 2 97.869500 -561.616000 34.149300 1 1.000000 1 -3.000000
340 2 92.426200 -555.325000 28.663900 1 1.000000 1 -3.000000
341 2 85.934400 -550.385000 23.059700 1 1.000000 1 -3.000000
342 2 78.479300 -547.214000 17.420800 1 1.000000 1 -3.000000
343 2 71.884200 -545.418000 10.265100 1 1.000000 1 -3.000000
344 2 65.539800 -543.374000 2.992110 1 1.000000 1 -3.000000
345 2 58.348800 -542.311000 -3.578290 1 1.000000 14 -3.000000
346 1 48.958100 -587.564000 -12.875900 1 1.000000 14 0.000000
347 3 62.095100 -588.763000 19.503900 1 1.000000 14 0.000000
348 2 47.241200 -633.480000 -2.196940 1 1.000000 14 -3.000000
349 2 48.082000 -630.832000 7.190290 1 1.000000 1 -3.000000
350 2 48.599800 -630.747000 17.082900 1 1.000000 1 -3.000000
351 2 49.392700 -629.613000 26.884500 1 1.000000 1 -3.000000
352 2 50.498200 -626.691000 36.322100 1 1.000000 1 -3.000000
353 2 53.169200 -622.474000 44.860300 1 1.000000 1 -3.000000
354 2 56.415400 -620.472000 53.977900 1 1.000000 1 -3.000000
355 2 58.853500 -619.633000 63.509800 1 1.000000 1 -3.000000
356 2 61.053900 -617.463000 72.945600 1 1.000000 1 -3.000000
357 2 63.852400 -614.788000 82.057100 1 1.000000 1 -3.000000
358 2 65.391400 -610.181000 90.720600 1 1.000000 1 -3.000000
359 2 64.465800 -605.350000 99.326100 1 1.000000 1 -3.000000
360 2 63.383700 -603.220000 108.885000 1 1.000000 1 -3.000000
361 2 61.351700 -601.088000 118.271000 1 1.000000 1 -3.000000
362 2 59.283300 -599.899000 127.873000 1 1.000000 1 -3.000000
363 2 56.593800 -601.045000 137.306000 1 1.000000 1 -3.000000
364 2 51.022100 -601.411000 145.499000 1 1.000000 1 -3.000000
365 2 45.011900 -601.209000 153.405000 1 1.000000 1 -3.000000
366 2 37.793000 -601.353000 160.211000 1 1.000000 1 -3.000000
367 2 29.700100 -601.508000 165.952000 1 1.000000 1 -3.000000
368 2 22.578000 -599.025000 172.374000 1 1.000000 1 -3.000000
369 2 14.055900 -596.525000 176.592000 1 1.000000 1 -3.000000
370 2 5.357300 -592.998000 179.669000 1 1.000000 1 -3.000000
371 2 -3.629790 -590.391000 182.950000 1 1.000000 1 -3.000000
372 2 -12.699200 -587.236000 185.379000 1 1.000000 15 -3.000000
373 1 -29.167000 -586.416000 141.168000 1 1.000000 15 0.000000
374 3 -6.306310 -612.872000 140.637000 1 1.000000 15 0.000000
375 2 -33.615000 -603.675000 97.491400 1 1.000000 15 -3.000000
376 2 -29.988800 -612.865000 98.701500 1 1.000000 1 -3.000000
377 2 -26.174500 -622.052000 99.472400 1 1.000000 1 -3.000000
378 2 -21.155900 -630.491000 100.541000 1 1.000000 1 -3.000000
379 2 -17.515400 -639.518000 102.505000 1 1.000000 1 -3.000000
380 2 -12.355800 -645.125000 108.819000 1 1.000000 1 -3.000000
381 2 -6.377170 -649.961000 114.971000 1 1.000000 1 -3.000000
382 2 -0.686065 -654.761000 121.529000 1 1.000000 1 -3.000000
383 2 6.095820 -660.601000 125.669000 1 1.000000 1 -3.000000
384 2 13.372400 -665.853000 129.919000 1 1.000000 1 -3.000000
385 2 20.836000 -669.160000 135.372000 1 1.000000 1 -3.000000
386 2 27.936600 -673.464000 140.815000 1 1.000000 1 -3.000000
387 2 36.403300 -676.444000 144.927000 1 1.000000 1 -3.000000
388 2 45.005200 -679.079000 149.035000 1 1.000000 1 -3.000000
389 2 53.996000 -681.556000 152.233000 1 1.000000 1 -3.000000
390 2 62.696400 -685.686000 154.738000 1 1.000000 1 -3.000000
391 2 71.343800 -690.076000 156.859000 1 1.000000 1 -3.000000
392 2 79.543700 -694.924000 159.832000 1 1.000000 1 -3.000000
393 2 88.026000 -699.329000 162.405000 1 1.000000 1 -3.000000
394 2 97.060700 -702.869000 164.283000 1 1.000000 1 -3.000000
395 2 106.554000 -705.545000 165.034000 1 1.000000 1 -3.000000
396 2 115.886000 -708.194000 163.083000 1 1.000000 1 -3.000000
397 2 124.445000 -712.443000 160.535000 1 1.000000 1 -3.000000
398 2 131.365000 -718.608000 157.139000 1 1.000000 1 -3.000000
399 2 138.883000 -725.037000 157.968000 1 1.000000 16 -3.000000
400 1 119.295000 -763.958000 139.889000 1 1.000000 16 0.000000
401 3 92.196100 -741.934000 142.770000 1 1.000000 16 0.000000
402 2 82.915500 -789.694000 124.511000 1 1.000000 16 -3.000000
403 2 75.025200 -786.951000 129.869000 1 1.000000 1 -3.000000
404 2 68.609000 -783.379000 136.434000 1 1.000000 1 -3.000000
405 2 62.676900 -779.797000 143.526000 1 1.000000 1 -3.000000
406 2 55.313800 -778.851000 150.089000 1 1.000000 1 -3.000000
407 2 47.429900 -777.648000 156.004000 1 1.000000 1 -3.000000
408 2 40.257600 -777.372000 162.755000 1 1.000000 1 -3.000000
409 2 31.689100 -777.250000 167.725000 1 1.000000 1 -3.000000
410 2 22.905300 -776.532000 172.096000 1 1.000000 1 -3.000000
411 2 15.171800 -778.348000 178.118000 1 1.000000 1 -3.000000
412 2 6.851700 -780.279000 183.012000 1 1.000000 1 -3.000000
413 2 -1.334980 -782.896000 188.006000 1 1.000000 1 -3.000000
414 2 -9.280190 -784.473000 193.671000 1 1.000000 1 -3.000000
415 2 -17.324900 -787.434000 198.578000 1 1.000000 1 -3.000000
416 2 -25.230900 -792.261000 202.205000 1 1.000000 1 -3.000000
417 2 -32.539600 -797.635000 206.149000 1 1.000000 1 -3.000000
418 2 -38.977500 -804.314000 209.481000 1 1.000000 1 -3.000000
419 2 -44.033400 -811.258000 214.363000 1 1.000000 1 -3.000000
420 2 -49.770000 -816.785000 220.209000 1 1.000000 1 -3.000000
421 2 -56.329900 -823.447000 223.539000 1 1.000000 1 -3.000000
422 2 -63.976500 -829.503000 225.072000 1 1.000000 1 -3.000000
423 2 -71.654000 -835.462000 227.088000 1 1.000000 1 -3.000000
424 2 -80.263200 -840.326000 228.343000 1 1.000000 1 -3.000000
425 2 -88.970500 -845.014000 228.665000 1 1.000000 1 -3.000000
426 2 -98.548100 -847.531000 229.580000 1 1.000000 17 -3.000000
427 1 -101.559000 -846.082000 276.680000 1 1.000000 17 0.000000
428 3 -73.038000 -826.958000 269.829000 1 1.000000 17 0.000000
429 2 -87.079300 -832.590000 319.500000 1 1.000000 17 -3.000000
430 2 -77.829800 -829.463000 317.839000 1 1.000000 1 -3.000000
431 2 -68.420400 -827.728000 315.118000 1 1.000000 1 -3.000000
432 2 -58.954000 -830.357000 315.244000 1 1.000000 1 -3.000000
433 2 -49.219800 -832.134000 315.463000 1 1.000000 1 -3.000000
434 2 -40.217300 -835.952000 313.866000 1 1.000000 1 -3.000000
435 2 -31.519500 -840.512000 312.797000 1 1.000000 1 -3.000000
436 2 -23.853700 -846.748000 313.467000 1 1.000000 1 -3.000000
437 2 -15.200000 -851.207000 315.302000 1 1.000000 1 -3.000000
438 2 -5.763260 -854.191000 315.865000 1 1.000000 1 -3.000000
439 2 3.698920 -856.787000 316.582000 1 1.000000 1 -3.000000
440 2 13.247500 -859.251000 317.956000 1 1.000000 1 -3.000000
441 2 22.608800 -862.510000 317.303000 1 1.000000 1 -3.000000
442 2 31.422800 -867.048000 316.473000 1 1.000000 1 -3.000000
443 2 40.208500 -871.557000 317.308000 1 1.000000 1 -3.000000
444 2 48.478000 -876.498000 319.352000 1 1.000000 1 -3.000000
445 2 55.853300 -882.154000 322.643000 1 1.000000 1 -3.000000
446 2 63.061800 -887.946000 326.176000 1 1.000000 1 -3.000000
447 2 70.228600 -893.966000 329.209000 1 1.000000 1 -3.000000
448 2 78.003300 -899.125000 332.647000 1 1.000000 1 -3.000000
449 2 86.314500 -904.015000 335.142000 1 1.000000 1 -3.000000
450 2 94.528100 -909.451000 335.782000 1 1.000000 1 -3.000000
451 2 103.229000 -913.804000 334.150000 1 1.000000 1 -3.000000
452 2 111.332000 -919.256000 332.626000 1 1.000000 1 -3.000000
453 2 118.247000 -926.181000 330.878000 1 1.000000 18 -3.000000
454 1 105.254000 -949.026000 291.656000 1 1.000000 18 0.000000
455 3 80.893200 -924.015000 294.970000 1 1.000000 18 0.000000
456 2 78.654800 -954.877000 253.134000 1 1.000000 18 -3.000000
457 2 72.122000 -947.675000 254.623000 1 1.000000 1 -3.000000
458 2 65.784500 -940.055000 254.849000 1 1.000000 1 -3.000000
459 2 58.594700 -933.351000 256.366000 1 1.000000 1 -3.000000
460 2 51.933600 -927.280000 260.609000 1 1.000000 1 -3.000000
461 2 44.052500 -922.343000 264.093000 1 1.000000 1 -3.000000
462 2 35.372000 -918.213000 266.217000 1 1.000000 1 -3.000000
463 2 26.023700 -916.532000 269.040000 1 1.000000 1 -3.000000
464 2 16.783500 -917.148000 272.597000 1 1.000000 1 -3.000000
465 2 7.622300 -915.785000 276.243000 1 1.000000 1 -3.000000
466 2 -1.202570 -911.517000 277.872000 1 1.000000 1 -3.000000
467 2 -10.830200 -909.343000 276.765000 1 1.000000 1 -3.000000
468 2 -20.411100 -911.427000 275.400000 1 1.000000 1 -3.000000
469 2 -29.792800 -914.577000 275.074000 1 1.000000 1 -3.000000
470 2 -39.412200 -916.806000 274.998000 1 1.000000 1 -3.000000
471 2 -49.188500 -918.642000 275.474000 1 1.000000 1 -3.000000
472 2 -58.087200 -922.963000 275.726000 1 1.000000 1 -3.000000
473 2 -66.835700 -927.403000 275.076000 1 1.000000 1 -3.000000
474 2 -75.329700 -932.405000 275.873000 1 1.000000 1 -3.000000
475 2 -82.875500 -938.372000 277.897000 1 1.000000 1 -3.000000
476 2 -89.625100 -945.669000 278.237000 1 1.000000 1 -3.000000
477 2 -94.496700 -954.293000 277.387000 1 1.000000 1 -3.000000