LAMMPS data file

4067 atoms
4067 ellipsoids
4516 bonds
8882 angles
0 dihedrals

3 atom types
5 bond types
12 angle types
0 dihedral types

-4631.092947 4670.465898 xlo xhi
-4631.092947 4670.465898 ylo yhi
-4631.092947 4670.465898 zlo zhi

Masses

1 196016.000000
2 1950.000000
3 19500.000000

Atoms

1 2 143.465000 -1308.360000 -279.517000 1 1.000000 1 -3.000000
2 2 150.612000 -1309.760000 -272.759000 1 1.000000 1 -3.000000
3 2 156.590000 -1310.970000 -265.073000 1 1.000000 1 -3.000000
4 2 162.054000 -1312.540000 -256.947000 1 1.000000 1 -3.000000
5 2 167.851000 -1313.340000 -248.952000 1 1.000000 1 -3.000000
6 2 173.372000 -1311.180000 -240.982000 1 1.000000 1 -3.000000
7 2 179.568000 -1311.040000 -233.280000 1 1.000000 1 -3.000000
8 2 183.807000 -1310.610000 -224.330000 1 1.000000 1 -3.000000
9 2 187.934000 -1311.330000 -215.362000 1 1.000000 1 -3.000000
10 2 193.342000 -1311.410000 -207.096000 1 1.000000 1 -3.000000
11 2 197.425000 -1313.270000 -198.347000 1 1.000000 1 -3.000000
12 2 199.532000 -1314.460000 -188.841000 1 1.000000 1 -3.000000
13 2 201.581000 -1314.820000 -179.100000 1 1.000000 1 -3.000000
14 2 203.725000 -1315.870000 -169.477000 1 1.000000 1 -3.000000
15 2 205.754000 -1315.440000 -159.742000 1 1.000000 1 -3.000000
16 2 205.753000 -1315.770000 -149.870000 1 1.000000 1 -3.000000
17 2 202.897000 -1314.940000 -140.437000 1 1.000000 1 -3.000000
18 2 197.833000 -1313.440000 -132.024000 1 1.000000 1 -3.000000
19 2 190.891000 -1312.340000 -124.949000 1 1.000000 1 -3.000000
20 2 183.300000 -1313.710000 -118.782000 1 1.000000 1 -3.000000
21 2 177.283000 -1316.410000 -111.400000 1 1.000000 2 -3.000000
22 1 146.347000 -1345.100000 -132.427000 1 1.000000 2 0.000000
23 3 174.052000 -1345.910000 -153.919000 1 1.000000 2 0.000000
24 2 132.253000 -1373.990000 -166.967000 1 1.000000 2 -3.000000
25 2 141.408000 -1376.940000 -168.959000 1 1.000000 1 -3.000000
26 2 150.466000 -1380.380000 -171.083000 1 1.000000 1 -3.000000
27 2 159.232000 -1383.160000 -174.850000 1 1.000000 1 -3.000000
28 2 168.213000 -1382.400000 -178.718000 1 1.000000 1 -3.000000
29 2 177.708000 -1380.270000 -180.880000 1 1.000000 1 -3.000000
30 2 187.398000 -1378.200000 -181.583000 1 1.000000 1 -3.000000
31 2 196.852000 -1375.710000 -179.910000 1 1.000000 1 -3.000000
32 2 206.639000 -1375.320000 -178.364000 1 1.000000 1 -3.000000
33 2 216.273000 -1373.340000 -177.210000 1 1.000000 1 -3.000000
34 2 225.172000 -1371.590000 -173.160000 1 1.000000 1 -3.000000
35 2 232.585000 -1367.640000 -167.831000 1 1.000000 1 -3.000000
36 2 240.891000 -1364.020000 -164.012000 1 1.000000 1 -3.000000
37 2 248.775000 -1359.710000 -160.015000 1 1.000000 1 -3.000000
38 2 257.283000 -1354.800000 -158.320000 1 1.000000 1 -3.000000
39 2 264.849000 -1348.930000 -155.945000 1 1.000000 1 -3.000000
40 2 273.400000 -1345.820000 -152.102000 1 1.000000 1 -3.000000
41 2 282.972000 -1344.630000 -150.032000 1 1.000000 1 -3.000000
42 2 292.552000 -1345.000000 -147.552000 1 1.000000 1 -3.000000
43 2 302.153000 -1346.400000 -145.164000 1 1.000000 1 -3.000000
44 2 311.810000 -1346.560000 -142.690000 1 1.000000 1 -3.000000
45 2 321.115000 -1344.220000 -140.491000 1 1.000000 1 -3.000000
46 2 330.368000 -1341.480000 -138.209000 1 1.000000 1 -3.000000
47 2 339.513000 -1337.980000 -137.155000 1 1.000000 1 -3.000000
48 2 348.607000 -1334.470000 -135.725000 1 1.000000 3 -3.000000
49 1 347.152000 -1295.520000 -162.314000 1 1.000000 3 0.000000
50 3 313.685000 -1305.910000 -161.353000 1 1.000000 3 0.000000
51 2 325.031000 -1262.920000 -188.253000 1 1.000000 3 -3.000000
52 2 315.697000 -1264.260000 -185.289000 1 1.000000 1 -3.000000
53 2 306.148000 -1266.170000 -183.497000 1 1.000000 1 -3.000000
54 2 297.279000 -1267.430000 -179.318000 1 1.000000 1 -3.000000
55 2 288.771000 -1270.850000 -175.579000 1 1.000000 1 -3.000000
56 2 281.817000 -1275.290000 -170.126000 1 1.000000 1 -3.000000
57 2 276.149000 -1280.520000 -163.885000 1 1.000000 1 -3.000000
58 2 272.674000 -1287.940000 -158.390000 1 1.000000 1 -3.000000
59 2 268.943000 -1294.380000 -151.855000 1 1.000000 1 -3.000000
60 2 265.015000 -1299.070000 -144.056000 1 1.000000 1 -3.000000
61 2 262.081000 -1305.120000 -136.757000 1 1.000000 1 -3.000000
62 2 260.130000 -1312.530000 -130.416000 1 1.000000 1 -3.000000
63 2 259.393000 -1319.410000 -123.361000 1 1.000000 1 -3.000000
64 2 257.806000 -1325.050000 -115.417000 1 1.000000 1 -3.000000
65 2 256.399000 -1329.920000 -106.810000 1 1.000000 1 -3.000000
66 2 254.020000 -1334.550000 -98.431500 1 1.000000 1 -3.000000
67 2 253.620000 -1339.060000 -89.633400 1 1.000000 1 -3.000000
68 2 253.045000 -1343.280000 -80.754500 1 1.000000 1 -3.000000
69 2 253.757000 -1347.920000 -71.988000 1 1.000000 1 -3.000000
70 2 256.696000 -1354.170000 -64.805700 1 1.000000 1 -3.000000
71 2 256.795000 -1360.620000 -57.314500 1 1.000000 1 -3.000000
72 2 259.428000 -1368.060000 -51.353800 1 1.000000 1 -3.000000
73 2 261.349000 -1374.250000 -43.914900 1 1.000000 1 -3.000000
74 2 262.451000 -1379.450000 -35.567200 1 1.000000 1 -3.000000
75 2 263.386000 -1386.420000 -28.553300 1 1.000000 4 -3.000000
76 1 308.121000 -1373.240000 -21.052700 1 1.000000 4 0.000000
77 3 293.710000 -1344.940000 -35.747800 1 1.000000 4 0.000000
78 2 344.640000 -1343.740000 -25.500400 1 1.000000 4 -3.000000
79 2 339.189000 -1335.510000 -26.096900 1 1.000000 1 -3.000000
80 2 334.501000 -1326.910000 -27.096600 1 1.000000 1 -3.000000
81 2 329.856000 -1318.670000 -30.051700 1 1.000000 1 -3.000000
82 2 322.401000 -1312.640000 -32.711800 1 1.000000 1 -3.000000
83 2 314.803000 -1307.490000 -36.318100 1 1.000000 1 -3.000000
84 2 307.141000 -1302.110000 -39.498000 1 1.000000 1 -3.000000
85 2 299.819000 -1296.450000 -42.962000 1 1.000000 1 -3.000000
86 2 294.098000 -1290.180000 -47.996600 1 1.000000 1 -3.000000
87 2 287.426000 -1284.900000 -53.025300 1 1.000000 1 -3.000000
88 2 281.020000 -1278.320000 -56.771900 1 1.000000 1 -3.000000
89 2 273.431000 -1273.930000 -61.238200 1 1.000000 1 -3.000000
90 2 265.640000 -1269.370000 -65.498600 1 1.000000 1 -3.000000
91 2 258.156000 -1265.100000 -70.304400 1 1.000000 1 -3.000000
92 2 252.568000 -1258.980000 -75.827900 1 1.000000 1 -3.000000
93 2 248.865000 -1251.170000 -80.606900 1 1.000000 1 -3.000000
94 2 243.661000 -1244.620000 -85.853400 1 1.000000 1 -3.000000
95 2 240.520000 -1238.880000 -93.249000 1 1.000000 1 -3.000000
96 2 238.583000 -1232.280000 -100.408000 1 1.000000 1 -3.000000
97 2 236.085000 -1225.160000 -106.856000 1 1.000000 1 -3.000000
98 2 234.699000 -1219.170000 -114.636000 1 1.000000 1 -3.000000
99 2 233.693000 -1212.250000 -121.650000 1 1.000000 1 -3.000000
100 2 232.962000 -1205.350000 -128.631000 1 1.000000 1 -3.000000
101 2 229.928000 -1197.980000 -134.370000 1 1.000000 1 -3.000000
102 2 225.903000 -1191.540000 -140.749000 1 1.000000 5 -3.000000
103 1 262.559000 -1168.840000 -159.873000 1 1.000000 5 0.000000
104 3 270.358000 -1169.180000 -125.752000 1 1.000000 5 0.000000
105 2 304.807000 -1147.930000 -158.158000 1 1.000000 5 -3.000000
106 2 309.444000 -1152.440000 -150.690000 1 1.000000 1 -3.000000
107 2 312.841000 -1156.800000 -142.478000 1 1.000000 1 -3.000000
108 2 314.533000 -1162.090000 -134.332000 1 1.000000 1 -3.000000
109 2 314.899000 -1166.200000 -125.369000 1 1.000000 1 -3.000000
110 2 312.978000 -1168.750000 -115.942000 1 1.000000 1 -3.000000
111 2 310.143000 -1170.420000 -106.646000 1 1.000000 1 -3.000000
112 2 306.006000 -1170.580000 -97.742900 1 1.000000 1 -3.000000
113 2 304.572000 -1170.350000 -87.927900 1 1.000000 1 -3.000000
114 2 301.916000 -1168.070000 -78.661700 1 1.000000 1 -3.000000
115 2 298.914000 -1164.730000 -69.870800 1 1.000000 1 -3.000000
116 2 295.773000 -1158.190000 -63.077200 1 1.000000 1 -3.000000
117 2 292.916000 -1150.370000 -57.653500 1 1.000000 1 -3.000000
118 2 288.897000 -1143.140000 -52.250800 1 1.000000 1 -3.000000
119 2 282.757000 -1136.830000 -47.759700 1 1.000000 1 -3.000000
120 2 276.773000 -1130.190000 -43.605300 1 1.000000 1 -3.000000
121 2 269.503000 -1124.150000 -40.645000 1 1.000000 1 -3.000000
122 2 261.742000 -1118.270000 -38.855900 1 1.000000 1 -3.000000
123 2 252.722000 -1114.330000 -39.846700 1 1.000000 1 -3.000000
124 2 243.684000 -1110.420000 -40.970200 1 1.000000 1 -3.000000
125 2 234.565000 -1107.310000 -43.506600 1 1.000000 1 -3.000000
126 2 225.691000 -1105.230000 -47.709900 1 1.000000 1 -3.000000
127 2 217.624000 -1102.010000 -52.296100 1 1.000000 1 -3.000000
128 2 208.588000 -1099.560000 -55.671800 1 1.000000 1 -3.000000
129 2 199.956000 -1096.040000 -58.947200 1 1.000000 6 -3.000000
130 1 198.482000 -1128.460000 -93.242100 1 1.000000 6 0.000000
131 3 228.654000 -1135.540000 -76.950200 1 1.000000 6 0.000000
132 2 217.242000 -1162.780000 -119.619000 1 1.000000 6 -3.000000
133 2 224.856000 -1164.180000 -113.515000 1 1.000000 1 -3.000000
134 2 231.589000 -1166.560000 -106.639000 1 1.000000 1 -3.000000
135 2 237.735000 -1170.710000 -100.085000 1 1.000000 1 -3.000000
136 2 244.246000 -1173.460000 -93.185700 1 1.000000 1 -3.000000
137 2 249.814000 -1174.460000 -85.050600 1 1.000000 1 -3.000000
138 2 253.021000 -1171.790000 -76.044500 1 1.000000 1 -3.000000
139 2 255.192000 -1169.460000 -66.659300 1 1.000000 1 -3.000000
140 2 255.750000 -1165.780000 -57.574000 1 1.000000 1 -3.000000
141 2 254.916000 -1162.260000 -48.326000 1 1.000000 1 -3.000000
142 2 254.580000 -1157.850000 -39.424700 1 1.000000 1 -3.000000
143 2 256.805000 -1154.100000 -30.553900 1 1.000000 1 -3.000000
144 2 259.249000 -1152.460000 -21.134300 1 1.000000 1 -3.000000
145 2 263.361000 -1152.670000 -12.111100 1 1.000000 1 -3.000000
146 2 268.928000 -1151.920000 -4.021210 1 1.000000 1 -3.000000
147 2 274.534000 -1151.170000 4.130030 1 1.000000 1 -3.000000
148 2 280.500000 -1153.080000 11.776000 1 1.000000 1 -3.000000
149 2 285.090000 -1151.620000 20.419700 1 1.000000 1 -3.000000
150 2 288.379000 -1148.800000 29.277600 1 1.000000 1 -3.000000
151 2 293.129000 -1148.330000 37.947700 1 1.000000 1 -3.000000
152 2 297.493000 -1147.330000 46.711000 1 1.000000 1 -3.000000
153 2 302.164000 -1143.730000 54.586200 1 1.000000 1 -3.000000
154 2 306.455000 -1139.190000 62.307800 1 1.000000 1 -3.000000
155 2 311.964000 -1133.620000 68.290000 1 1.000000 1 -3.000000
156 2 317.779000 -1128.010000 73.952900 1 1.000000 7 -3.000000
157 1 321.938000 -1086.460000 52.012900 1 1.000000 7 0.000000
158 3 301.006000 -1104.760000 30.704200 1 1.000000 7 0.000000
159 2 313.211000 -1056.230000 16.868000 1 1.000000 7 -3.000000
160 2 305.376000 -1060.600000 12.835700 1 1.000000 1 -3.000000
161 2 297.775000 -1064.480000 7.730130 1 1.000000 1 -3.000000
162 2 290.876000 -1070.790000 4.616320 1 1.000000 1 -3.000000
163 2 284.359000 -1077.630000 1.822140 1 1.000000 1 -3.000000
164 2 276.690000 -1083.540000 -0.452658 1 1.000000 1 -3.000000
165 2 268.835000 -1089.390000 -1.846390 1 1.000000 1 -3.000000
166 2 260.576000 -1094.690000 -3.275780 1 1.000000 1 -3.000000
167 2 252.345000 -1099.600000 -5.697040 1 1.000000 1 -3.000000
168 2 242.963000 -1102.510000 -6.744740 1 1.000000 1 -3.000000
169 2 233.058000 -1102.860000 -7.482160 1 1.000000 1 -3.000000
170 2 223.306000 -1104.050000 -8.787650 1 1.000000 1 -3.000000
171 2 213.618000 -1103.020000 -10.551900 1 1.000000 1 -3.000000
172 2 204.188000 -1101.500000 -13.090700 1 1.000000 1 -3.000000
173 2 195.157000 -1101.120000 -17.257400 1 1.000000 1 -3.000000
174 2 186.041000 -1100.180000 -21.142300 1 1.000000 1 -3.000000
175 2 176.593000 -1097.870000 -23.256100 1 1.000000 1 -3.000000
176 2 167.731000 -1096.120000 -27.296800 1 1.000000 1 -3.000000
177 2 159.093000 -1094.150000 -31.721000 1 1.000000 1 -3.000000
178 2 149.798000 -1093.410000 -34.947800 1 1.000000 1 -3.000000
179 2 140.433000 -1095.130000 -37.456000 1 1.000000 1 -3.000000
180 2 132.496000 -1098.110000 -42.673000 1 1.000000 1 -3.000000
181 2 126.366000 -1103.340000 -48.425700 1 1.000000 1 -3.000000
182 2 120.380000 -1108.340000 -54.571300 1 1.000000 1 -3.000000
183 2 113.083000 -1111.810000 -60.238300 1 1.000000 8 -3.000000
184 1 134.840000 -1153.460000 -64.971700 1 1.000000 8 0.000000
185 3 152.493000 -1138.220000 -38.867100 1 1.000000 8 0.000000
186 2 166.667000 -1186.050000 -52.556400 1 1.000000 8 -3.000000
187 2 168.758000 -1182.530000 -43.559900 1 1.000000 1 -3.000000
188 2 170.107000 -1180.070000 -34.059400 1 1.000000 1 -3.000000
189 2 171.164000 -1176.990000 -24.591900 1 1.000000 1 -3.000000
190 2 170.816000 -1170.600000 -17.064700 1 1.000000 1 -3.000000
191 2 170.247000 -1163.970000 -9.660960 1 1.000000 1 -3.000000
192 2 167.769000 -1158.060000 -2.124710 1 1.000000 1 -3.000000
193 2 165.889000 -1152.350000 5.696860 1 1.000000 1 -3.000000
194 2 163.053000 -1145.400000 12.122100 1 1.000000 1 -3.000000
195 2 158.584000 -1139.360000 18.608800 1 1.000000 1 -3.000000
196 2 152.704000 -1134.100000 24.579300 1 1.000000 1 -3.000000
197 2 146.473000 -1129.350000 30.632000 1 1.000000 1 -3.000000
198 2 139.547000 -1124.640000 35.736300 1 1.000000 1 -3.000000
199 2 134.450000 -1119.670000 42.572700 1 1.000000 1 -3.000000
200 2 129.565000 -1115.070000 49.913500 1 1.000000 1 -3.000000
201 2 124.011000 -1111.670000 57.410300 1 1.000000 1 -3.000000
202 2 120.350000 -1108.680000 66.062500 1 1.000000 1 -3.000000
203 2 116.656000 -1105.520000 74.728600 1 1.000000 1 -3.000000
204 2 115.319000 -1102.600000 84.073000 1 1.000000 1 -3.000000
205 2 115.452000 -1100.600000 93.731600 1 1.000000 1 -3.000000
206 2 116.431000 -1099.030000 103.516000 1 1.000000 1 -3.000000
207 2 118.441000 -1097.150000 113.015000 1 1.000000 1 -3.000000
208 2 120.968000 -1095.720000 122.439000 1 1.000000 1 -3.000000
209 2 127.354000 -1093.580000 129.716000 1 1.000000 1 -3.000000
210 2 131.909000 -1090.290000 137.815000 1 1.000000 9 -3.000000
211 1 173.068000 -1112.060000 130.041000 1 1.000000 9 0.000000
212 3 159.551000 -1108.730000 97.896800 1 1.000000 9 0.000000
213 2 205.775000 -1131.970000 102.480000 1 1.000000 9 -3.000000
214 2 203.068000 -1127.210000 94.219500 1 1.000000 1 -3.000000
215 2 201.279000 -1123.700000 85.129500 1 1.000000 1 -3.000000
216 2 199.078000 -1118.340000 77.168800 1 1.000000 1 -3.000000
217 2 194.310000 -1112.750000 70.610200 1 1.000000 1 -3.000000
218 2 188.585000 -1108.080000 64.032700 1 1.000000 1 -3.000000
219 2 181.829000 -1102.910000 59.047500 1 1.000000 1 -3.000000
220 2 174.438000 -1099.580000 53.417300 1 1.000000 1 -3.000000
221 2 166.128000 -1096.010000 49.504800 1 1.000000 1 -3.000000
222 2 158.707000 -1091.970000 44.407700 1 1.000000 1 -3.000000
223 2 152.760000 -1085.350000 40.044300 1 1.000000 1 -3.000000
224 2 148.017000 -1079.200000 33.830100 1 1.000000 1 -3.000000
225 2 143.695000 -1072.560000 27.903800 1 1.000000 1 -3.000000
226 2 139.353000 -1065.460000 22.508000 1 1.000000 1 -3.000000
227 2 133.696000 -1059.830000 16.858500 1 1.000000 1 -3.000000
228 2 126.155000 -1054.660000 13.254500 1 1.000000 1 -3.000000
229 2 120.403000 -1047.090000 10.728100 1 1.000000 1 -3.000000
230 2 113.036000 -1040.450000 10.832800 1 1.000000 1 -3.000000
231 2 106.429000 -1033.200000 9.580120 1 1.000000 1 -3.000000
232 2 98.862900 -1027.230000 7.156940 1 1.000000 1 -3.000000
233 2 92.402900 -1021.000000 2.914450 1 1.000000 1 -3.000000
234 2 86.990200 -1014.010000 -1.778080 1 1.000000 1 -3.000000
235 2 83.698100 -1006.540000 -7.449900 1 1.000000 1 -3.000000
236 2 79.571400 -998.367000 -11.160100 1 1.000000 1 -3.000000
237 2 75.915400 -989.449000 -13.433100 1 1.000000 10 -3.000000
238 1 117.546000 -969.335000 -22.797900 1 1.000000 10 0.000000
239 3 126.009000 -1002.890000 -17.439700 1 1.000000 10 0.000000
240 2 164.478000 -969.454000 -27.213600 1 1.000000 10 -3.000000
241 2 164.751000 -979.020000 -29.507500 1 1.000000 1 -3.000000
242 2 165.611000 -988.397000 -32.587200 1 1.000000 1 -3.000000
243 2 165.203000 -997.838000 -35.542800 1 1.000000 1 -3.000000
244 2 165.245000 -1007.150000 -38.677900 1 1.000000 1 -3.000000
245 2 165.777000 -1015.720000 -43.446300 1 1.000000 1 -3.000000
246 2 167.643000 -1024.320000 -48.105500 1 1.000000 1 -3.000000
247 2 170.191000 -1032.540000 -53.084700 1 1.000000 1 -3.000000
248 2 173.427000 -1040.030000 -58.844900 1 1.000000 1 -3.000000
249 2 172.547000 -1047.410000 -65.441400 1 1.000000 1 -3.000000
250 2 170.065000 -1055.670000 -70.322000 1 1.000000 1 -3.000000
251 2 168.363000 -1064.050000 -75.234000 1 1.000000 1 -3.000000
252 2 167.186000 -1072.700000 -80.001800 1 1.000000 1 -3.000000
253 2 166.771000 -1080.190000 -86.495000 1 1.000000 1 -3.000000
254 2 166.449000 -1088.640000 -91.558100 1 1.000000 1 -3.000000
255 2 165.913000 -1095.660000 -98.530100 1 1.000000 1 -3.000000
256 2 165.539000 -1102.860000 -105.308000 1 1.000000 1 -3.000000
257 2 163.362000 -1109.630000 -112.353000 1 1.000000 1 -3.000000
258 2 160.701000 -1114.770000 -120.420000 1 1.000000 1 -3.000000
259 2 157.448000 -1119.910000 -128.202000 1 1.000000 1 -3.000000
260 2 153.095000 -1127.070000 -133.592000 1 1.000000 1 -3.000000
261 2 149.530000 -1134.490000 -138.953000 1 1.000000 1 -3.000000
262 2 143.900000 -1140.570000 -144.402000 1 1.000000 1 -3.000000
263 2 138.889000 -1145.330000 -151.496000 1 1.000000 1 -3.000000
264 2 134.883000 -1150.120000 -159.074000 1 1.000000 11 -3.000000
265 1 96.199300 -1123.260000 -161.300000 1 1.000000 11 0.000000
266 3 119.410000 -1102.500000 -145.250000 1 1.000000 11 0.000000
267 2 71.819600 -1083.610000 -153.695000 1 1.000000 11 -3.000000
268 2 79.565700 -1077.860000 -151.858000 1 1.000000 1 -3.000000
269 2 87.288100 -1071.810000 -150.703000 1 1.000000 1 -3.000000
270 2 95.396800 -1066.370000 -149.180000 1 1.000000 1 -3.000000
271 2 104.239000 -1061.920000 -148.300000 1 1.000000 1 -3.000000
272 2 113.701000 -1059.520000 -146.674000 1 1.000000 1 -3.000000
273 2 123.165000 -1056.630000 -146.693000 1 1.000000 1 -3.000000
274 2 132.636000 -1053.840000 -147.009000 1 1.000000 1 -3.000000
275 2 142.206000 -1051.600000 -147.705000 1 1.000000 1 -3.000000
276 2 151.866000 -1049.230000 -148.495000 1 1.000000 1 -3.000000
277 2 161.377000 -1046.440000 -148.557000 1 1.000000 1 -3.000000
278 2 171.043000 -1044.460000 -147.538000 1 1.000000 1 -3.000000
279 2 179.641000 -1039.820000 -145.745000 1 1.000000 1 -3.000000
280 2 188.672000 -1035.730000 -145.859000 1 1.000000 1 -3.000000
281 2 197.189000 -1030.680000 -146.188000 1 1.000000 1 -3.000000
282 2 206.188000 -1026.820000 -144.226000 1 1.000000 1 -3.000000
283 2 215.964000 -1025.580000 -144.070000 1 1.000000 1 -3.000000
284 2 225.783000 -1024.810000 -142.932000 1 1.000000 1 -3.000000
285 2 234.996000 -1022.950000 -140.030000 1 1.000000 1 -3.000000
286 2 244.480000 -1021.430000 -137.702000 1 1.000000 1 -3.000000
287 2 254.243000 -1021.850000 -136.055000 1 1.000000 1 -3.000000
288 2 264.054000 -1023.310000 -136.562000 1 1.000000 1 -3.000000
289 2 273.509000 -1024.910000 -139.090000 1 1.000000 1 -3.000000
290 2 282.817000 -1026.650000 -141.923000 1 1.000000 1 -3.000000
291 2 292.164000 -1028.350000 -144.800000 1 1.000000 12 -3.000000
292 1 283.827000 -1064.830000 -173.526000 1 1.000000 12 0.000000
293 3 252.624000 -1049.130000 -171.183000 1 1.000000 12 0.000000
294 2 256.336000 -1091.250000 -201.358000 1 1.000000 12 -3.000000
295 2 247.903000 -1087.490000 -197.852000 1 1.000000 1 -3.000000
296 2 239.702000 -1083.660000 -193.820000 1 1.000000 1 -3.000000
297 2 231.199000 -1079.160000 -191.557000 1 1.000000 1 -3.000000
298 2 223.264000 -1073.890000 -188.636000 1 1.000000 1 -3.000000
299 2 217.316000 -1066.680000 -185.438000 1 1.000000 1 -3.000000
300 2 211.763000 -1058.620000 -184.023000 1 1.000000 1 -3.000000
301 2 205.601000 -1051.280000 -181.256000 1 1.000000 1 -3.000000
302 2 200.844000 -1042.900000 -179.118000 1 1.000000 1 -3.000000
303 2 196.205000 -1034.230000 -179.733000 1 1.000000 1 -3.000000
304 2 191.790000 -1025.550000 -181.183000 1 1.000000 1 -3.000000
305 2 186.753000 -1017.830000 -184.599000 1 1.000000 1 -3.000000
306 2 182.320000 -1010.110000 -188.985000 1 1.000000 1 -3.000000
307 2 177.223000 -1002.260000 -192.311000 1 1.000000 1 -3.000000
308 2 170.018000 -995.618000 -193.798000 1 1.000000 1 -3.000000
309 2 164.840000 -988.817000 -198.865000 1 1.000000 1 -3.000000
310 2 159.884000 -982.033000 -203.928000 1 1.000000 1 -3.000000
311 2 155.116000 -977.050000 -210.919000 1 1.000000 1 -3.000000
312 2 149.090000 -971.980000 -216.934000 1 1.000000 1 -3.000000
313 2 142.050000 -967.916000 -222.763000 1 1.000000 1 -3.000000
314 2 137.711000 -964.040000 -230.750000 1 1.000000 1 -3.000000
315 2 133.519000 -961.979000 -239.498000 1 1.000000 1 -3.000000
316 2 130.410000 -962.491000 -248.901000 1 1.000000 1 -3.000000
317 2 127.275000 -963.648000 -258.194000 1 1.000000 1 -3.000000
318 2 125.065000 -962.353000 -267.758000 1 1.000000 13 -3.000000
319 1 137.948000 -1005.640000 -281.469000 1 1.000000 13 0.000000
320 3 146.186000 -1005.250000 -247.521000 1 1.000000 13 0.000000
321 2 158.137000 -1047.800000 -274.815000 1 1.000000 13 -3.000000
322 2 156.651000 -1047.830000 -265.070000 1 1.000000 1 -3.000000
323 2 156.133000 -1048.440000 -255.236000 1 1.000000 1 -3.000000
324 2 157.296000 -1049.790000 -245.493000 1 1.000000 1 -3.000000
325 2 157.214000 -1047.680000 -235.806000 1 1.000000 1 -3.000000
326 2 155.922000 -1043.410000 -226.968000 1 1.000000 1 -3.000000
327 2 154.859000 -1038.050000 -218.639000 1 1.000000 1 -3.000000
328 2 153.512000 -1031.040000 -211.776000 1 1.000000 1 -3.000000
329 2 151.118000 -1024.560000 -204.707000 1 1.000000 1 -3.000000
330 2 148.159000 -1017.970000 -197.809000 1 1.000000 1 -3.000000
331 2 145.453000 -1011.450000 -190.890000 1 1.000000 1 -3.000000
332 2 142.681000 -1006.640000 -182.753000 1 1.000000 1 -3.000000
333 2 140.032000 -1001.360000 -174.687000 1 1.000000 1 -3.000000
334 2 136.877000 -996.159000 -166.897000 1 1.000000 1 -3.000000
335 2 135.676000 -991.896000 -158.104000 1 1.000000 1 -3.000000
336 2 133.191000 -987.397000 -149.678000 1 1.000000 1 -3.000000
337 2 132.238000 -983.861000 -140.484000 1 1.000000 1 -3.000000
338 2 134.575000 -980.076000 -131.625000 1 1.000000 1 -3.000000
339 2 136.445000 -978.087000 -122.086000 1 1.000000 1 -3.000000
340 2 136.862000 -975.903000 -112.421000 1 1.000000 1 -3.000000
341 2 138.590000 -972.611000 -103.188000 1 1.000000 1 -3.000000
342 2 140.088000 -967.923000 -94.595500 1 1.000000 1 -3.000000
343 2 142.799000 -963.392000 -86.266600 1 1.000000 1 -3.000000
344 2 146.389000 -958.963000 -78.180800 1 1.000000 1 -3.000000
345 2 152.573000 -954.759000 -71.691300 1 1.000000 14 -3.000000
346 1 192.057000 -938.322000 -91.593300 1 1.000000 14 0.000000
347 3 173.513000 -949.809000 -118.972000 1 1.000000 14 0.000000
348 2 219.787000 -928.322000 -128.413000 1 1.000000 14 -3.000000
349 2 214.659000 -933.015000 -135.494000 1 1.000000 1 -3.000000
350 2 208.504000 -937.285000 -141.851000 1 1.000000 1 -3.000000
351 2 202.129000 -939.886000 -148.964000 1 1.000000 1 -3.000000
352 2 195.341000 -940.600000 -156.051000 1 1.000000 1 -3.000000
353 2 187.380000 -941.805000 -161.899000 1 1.000000 1 -3.000000
354 2 179.675000 -942.077000 -168.067000 1 1.000000 1 -3.000000
355 2 171.889000 -939.283000 -173.452000 1 1.000000 1 -3.000000
356 2 164.335000 -937.046000 -179.524000 1 1.000000 1 -3.000000
357 2 157.866000 -935.681000 -186.858000 1 1.000000 1 -3.000000
358 2 152.017000 -935.116000 -194.869000 1 1.000000 1 -3.000000
359 2 149.589000 -930.966000 -203.586000 1 1.000000 1 -3.000000
360 2 145.226000 -926.259000 -211.056000 1 1.000000 1 -3.000000
361 2 142.080000 -920.660000 -218.610000 1 1.000000 1 -3.000000
362 2 137.388000 -915.457000 -225.533000 1 1.000000 1 -3.000000
363 2 131.363000 -911.398000 -232.192000 1 1.000000 1 -3.000000
364 2 123.609000 -908.201000 -237.453000 1 1.000000 1 -3.000000
365 2 118.003000 -903.741000 -244.153000 1 1.000000 1 -3.000000
366 2 112.584000 -897.184000 -249.089000 1 1.000000 1 -3.000000
367 2 107.560000 -891.571000 -255.493000 1 1.000000 1 -3.000000
368 2 100.785000 -885.612000 -259.340000 1 1.000000 1 -3.000000
369 2 94.812800 -877.730000 -260.521000 1 1.000000 1 -3.000000
370 2 87.806100 -870.873000 -261.415000 1 1.000000 1 -3.000000
371 2 80.341000 -864.560000 -259.804000 1 1.000000 1 -3.000000
372 2 71.821000 -859.456000 -260.121000 1 1.000000 15 -3.000000
373 1 45.399500 -882.184000 -228.307000 1 1.000000 15 0.000000
374 3 77.845300 -893.734000 -221.660000 1 1.000000 15 0.000000
375 2 38.808900 -912.598000 -192.911000 1 1.000000 15 -3.000000
376 2 47.518100 -917.472000 -192.479000 1 1.000000 1 -3.000000
377 2 56.872100 -919.442000 -189.955000 1 1.000000 1 -3.000000
378 2 66.392900 -920.809000 -187.378000 1 1.000000 1 -3.000000
379 2 75.727500 -919.672000 -184.350000 1 1.000000 1 -3.000000
380 2 83.811400 -914.241000 -182.437000 1 1.000000 1 -3.000000
381 2 91.387200 -908.071000 -181.013000 1 1.000000 1 -3.000000
382 2 98.580600 -901.243000 -181.958000 1 1.000000 1 -3.000000
383 2 105.281000 -893.847000 -181.879000 1 1.000000 1 -3.000000
384 2 112.904000 -887.854000 -180.047000 1 1.000000 1 -3.000000
385 2 120.091000 -881.302000 -178.290000 1 1.000000 1 -3.000000
386 2 125.319000 -872.806000 -177.628000 1 1.000000 1 -3.000000
387 2 131.275000 -865.001000 -176.452000 1 1.000000 1 -3.000000
388 2 138.125000 -857.922000 -175.520000 1 1.000000 1 -3.000000
389 2 142.281000 -848.953000 -174.634000 1 1.000000 1 -3.000000
390 2 147.231000 -840.380000 -174.806000 1 1.000000 1 -3.000000
391 2 152.600000 -832.198000 -175.158000 1 1.000000 1 -3.000000
392 2 159.135000 -824.864000 -175.973000 1 1.000000 1 -3.000000
393 2 165.363000 -817.523000 -178.410000 1 1.000000 1 -3.000000
394 2 170.287000 -810.289000 -182.954000 1 1.000000 1 -3.000000
395 2 174.349000 -804.168000 -189.663000 1 1.000000 1 -3.000000
396 2 177.523000 -798.460000 -197.073000 1 1.000000 1 -3.000000
397 2 179.586000 -794.230000 -205.787000 1 1.000000 1 -3.000000
398 2 180.813000 -790.023000 -214.660000 1 1.000000 1 -3.000000
399 2 182.646000 -786.430000 -223.736000 1 1.000000 16 -3.000000
400 1 156.080000 -814.471000 -250.885000 1 1.000000 16 0.000000
401 3 144.566000 -821.453000 -218.555000 1 1.000000 16 0.000000
402 2 122.575000 -846.919000 -257.970000 1 1.000000 16 -3.000000
403 2 117.019000 -845.999000 -249.796000 1 1.000000 1 -3.000000
404 2 112.350000 -845.910000 -241.074000 1 1.000000 1 -3.000000
405 2 107.740000 -845.948000 -232.222000 1 1.000000 1 -3.000000
406 2 105.616000 -844.598000 -222.644000 1 1.000000 1 -3.000000
407 2 105.439000 -839.875000 -214.015000 1 1.000000 1 -3.000000
408 2 106.492000 -836.048000 -204.883000 1 1.000000 1 -3.000000
409 2 106.157000 -832.889000 -195.531000 1 1.000000 1 -3.000000
410 2 105.985000 -829.108000 -186.414000 1 1.000000 1 -3.000000
411 2 106.607000 -825.665000 -177.190000 1 1.000000 1 -3.000000
412 2 105.678000 -821.765000 -168.189000 1 1.000000 1 -3.000000
413 2 104.179000 -818.592000 -158.991000 1 1.000000 1 -3.000000
414 2 102.817000 -816.083000 -149.409000 1 1.000000 1 -3.000000
415 2 100.888000 -812.809000 -140.225000 1 1.000000 1 -3.000000
416 2 99.736400 -810.928000 -130.566000 1 1.000000 1 -3.000000
417 2 96.843100 -809.651000 -121.202000 1 1.000000 1 -3.000000
418 2 94.987800 -808.421000 -111.524000 1 1.000000 1 -3.000000
419 2 91.824700 -806.430000 -102.386000 1 1.000000 1 -3.000000
420 2 86.969700 -807.051000 -93.790500 1 1.000000 1 -3.000000
421 2 81.601300 -808.706000 -85.534900 1 1.000000 1 -3.000000
422 2 74.905200 -812.659000 -79.470000 1 1.000000 1 -3.000000
423 2 67.597600 -817.591000 -74.939000 1 1.000000 1 -3.000000
424 2 60.647300 -823.802000 -71.794000 1 1.000000 1 -3.000000
425 2 53.903400 -830.672000 -69.104900 1 1.000000 1 -3.000000
426 2 48.791200 -838.817000 -66.941500 1 1.000000 17 -3.000000
427 1 68.803700 -877.247000 -85.618700 1 1.000000 17 0.000000
428 3 90.480500 -851.510000 -95.115400 1 1.000000 17 0.000000
429 2 102.434000 -899.859000 -109.755000 1 1.000000 17 -3.000000
430 2 109.205000 -892.730000 -110.922000 1 1.000000 1 -3.000000
431 2 116.522000 -886.126000 -109.581000 1 1.000000 1 -3.000000
432 2 123.395000 -879.266000 -107.635000 1 1.000000 1 -3.000000
433 2 128.490000 -871.013000 -105.587000 1 1.000000 1 -3.000000
434 2 134.044000 -863.145000 -103.091000 1 1.000000 1 -3.000000
435 2 141.222000 -856.516000 -101.585000 1 1.000000 1 -3.000000
436 2 147.274000 -848.840000 -99.532500 1 1.000000 1 -3.000000
437 2 152.254000 -840.406000 -97.754700 1 1.000000 1 -3.000000
438 2 159.035000 -833.702000 -94.942900 1 1.000000 1 -3.000000
439 2 166.111000 -826.859000 -93.741100 1 1.000000 1 -3.000000
440 2 174.184000 -822.162000 -90.265400 1 1.000000 1 -3.000000
441 2 179.425000 -814.820000 -86.283300 1 1.000000 1 -3.000000
442 2 183.501000 -807.429000 -81.029600 1 1.000000 1 -3.000000
443 2 186.176000 -800.131000 -74.863600 1 1.000000 1 -3.000000
444 2 189.626000 -794.013000 -67.947100 1 1.000000 1 -3.000000
445 2 191.070000 -788.348000 -59.951500 1 1.000000 1 -3.000000
446 2 192.599000 -782.783000 -51.908900 1 1.000000 1 -3.000000
447 2 194.207000 -777.593000 -43.590400 1 1.000000 1 -3.000000
448 2 194.015000 -773.497000 -34.562600 1 1.000000 1 -3.000000
449 2 193.558000 -770.527000 -25.087100 1 1.000000 1 -3.000000
450 2 194.179000 -765.745000 -16.365800 1 1.000000 1 -3.000000
451 2 196.978000 -760.591000 -8.373260 1 1.000000 1 -3.000000
452 2 199.549000 -756.016000 0.084852 1 1.000000 1 -3.000000
453 2 202.898000 -753.748000 9.082930 1 1.000000 18 -3.000000
454 1 242.491000 -735.419000 -9.018470 1 1.000000 18 0.000000
455 3 221.787000 -739.108000 -36.980000 1 1.000000 18 0.000000
456 2 269.078000 -718.889000 -44.282100 1 1.000000 18 -3.000000
457 2 261.745000 -716.382000 -50.458000 1 1.000000 1 -3.000000
458 2 254.488000 -713.940000 -56.779200 1 1.000000 1 -3.000000
459 2 246.766000 -710.104000 -61.805400 1 1.000000 1 -3.000000
460 2 237.915000 -708.960000 -66.068300 1 1.000000 1 -3.000000
461 2 228.491000 -709.952000 -68.827700 1 1.000000 1 -3.000000
462 2 218.891000 -711.159000 -71.305400 1 1.000000 1 -3.000000
463 2 209.894000 -711.334000 -75.492300 1 1.000000 1 -3.000000
464 2 200.499000 -710.644000 -78.678400 1 1.000000 1 -3.000000
465 2 191.531000 -710.318000 -82.914800 1 1.000000 1 -3.000000