LAMMPS data file

4067 atoms
4067 ellipsoids
4516 bonds
8882 angles
0 dihedrals

3 atom types
5 bond types
12 angle types
0 dihedral types

-4631.092947 4670.465898 xlo xhi
-4631.092947 4670.465898 ylo yhi
-4631.092947 4670.465898 zlo zhi

Masses

1 196016.000000
2 1950.000000
3 19500.000000

Atoms

1 2 694.976000 -1230.430000 492.975000 1 1.000000 1 -3.000000
2 2 686.266000 -1225.900000 493.660000 1 1.000000 1 -3.000000
3 2 677.947000 -1221.040000 491.565000 1 1.000000 1 -3.000000
4 2 668.692000 -1217.750000 489.993000 1 1.000000 1 -3.000000
5 2 659.442000 -1214.630000 488.290000 1 1.000000 1 -3.000000
6 2 650.363000 -1210.820000 488.993000 1 1.000000 1 -3.000000
7 2 641.388000 -1207.050000 490.619000 1 1.000000 1 -3.000000
8 2 633.033000 -1204.410000 495.168000 1 1.000000 1 -3.000000
9 2 624.642000 -1200.410000 498.740000 1 1.000000 1 -3.000000
10 2 617.047000 -1195.290000 502.647000 1 1.000000 1 -3.000000
11 2 610.531000 -1191.220000 508.732000 1 1.000000 1 -3.000000
12 2 605.532000 -1187.070000 516.215000 1 1.000000 1 -3.000000
13 2 599.531000 -1181.620000 521.887000 1 1.000000 1 -3.000000
14 2 596.201000 -1176.010000 529.334000 1 1.000000 1 -3.000000
15 2 592.455000 -1170.540000 536.643000 1 1.000000 1 -3.000000
16 2 589.062000 -1163.900000 543.072000 1 1.000000 1 -3.000000
17 2 587.569000 -1155.770000 548.495000 1 1.000000 1 -3.000000
18 2 586.193000 -1147.970000 554.382000 1 1.000000 1 -3.000000
19 2 581.210000 -1139.910000 557.283000 1 1.000000 1 -3.000000
20 2 577.274000 -1131.610000 560.944000 1 1.000000 1 -3.000000
21 2 574.194000 -1123.480000 565.574000 1 1.000000 2 -3.000000
22 1 587.684000 -1096.140000 529.539000 1 1.000000 2 0.000000
23 3 584.211000 -1127.630000 514.692000 1 1.000000 2 0.000000
24 2 598.787000 -1088.110000 484.411000 1 1.000000 2 -3.000000
25 2 593.762000 -1095.410000 479.938000 1 1.000000 1 -3.000000
26 2 587.807000 -1102.940000 477.364000 1 1.000000 1 -3.000000
27 2 581.793000 -1110.190000 474.298000 1 1.000000 1 -3.000000
28 2 578.564000 -1119.070000 471.334000 1 1.000000 1 -3.000000
29 2 574.063000 -1127.820000 469.793000 1 1.000000 1 -3.000000
30 2 567.431000 -1135.020000 468.472000 1 1.000000 1 -3.000000
31 2 560.475000 -1142.010000 467.341000 1 1.000000 1 -3.000000
32 2 554.968000 -1150.130000 466.275000 1 1.000000 1 -3.000000
33 2 549.889000 -1158.410000 464.415000 1 1.000000 1 -3.000000
34 2 544.157000 -1166.220000 462.241000 1 1.000000 1 -3.000000
35 2 538.492000 -1173.560000 458.778000 1 1.000000 1 -3.000000
36 2 531.353000 -1179.950000 456.334000 1 1.000000 1 -3.000000
37 2 523.395000 -1185.690000 454.964000 1 1.000000 1 -3.000000
38 2 515.437000 -1190.820000 451.988000 1 1.000000 1 -3.000000
39 2 506.792000 -1195.200000 449.987000 1 1.000000 1 -3.000000
40 2 496.955000 -1196.090000 449.259000 1 1.000000 1 -3.000000
41 2 487.579000 -1195.530000 446.467000 1 1.000000 1 -3.000000
42 2 478.218000 -1194.300000 443.386000 1 1.000000 1 -3.000000
43 2 470.173000 -1190.390000 439.217000 1 1.000000 1 -3.000000
44 2 463.654000 -1185.310000 433.768000 1 1.000000 1 -3.000000
45 2 457.894000 -1179.880000 427.789000 1 1.000000 1 -3.000000
46 2 452.118000 -1173.610000 422.662000 1 1.000000 1 -3.000000
47 2 445.865000 -1167.350000 418.305000 1 1.000000 1 -3.000000
48 2 440.204000 -1160.640000 413.844000 1 1.000000 3 -3.000000
49 1 405.357000 -1169.830000 444.304000 1 1.000000 3 0.000000
50 3 425.291000 -1198.490000 446.114000 1 1.000000 3 0.000000
51 2 381.907000 -1197.410000 474.567000 1 1.000000 3 -3.000000
52 2 388.612000 -1203.880000 477.906000 1 1.000000 1 -3.000000
53 2 395.060000 -1210.580000 481.290000 1 1.000000 1 -3.000000
54 2 403.514000 -1215.710000 481.427000 1 1.000000 1 -3.000000
55 2 411.990000 -1220.830000 480.594000 1 1.000000 1 -3.000000
56 2 419.603000 -1226.900000 479.010000 1 1.000000 1 -3.000000
57 2 427.388000 -1232.230000 475.841000 1 1.000000 1 -3.000000
58 2 435.650000 -1236.910000 473.077000 1 1.000000 1 -3.000000
59 2 443.713000 -1240.850000 468.801000 1 1.000000 1 -3.000000
60 2 451.701000 -1245.170000 464.913000 1 1.000000 1 -3.000000
61 2 459.828000 -1250.030000 461.838000 1 1.000000 1 -3.000000
62 2 468.825000 -1252.370000 458.443000 1 1.000000 1 -3.000000
63 2 477.567000 -1252.260000 453.843000 1 1.000000 1 -3.000000
64 2 484.516000 -1252.960000 446.875000 1 1.000000 1 -3.000000
65 2 490.662000 -1253.370000 439.052000 1 1.000000 1 -3.000000
66 2 497.829000 -1252.420000 432.362000 1 1.000000 1 -3.000000
67 2 505.929000 -1250.250000 427.114000 1 1.000000 1 -3.000000
68 2 512.851000 -1247.650000 420.551000 1 1.000000 1 -3.000000
69 2 519.015000 -1246.320000 412.872000 1 1.000000 1 -3.000000
70 2 523.719000 -1243.330000 404.655000 1 1.000000 1 -3.000000
71 2 526.117000 -1239.360000 395.927000 1 1.000000 1 -3.000000
72 2 526.942000 -1233.770000 387.827000 1 1.000000 1 -3.000000
73 2 526.734000 -1226.700000 380.917000 1 1.000000 1 -3.000000
74 2 527.434000 -1220.320000 373.388000 1 1.000000 1 -3.000000
75 2 528.602000 -1213.440000 366.251000 1 1.000000 4 -3.000000
76 1 487.378000 -1192.300000 375.104000 1 1.000000 4 0.000000
77 3 494.940000 -1208.190000 405.498000 1 1.000000 4 0.000000
78 2 451.346000 -1180.140000 403.143000 1 1.000000 4 -3.000000
79 2 452.232000 -1188.440000 408.563000 1 1.000000 1 -3.000000
80 2 452.510000 -1197.620000 412.250000 1 1.000000 1 -3.000000
81 2 452.368000 -1207.400000 413.360000 1 1.000000 1 -3.000000
82 2 451.278000 -1217.180000 412.516000 1 1.000000 1 -3.000000
83 2 448.810000 -1226.390000 409.826000 1 1.000000 1 -3.000000
84 2 443.941000 -1233.470000 404.862000 1 1.000000 1 -3.000000
85 2 438.994000 -1240.930000 400.678000 1 1.000000 1 -3.000000
86 2 434.010000 -1249.040000 398.096000 1 1.000000 1 -3.000000
87 2 428.841000 -1257.430000 397.323000 1 1.000000 1 -3.000000
88 2 424.823000 -1266.390000 396.193000 1 1.000000 1 -3.000000
89 2 421.441000 -1275.480000 398.183000 1 1.000000 1 -3.000000
90 2 418.476000 -1284.780000 399.758000 1 1.000000 1 -3.000000
91 2 415.293000 -1293.310000 403.628000 1 1.000000 1 -3.000000
92 2 411.779000 -1302.120000 406.375000 1 1.000000 1 -3.000000
93 2 407.691000 -1310.030000 410.685000 1 1.000000 1 -3.000000
94 2 401.431000 -1316.640000 414.642000 1 1.000000 1 -3.000000
95 2 395.194000 -1323.730000 417.812000 1 1.000000 1 -3.000000
96 2 388.263000 -1330.100000 420.643000 1 1.000000 1 -3.000000
97 2 382.308000 -1336.790000 424.686000 1 1.000000 1 -3.000000
98 2 378.285000 -1344.160000 429.891000 1 1.000000 1 -3.000000
99 2 375.126000 -1351.970000 435.024000 1 1.000000 1 -3.000000
100 2 374.754000 -1360.480000 440.116000 1 1.000000 1 -3.000000
101 2 375.762000 -1368.950000 445.192000 1 1.000000 1 -3.000000
102 2 376.279000 -1377.800000 449.666000 1 1.000000 5 -3.000000
103 1 422.211000 -1387.770000 445.620000 1 1.000000 5 0.000000
104 3 420.745000 -1353.510000 438.573000 1 1.000000 5 0.000000
105 2 467.012000 -1376.910000 435.310000 1 1.000000 5 -3.000000
106 2 466.691000 -1367.190000 437.077000 1 1.000000 1 -3.000000
107 2 466.525000 -1358.580000 441.953000 1 1.000000 1 -3.000000
108 2 464.701000 -1349.470000 445.320000 1 1.000000 1 -3.000000
109 2 460.836000 -1340.590000 447.595000 1 1.000000 1 -3.000000
110 2 456.615000 -1332.510000 451.530000 1 1.000000 1 -3.000000
111 2 453.401000 -1324.670000 456.708000 1 1.000000 1 -3.000000
112 2 449.818000 -1316.730000 461.489000 1 1.000000 1 -3.000000
113 2 444.872000 -1310.080000 466.850000 1 1.000000 1 -3.000000
114 2 442.855000 -1302.000000 472.305000 1 1.000000 1 -3.000000
115 2 437.827000 -1294.220000 475.719000 1 1.000000 1 -3.000000
116 2 434.777000 -1286.460000 480.971000 1 1.000000 1 -3.000000
117 2 432.824000 -1277.880000 485.445000 1 1.000000 1 -3.000000
118 2 430.238000 -1269.110000 489.325000 1 1.000000 1 -3.000000
119 2 428.769000 -1261.250000 495.104000 1 1.000000 1 -3.000000
120 2 424.017000 -1254.530000 500.611000 1 1.000000 1 -3.000000
121 2 417.709000 -1247.630000 503.896000 1 1.000000 1 -3.000000
122 2 412.357000 -1241.220000 509.221000 1 1.000000 1 -3.000000
123 2 405.797000 -1236.100000 514.630000 1 1.000000 1 -3.000000
124 2 397.252000 -1232.540000 518.144000 1 1.000000 1 -3.000000
125 2 389.759000 -1229.790000 523.907000 1 1.000000 1 -3.000000
126 2 381.083000 -1227.860000 528.250000 1 1.000000 1 -3.000000
127 2 371.997000 -1228.410000 532.120000 1 1.000000 1 -3.000000
128 2 362.635000 -1229.860000 534.696000 1 1.000000 1 -3.000000
129 2 352.950000 -1231.760000 535.720000 1 1.000000 6 -3.000000
130 1 343.287000 -1265.000000 503.713000 1 1.000000 6 0.000000
131 3 377.302000 -1269.900000 510.464000 1 1.000000 6 0.000000
132 2 354.437000 -1301.990000 476.609000 1 1.000000 6 -3.000000
133 2 362.713000 -1305.340000 480.664000 1 1.000000 1 -3.000000
134 2 370.859000 -1307.940000 485.593000 1 1.000000 1 -3.000000
135 2 379.059000 -1308.800000 491.017000 1 1.000000 1 -3.000000
136 2 386.070000 -1309.370000 497.879000 1 1.000000 1 -3.000000
137 2 394.042000 -1309.270000 503.832000 1 1.000000 1 -3.000000
138 2 402.077000 -1306.620000 509.009000 1 1.000000 1 -3.000000
139 2 409.428000 -1303.330000 514.718000 1 1.000000 1 -3.000000
140 2 416.455000 -1301.690000 521.503000 1 1.000000 1 -3.000000
141 2 423.307000 -1298.290000 527.823000 1 1.000000 1 -3.000000
142 2 429.096000 -1296.640000 535.679000 1 1.000000 1 -3.000000
143 2 435.740000 -1295.900000 543.022000 1 1.000000 1 -3.000000
144 2 441.579000 -1294.160000 550.938000 1 1.000000 1 -3.000000
145 2 446.722000 -1294.350000 559.297000 1 1.000000 1 -3.000000
146 2 452.596000 -1294.080000 567.276000 1 1.000000 1 -3.000000
147 2 458.781000 -1292.450000 574.793000 1 1.000000 1 -3.000000
148 2 463.668000 -1291.570000 583.462000 1 1.000000 1 -3.000000
149 2 468.535000 -1292.760000 591.975000 1 1.000000 1 -3.000000
150 2 475.573000 -1293.320000 598.854000 1 1.000000 1 -3.000000
151 2 483.496000 -1290.400000 604.027000 1 1.000000 1 -3.000000
152 2 491.382000 -1286.140000 608.279000 1 1.000000 1 -3.000000
153 2 498.440000 -1280.180000 611.775000 1 1.000000 1 -3.000000
154 2 504.701000 -1273.270000 615.022000 1 1.000000 1 -3.000000
155 2 510.060000 -1265.350000 617.683000 1 1.000000 1 -3.000000
156 2 514.547000 -1257.060000 620.847000 1 1.000000 7 -3.000000
157 1 507.881000 -1228.310000 584.032000 1 1.000000 7 0.000000
158 3 483.186000 -1252.710000 579.568000 1 1.000000 7 0.000000
159 2 486.447000 -1215.030000 544.115000 1 1.000000 7 -3.000000
160 2 477.147000 -1217.930000 545.959000 1 1.000000 1 -3.000000
161 2 469.211000 -1223.070000 548.853000 1 1.000000 1 -3.000000
162 2 461.414000 -1229.040000 550.382000 1 1.000000 1 -3.000000
163 2 453.511000 -1234.610000 552.624000 1 1.000000 1 -3.000000
164 2 447.301000 -1241.430000 556.157000 1 1.000000 1 -3.000000
165 2 440.407000 -1247.140000 560.492000 1 1.000000 1 -3.000000
166 2 435.916000 -1255.510000 563.375000 1 1.000000 1 -3.000000
167 2 430.425000 -1263.410000 565.442000 1 1.000000 1 -3.000000
168 2 425.613000 -1271.010000 569.510000 1 1.000000 1 -3.000000
169 2 419.816000 -1278.980000 570.823000 1 1.000000 1 -3.000000
170 2 415.878000 -1287.760000 573.239000 1 1.000000 1 -3.000000
171 2 412.039000 -1296.060000 576.960000 1 1.000000 1 -3.000000
172 2 406.436000 -1303.460000 580.332000 1 1.000000 1 -3.000000
173 2 400.224000 -1311.140000 579.972000 1 1.000000 1 -3.000000
174 2 393.037000 -1317.780000 578.849000 1 1.000000 1 -3.000000
175 2 383.895000 -1321.450000 579.007000 1 1.000000 1 -3.000000
176 2 374.780000 -1324.830000 577.180000 1 1.000000 1 -3.000000
177 2 365.641000 -1328.670000 576.454000 1 1.000000 1 -3.000000
178 2 358.858000 -1335.900000 575.751000 1 1.000000 1 -3.000000
179 2 353.835000 -1344.270000 574.258000 1 1.000000 1 -3.000000
180 2 348.687000 -1352.770000 574.133000 1 1.000000 1 -3.000000
181 2 344.559000 -1361.810000 574.236000 1 1.000000 1 -3.000000
182 2 342.954000 -1371.550000 573.736000 1 1.000000 1 -3.000000
183 2 341.684000 -1381.200000 572.078000 1 1.000000 8 -3.000000
184 1 382.327000 -1395.350000 552.768000 1 1.000000 8 0.000000
185 3 391.295000 -1365.880000 569.411000 1 1.000000 8 0.000000
186 2 428.106000 -1390.330000 542.259000 1 1.000000 8 -3.000000
187 2 429.921000 -1384.540000 550.116000 1 1.000000 1 -3.000000
188 2 431.967000 -1379.370000 558.215000 1 1.000000 1 -3.000000
189 2 433.454000 -1374.950000 566.911000 1 1.000000 1 -3.000000
190 2 435.278000 -1370.440000 575.469000 1 1.000000 1 -3.000000
191 2 433.239000 -1365.180000 583.586000 1 1.000000 1 -3.000000
192 2 430.386000 -1360.160000 591.701000 1 1.000000 1 -3.000000
193 2 425.074000 -1354.540000 597.868000 1 1.000000 1 -3.000000
194 2 421.168000 -1348.970000 605.030000 1 1.000000 1 -3.000000
195 2 418.602000 -1343.700000 612.963000 1 1.000000 1 -3.000000
196 2 415.432000 -1338.170000 620.605000 1 1.000000 1 -3.000000
197 2 412.364000 -1335.020000 629.497000 1 1.000000 1 -3.000000
198 2 409.111000 -1334.870000 638.845000 1 1.000000 1 -3.000000
199 2 405.881000 -1333.750000 648.104000 1 1.000000 1 -3.000000
200 2 402.630000 -1330.730000 657.005000 1 1.000000 1 -3.000000
201 2 398.788000 -1327.290000 665.517000 1 1.000000 1 -3.000000
202 2 394.778000 -1325.390000 674.360000 1 1.000000 1 -3.000000
203 2 390.277000 -1323.860000 683.090000 1 1.000000 1 -3.000000
204 2 385.695000 -1324.060000 691.812000 1 1.000000 1 -3.000000
205 2 380.965000 -1326.790000 700.069000 1 1.000000 1 -3.000000
206 2 376.205000 -1330.990000 707.611000 1 1.000000 1 -3.000000
207 2 371.225000 -1334.670000 715.326000 1 1.000000 1 -3.000000
208 2 368.071000 -1337.540000 724.200000 1 1.000000 1 -3.000000
209 2 364.446000 -1340.540000 732.870000 1 1.000000 1 -3.000000
210 2 361.862000 -1344.530000 741.619000 1 1.000000 9 -3.000000
211 1 367.999000 -1303.960000 764.907000 1 1.000000 9 0.000000
212 3 370.304000 -1294.330000 731.256000 1 1.000000 9 0.000000
213 2 374.765000 -1257.360000 767.564000 1 1.000000 9 -3.000000
214 2 373.504000 -1255.130000 757.925000 1 1.000000 1 -3.000000
215 2 371.212000 -1253.740000 748.325000 1 1.000000 1 -3.000000
216 2 370.053000 -1251.290000 738.784000 1 1.000000 1 -3.000000
217 2 368.150000 -1251.430000 729.051000 1 1.000000 1 -3.000000
218 2 365.607000 -1252.520000 719.535000 1 1.000000 1 -3.000000
219 2 363.158000 -1254.130000 710.044000 1 1.000000 1 -3.000000
220 2 359.433000 -1255.770000 700.969000 1 1.000000 1 -3.000000
221 2 354.354000 -1258.160000 692.791000 1 1.000000 1 -3.000000
222 2 350.142000 -1261.630000 684.507000 1 1.000000 1 -3.000000
223 2 347.235000 -1262.310000 675.019000 1 1.000000 1 -3.000000
224 2 344.391000 -1262.360000 665.470000 1 1.000000 1 -3.000000
225 2 341.259000 -1262.390000 656.103000 1 1.000000 1 -3.000000
226 2 337.408000 -1263.670000 647.144000 1 1.000000 1 -3.000000
227 2 332.041000 -1264.930000 638.988000 1 1.000000 1 -3.000000
228 2 327.460000 -1267.680000 630.739000 1 1.000000 1 -3.000000
229 2 322.655000 -1270.570000 622.597000 1 1.000000 1 -3.000000
230 2 316.839000 -1274.290000 615.584000 1 1.000000 1 -3.000000
231 2 311.803000 -1279.360000 608.743000 1 1.000000 1 -3.000000
232 2 306.337000 -1285.930000 603.683000 1 1.000000 1 -3.000000
233 2 300.143000 -1292.900000 600.409000 1 1.000000 1 -3.000000
234 2 292.321000 -1298.980000 599.916000 1 1.000000 1 -3.000000
235 2 284.478000 -1304.600000 602.246000 1 1.000000 1 -3.000000
236 2 277.295000 -1310.770000 605.232000 1 1.000000 1 -3.000000
237 2 269.931000 -1317.000000 607.286000 1 1.000000 10 -3.000000
238 1 247.279000 -1292.780000 640.872000 1 1.000000 10 0.000000
239 3 276.324000 -1274.020000 635.479000 1 1.000000 10 0.000000
240 2 241.966000 -1256.270000 670.269000 1 1.000000 10 -3.000000
241 2 250.404000 -1251.100000 669.663000 1 1.000000 1 -3.000000
242 2 258.032000 -1245.260000 667.234000 1 1.000000 1 -3.000000
243 2 264.954000 -1239.380000 663.528000 1 1.000000 1 -3.000000
244 2 271.210000 -1235.410000 656.947000 1 1.000000 1 -3.000000
245 2 278.019000 -1232.770000 650.288000 1 1.000000 1 -3.000000
246 2 283.948000 -1227.950000 643.973000 1 1.000000 1 -3.000000
247 2 288.926000 -1220.400000 639.819000 1 1.000000 1 -3.000000
248 2 294.157000 -1213.280000 635.583000 1 1.000000 1 -3.000000
249 2 298.943000 -1205.190000 632.722000 1 1.000000 1 -3.000000
250 2 302.375000 -1196.930000 628.609000 1 1.000000 1 -3.000000
251 2 304.326000 -1188.750000 623.295000 1 1.000000 1 -3.000000
252 2 306.210000 -1180.900000 617.568000 1 1.000000 1 -3.000000
253 2 309.007000 -1172.110000 613.998000 1 1.000000 1 -3.000000
254 2 311.507000 -1163.440000 609.821000 1 1.000000 1 -3.000000
255 2 311.151000 -1154.740000 605.030000 1 1.000000 1 -3.000000
256 2 309.370000 -1145.920000 600.770000 1 1.000000 1 -3.000000
257 2 307.071000 -1137.170000 596.669000 1 1.000000 1 -3.000000
258 2 305.269000 -1127.980000 593.458000 1 1.000000 1 -3.000000
259 2 304.678000 -1119.240000 588.842000 1 1.000000 1 -3.000000
260 2 304.314000 -1109.880000 585.807000 1 1.000000 1 -3.000000
261 2 305.942000 -1100.200000 584.505000 1 1.000000 1 -3.000000
262 2 305.233000 -1090.240000 584.441000 1 1.000000 1 -3.000000
263 2 303.407000 -1080.520000 584.835000 1 1.000000 1 -3.000000
264 2 302.089000 -1070.730000 584.408000 1 1.000000 11 -3.000000
265 1 256.152000 -1072.300000 595.105000 1 1.000000 11 0.000000
266 3 268.240000 -1102.740000 607.307000 1 1.000000 11 0.000000
267 2 217.799000 -1092.440000 613.759000 1 1.000000 11 -3.000000
268 2 222.160000 -1099.490000 619.205000 1 1.000000 1 -3.000000
269 2 225.337000 -1106.120000 625.798000 1 1.000000 1 -3.000000
270 2 230.880000 -1111.990000 631.675000 1 1.000000 1 -3.000000
271 2 236.641000 -1119.220000 635.152000 1 1.000000 1 -3.000000
272 2 244.211000 -1125.200000 637.353000 1 1.000000 1 -3.000000
273 2 252.906000 -1129.760000 638.870000 1 1.000000 1 -3.000000
274 2 261.962000 -1132.660000 641.586000 1 1.000000 1 -3.000000
275 2 270.591000 -1136.470000 644.542000 1 1.000000 1 -3.000000
276 2 278.646000 -1139.120000 649.851000 1 1.000000 1 -3.000000
277 2 287.234000 -1139.010000 654.748000 1 1.000000 1 -3.000000
278 2 293.296000 -1137.320000 662.395000 1 1.000000 1 -3.000000
279 2 298.901000 -1135.740000 670.448000 1 1.000000 1 -3.000000
280 2 305.825000 -1134.140000 677.434000 1 1.000000 1 -3.000000
281 2 312.890000 -1133.960000 684.301000 1 1.000000 1 -3.000000
282 2 319.175000 -1132.210000 691.719000 1 1.000000 1 -3.000000
283 2 325.890000 -1131.990000 698.982000 1 1.000000 1 -3.000000
284 2 332.818000 -1134.580000 705.602000 1 1.000000 1 -3.000000
285 2 341.469000 -1135.410000 710.287000 1 1.000000 1 -3.000000
286 2 349.632000 -1137.700000 715.463000 1 1.000000 1 -3.000000
287 2 357.368000 -1142.170000 719.700000 1 1.000000 1 -3.000000
288 2 364.087000 -1148.720000 722.792000 1 1.000000 1 -3.000000
289 2 371.206000 -1155.070000 725.650000 1 1.000000 1 -3.000000
290 2 378.415000 -1161.800000 726.721000 1 1.000000 1 -3.000000
291 2 385.022000 -1169.120000 726.544000 1 1.000000 12 -3.000000
292 1 415.489000 -1152.290000 694.709000 1 1.000000 12 0.000000
293 3 388.689000 -1129.940000 692.686000 1 1.000000 12 0.000000
294 2 430.548000 -1120.090000 663.643000 1 1.000000 12 -3.000000
295 2 422.408000 -1114.510000 663.195000 1 1.000000 1 -3.000000
296 2 413.921000 -1109.630000 661.609000 1 1.000000 1 -3.000000
297 2 406.185000 -1103.440000 662.536000 1 1.000000 1 -3.000000
298 2 398.334000 -1097.620000 664.218000 1 1.000000 1 -3.000000
299 2 390.407000 -1092.410000 667.134000 1 1.000000 1 -3.000000
300 2 382.978000 -1089.720000 673.172000 1 1.000000 1 -3.000000
301 2 376.085000 -1086.970000 679.724000 1 1.000000 1 -3.000000
302 2 370.191000 -1084.610000 687.303000 1 1.000000 1 -3.000000
303 2 365.616000 -1081.630000 695.474000 1 1.000000 1 -3.000000
304 2 360.783000 -1078.850000 703.616000 1 1.000000 1 -3.000000
305 2 355.490000 -1075.350000 711.206000 1 1.000000 1 -3.000000
306 2 351.945000 -1072.140000 719.925000 1 1.000000 1 -3.000000
307 2 348.463000 -1068.820000 728.594000 1 1.000000 1 -3.000000
308 2 342.689000 -1065.290000 735.846000 1 1.000000 1 -3.000000
309 2 338.654000 -1063.170000 744.708000 1 1.000000 1 -3.000000
310 2 335.611000 -1060.130000 753.584000 1 1.000000 1 -3.000000
311 2 332.868000 -1058.690000 762.985000 1 1.000000 1 -3.000000
312 2 330.905000 -1058.710000 772.655000 1 1.000000 1 -3.000000
313 2 330.173000 -1057.350000 782.445000 1 1.000000 1 -3.000000
314 2 331.617000 -1054.710000 791.868000 1 1.000000 1 -3.000000
315 2 333.818000 -1053.030000 801.373000 1 1.000000 1 -3.000000
316 2 336.976000 -1051.160000 810.558000 1 1.000000 1 -3.000000
317 2 343.312000 -1050.660000 818.160000 1 1.000000 1 -3.000000
318 2 348.907000 -1049.670000 826.219000 1 1.000000 13 -3.000000
319 1 392.719000 -1056.320000 810.030000 1 1.000000 13 0.000000
320 3 374.151000 -1050.520000 780.935000 1 1.000000 13 0.000000
321 2 425.194000 -1059.120000 775.905000 1 1.000000 13 -3.000000
322 2 419.238000 -1054.310000 769.601000 1 1.000000 1 -3.000000
323 2 414.214000 -1049.800000 762.312000 1 1.000000 1 -3.000000
324 2 408.507000 -1045.550000 755.424000 1 1.000000 1 -3.000000
325 2 402.391000 -1043.370000 747.941000 1 1.000000 1 -3.000000
326 2 395.164000 -1041.400000 741.410000 1 1.000000 1 -3.000000
327 2 389.812000 -1035.770000 735.381000 1 1.000000 1 -3.000000
328 2 385.349000 -1029.720000 728.974000 1 1.000000 1 -3.000000
329 2 381.483000 -1023.990000 721.918000 1 1.000000 1 -3.000000
330 2 377.867000 -1017.800000 715.039000 1 1.000000 1 -3.000000
331 2 373.909000 -1011.150000 708.906000 1 1.000000 1 -3.000000
332 2 368.189000 -1006.230000 702.469000 1 1.000000 1 -3.000000
333 2 363.887000 -1000.250000 695.865000 1 1.000000 1 -3.000000
334 2 359.241000 -995.337000 688.657000 1 1.000000 1 -3.000000
335 2 351.862000 -991.217000 683.490000 1 1.000000 1 -3.000000
336 2 345.348000 -986.415000 677.750000 1 1.000000 1 -3.000000
337 2 339.378000 -981.704000 671.397000 1 1.000000 1 -3.000000
338 2 334.629000 -976.323000 664.479000 1 1.000000 1 -3.000000
339 2 330.112000 -970.289000 658.031000 1 1.000000 1 -3.000000
340 2 325.820000 -966.101000 650.146000 1 1.000000 1 -3.000000
341 2 319.555000 -963.011000 643.113000 1 1.000000 1 -3.000000
342 2 312.140000 -959.434000 637.389000 1 1.000000 1 -3.000000
343 2 303.414000 -956.146000 634.179000 1 1.000000 1 -3.000000
344 2 294.431000 -952.165000 633.286000 1 1.000000 1 -3.000000
345 2 284.902000 -950.238000 631.319000 1 1.000000 14 -3.000000
346 1 259.471000 -970.878000 665.262000 1 1.000000 14 0.000000
347 3 291.532000 -969.050000 679.299000 1 1.000000 14 0.000000
348 2 253.538000 -989.028000 708.404000 1 1.000000 14 -3.000000
349 2 260.703000 -983.036000 711.543000 1 1.000000 1 -3.000000
350 2 268.484000 -978.742000 715.990000 1 1.000000 1 -3.000000
351 2 275.467000 -973.531000 720.581000 1 1.000000 1 -3.000000
352 2 284.279000 -969.826000 723.129000 1 1.000000 1 -3.000000
353 2 293.857000 -967.493000 723.354000 1 1.000000 1 -3.000000
354 2 303.318000 -964.780000 722.473000 1 1.000000 1 -3.000000
355 2 311.399000 -959.167000 721.355000 1 1.000000 1 -3.000000
356 2 316.623000 -950.719000 720.866000 1 1.000000 1 -3.000000
357 2 319.203000 -941.344000 718.936000 1 1.000000 1 -3.000000
358 2 322.995000 -932.310000 717.989000 1 1.000000 1 -3.000000
359 2 326.588000 -923.054000 717.203000 1 1.000000 1 -3.000000
360 2 331.855000 -914.689000 716.443000 1 1.000000 1 -3.000000
361 2 338.027000 -906.938000 716.559000 1 1.000000 1 -3.000000
362 2 342.886000 -898.369000 716.632000 1 1.000000 1 -3.000000
363 2 349.364000 -890.785000 715.836000 1 1.000000 1 -3.000000
364 2 355.981000 -883.722000 717.754000 1 1.000000 1 -3.000000
365 2 362.878000 -876.872000 719.395000 1 1.000000 1 -3.000000
366 2 370.338000 -870.405000 720.587000 1 1.000000 1 -3.000000
367 2 376.740000 -863.148000 722.347000 1 1.000000 1 -3.000000
368 2 382.379000 -856.457000 727.025000 1 1.000000 1 -3.000000
369 2 386.735000 -852.004000 734.739000 1 1.000000 1 -3.000000
370 2 391.617000 -847.448000 741.988000 1 1.000000 1 -3.000000
371 2 397.663000 -844.618000 749.327000 1 1.000000 1 -3.000000
372 2 406.316000 -843.306000 753.871000 1 1.000000 15 -3.000000
373 1 428.716000 -812.394000 726.096000 1 1.000000 15 0.000000
374 3 398.088000 -817.131000 709.759000 1 1.000000 15 0.000000
375 2 432.628000 -785.141000 687.852000 1 1.000000 15 -3.000000
376 2 423.392000 -785.139000 684.282000 1 1.000000 1 -3.000000
377 2 414.276000 -787.317000 680.940000 1 1.000000 1 -3.000000
378 2 404.729000 -788.508000 678.874000 1 1.000000 1 -3.000000
379 2 395.342000 -789.476000 675.720000 1 1.000000 1 -3.000000
380 2 385.972000 -792.340000 674.259000 1 1.000000 1 -3.000000
381 2 377.128000 -796.751000 673.372000 1 1.000000 1 -3.000000
382 2 367.586000 -799.400000 673.994000 1 1.000000 1 -3.000000
383 2 357.716000 -800.629000 674.176000 1 1.000000 1 -3.000000
384 2 347.817000 -799.911000 673.882000 1 1.000000 1 -3.000000
385 2 338.096000 -799.485000 675.642000 1 1.000000 1 -3.000000
386 2 328.803000 -799.808000 679.022000 1 1.000000 1 -3.000000
387 2 319.834000 -798.751000 683.098000 1 1.000000 1 -3.000000
388 2 311.365000 -800.140000 687.926000 1 1.000000 1 -3.000000
389 2 304.790000 -804.003000 694.385000 1 1.000000 1 -3.000000
390 2 296.751000 -806.494000 699.729000 1 1.000000 1 -3.000000
391 2 288.587000 -810.632000 703.323000 1 1.000000 1 -3.000000
392 2 280.789000 -815.177000 707.502000 1 1.000000 1 -3.000000
393 2 273.715000 -821.710000 709.547000 1 1.000000 1 -3.000000
394 2 266.210000 -827.915000 711.566000 1 1.000000 1 -3.000000
395 2 258.829000 -833.227000 715.436000 1 1.000000 1 -3.000000
396 2 253.539000 -838.136000 722.240000 1 1.000000 1 -3.000000
397 2 247.804000 -842.727000 728.817000 1 1.000000 1 -3.000000
398 2 241.240000 -844.974000 735.951000 1 1.000000 1 -3.000000
399 2 234.965000 -847.074000 743.298000 1 1.000000 16 -3.000000
400 1 263.234000 -839.231000 780.232000 1 1.000000 16 0.000000
401 3 279.806000 -823.230000 753.753000 1 1.000000 16 0.000000
402 2 301.016000 -820.167000 801.096000 1 1.000000 16 -3.000000
403 2 302.341000 -813.252000 794.213000 1 1.000000 1 -3.000000
404 2 303.685000 -806.323000 787.273000 1 1.000000 1 -3.000000
405 2 304.940000 -798.327000 781.528000 1 1.000000 1 -3.000000
406 2 304.421000 -791.384000 774.470000 1 1.000000 1 -3.000000
407 2 304.084000 -788.552000 765.047000 1 1.000000 1 -3.000000
408 2 301.736000 -784.964000 756.310000 1 1.000000 1 -3.000000
409 2 297.940000 -781.618000 747.841000 1 1.000000 1 -3.000000
410 2 295.021000 -778.379000 738.932000 1 1.000000 1 -3.000000
411 2 294.085000 -773.362000 730.499000 1 1.000000 1 -3.000000
412 2 292.870000 -766.307000 723.678000 1 1.000000 1 -3.000000
413 2 290.753000 -759.098000 717.099000 1 1.000000 1 -3.000000
414 2 289.514000 -752.009000 710.240000 1 1.000000 1 -3.000000
415 2 289.019000 -746.429000 702.049000 1 1.000000 1 -3.000000
416 2 291.205000 -740.766000 694.265000 1 1.000000 1 -3.000000
417 2 292.364000 -733.977000 687.183000 1 1.000000 1 -3.000000
418 2 292.686000 -726.554000 680.547000 1 1.000000 1 -3.000000
419 2 295.530000 -720.547000 673.245000 1 1.000000 1 -3.000000
420 2 300.481000 -717.600000 665.243000 1 1.000000 1 -3.000000
421 2 307.019000 -715.676000 658.108000 1 1.000000 1 -3.000000
422 2 312.373000 -714.623000 649.833000 1 1.000000 1 -3.000000
423 2 317.290000 -716.364000 641.336000 1 1.000000 1 -3.000000
424 2 323.295000 -719.316000 633.990000 1 1.000000 1 -3.000000
425 2 327.711000 -722.860000 625.923000 1 1.000000 1 -3.000000
426 2 331.442000 -728.338000 618.713000 1 1.000000 17 -3.000000
427 1 302.982000 -764.476000 608.111000 1 1.000000 17 0.000000
428 3 286.874000 -749.188000 635.280000 1 1.000000 17 0.000000
429 2 264.780000 -791.439000 614.415000 1 1.000000 17 -3.000000
430 2 257.945000 -784.930000 617.487000 1 1.000000 1 -3.000000
431 2 253.535000 -776.170000 619.010000 1 1.000000 1 -3.000000
432 2 248.403000 -768.283000 621.934000 1 1.000000 1 -3.000000
433 2 243.873000 -761.748000 627.896000 1 1.000000 1 -3.000000
434 2 242.426000 -755.146000 635.175000 1 1.000000 1 -3.000000
435 2 242.913000 -747.792000 641.777000 1 1.000000 1 -3.000000
436 2 246.098000 -740.228000 647.279000 1 1.000000 1 -3.000000
437 2 248.052000 -731.677000 651.880000 1 1.000000 1 -3.000000
438 2 252.171000 -722.957000 654.094000 1 1.000000 1 -3.000000
439 2 258.537000 -715.673000 656.053000 1 1.000000 1 -3.000000
440 2 262.451000 -706.649000 657.063000 1 1.000000 1 -3.000000
441 2 266.311000 -697.492000 656.679000 1 1.000000 1 -3.000000
442 2 268.546000 -687.851000 657.003000 1 1.000000 1 -3.000000
443 2 269.570000 -678.065000 657.173000 1 1.000000 1 -3.000000
444 2 269.506000 -668.233000 658.242000 1 1.000000 1 -3.000000
445 2 268.902000 -658.362000 658.678000 1 1.000000 1 -3.000000
446 2 269.256000 -648.632000 660.687000 1 1.000000 1 -3.000000
447 2 269.289000 -639.040000 663.024000 1 1.000000 1 -3.000000
448 2 270.966000 -630.127000 666.935000 1 1.000000 1 -3.000000
449 2 275.109000 -621.418000 669.252000 1 1.000000 1 -3.000000
450 2 281.247000 -613.659000 669.969000 1 1.000000 1 -3.000000
451 2 287.613000 -606.136000 668.739000 1 1.000000 1 -3.000000
452 2 295.005000 -599.392000 668.522000 1 1.000000 1 -3.000000
453 2 303.657000 -594.492000 668.276000 1 1.000000 18 -3.000000
454 1 336.700000 -627.552000 674.645000 1 1.000000 18 0.000000
455 3 312.506000 -644.076000 655.465000 1 1.000000 18 0.000000
456 2 355.274000 -670.470000 668.339000 1 1.000000 18 -3.000000
457 2 349.195000 -673.223000 660.942000 1 1.000000 1 -3.000000
458 2 345.597000 -677.068000 652.644000 1 1.000000 1 -3.000000
459 2 338.950000 -679.779000 645.694000 1 1.000000 1 -3.000000
460 2 330.653000 -680.868000 640.454000 1 1.000000 1 -3.000000
461 2 321.394000 -681.192000 636.886000 1 1.000000 1 -3.000000
462 2 313.872000 -680.627000 630.522000 1 1.000000 1 -3.000000
463 2 306.040000 -679.181000 624.620000 1 1.000000 1 -3.000000
464 2 298.611000 -678.073000 618.149000 1 1.000000 1 -3.000000
465 2 292.541000 -675.575000 610.647000 1 1.000000 1 -3.000000
466 2 287.355000 -674.612000 602.409000 1 1.000000 1 -3.000000
467 2 281.485000 -673.938000 594.418000 1 1.000000 1 -3.000000