LAMMPS data file

4067 atoms
4067 ellipsoids
4516 bonds
8882 angles
0 dihedrals

3 atom types
5 bond types
12 angle types
0 dihedral types

-4631.092947 4670.465898 xlo xhi
-4631.092947 4670.465898 ylo yhi
-4631.092947 4670.465898 zlo zhi

Masses

1 196016.000000
2 1950.000000
3 19500.000000

Atoms

1 2 459.482000 -1048.780000 96.469000 1 1.000000 1 -3.000000
2 2 464.190000 -1040.150000 97.146900 1 1.000000 1 -3.000000
3 2 468.968000 -1031.460000 96.369600 1 1.000000 1 -3.000000
4 2 473.517000 -1022.770000 97.149300 1 1.000000 1 -3.000000
5 2 477.799000 -1013.930000 98.304600 1 1.000000 1 -3.000000
6 2 483.141000 -1005.700000 98.730500 1 1.000000 1 -3.000000
7 2 488.415000 -997.651000 96.560700 1 1.000000 1 -3.000000
8 2 493.257000 -989.959000 92.617600 1 1.000000 1 -3.000000
9 2 497.531000 -982.501000 87.661600 1 1.000000 1 -3.000000
10 2 500.655000 -974.126000 83.375500 1 1.000000 1 -3.000000
11 2 503.423000 -966.631000 77.329300 1 1.000000 1 -3.000000
12 2 506.515000 -959.742000 70.906200 1 1.000000 1 -3.000000
13 2 510.589000 -953.703000 64.070400 1 1.000000 1 -3.000000
14 2 512.947000 -947.425000 56.790000 1 1.000000 1 -3.000000
15 2 511.095000 -942.096000 48.697100 1 1.000000 1 -3.000000
16 2 507.531000 -935.886000 41.845900 1 1.000000 1 -3.000000
17 2 505.686000 -928.826000 35.215600 1 1.000000 1 -3.000000
18 2 506.751000 -920.281000 30.248300 1 1.000000 1 -3.000000
19 2 507.525000 -911.200000 26.338100 1 1.000000 1 -3.000000
20 2 507.112000 -901.780000 23.349000 1 1.000000 1 -3.000000
21 2 505.897000 -892.392000 20.461200 1 1.000000 2 -3.000000
22 1 528.047000 -871.352000 56.461000 1 1.000000 2 0.000000
23 3 531.568000 -905.427000 63.685900 1 1.000000 2 0.000000
24 2 551.927000 -871.500000 97.170000 1 1.000000 2 -3.000000
25 2 554.449000 -881.025000 96.385600 1 1.000000 1 -3.000000
26 2 558.045000 -890.279000 96.602600 1 1.000000 1 -3.000000
27 2 561.512000 -899.465000 94.859500 1 1.000000 1 -3.000000
28 2 565.254000 -907.037000 89.733500 1 1.000000 1 -3.000000
29 2 569.321000 -915.419000 86.556800 1 1.000000 1 -3.000000
30 2 570.559000 -924.279000 82.326400 1 1.000000 1 -3.000000
31 2 573.987000 -932.012000 77.098300 1 1.000000 1 -3.000000
32 2 576.904000 -938.270000 69.999800 1 1.000000 1 -3.000000
33 2 580.426000 -944.108000 62.760300 1 1.000000 1 -3.000000
34 2 584.328000 -949.235000 55.280700 1 1.000000 1 -3.000000
35 2 591.845000 -953.843000 50.548600 1 1.000000 1 -3.000000
36 2 599.719000 -958.014000 46.249200 1 1.000000 1 -3.000000
37 2 606.754000 -962.458000 40.899700 1 1.000000 1 -3.000000
38 2 613.099000 -968.406000 36.148000 1 1.000000 1 -3.000000
39 2 618.491000 -975.735000 32.272400 1 1.000000 1 -3.000000
40 2 626.830000 -979.861000 28.816100 1 1.000000 1 -3.000000
41 2 635.098000 -984.428000 25.916000 1 1.000000 1 -3.000000
42 2 640.788000 -990.103000 20.227300 1 1.000000 1 -3.000000
43 2 646.259000 -997.473000 16.320200 1 1.000000 1 -3.000000
44 2 650.930000 -1004.310000 10.799300 1 1.000000 1 -3.000000
45 2 656.545000 -1008.940000 4.006500 1 1.000000 1 -3.000000
46 2 663.790000 -1011.450000 -2.249470 1 1.000000 1 -3.000000
47 2 671.159000 -1015.670000 -7.427690 1 1.000000 1 -3.000000
48 2 677.356000 -1020.260000 -13.642200 1 1.000000 3 -3.000000
49 1 671.738000 -988.692000 -48.263500 1 1.000000 3 0.000000
50 3 654.963000 -974.104000 -21.325800 1 1.000000 3 0.000000
51 2 653.504000 -949.377000 -66.953500 1 1.000000 3 -3.000000
52 2 652.543000 -943.591000 -58.902900 1 1.000000 1 -3.000000
53 2 650.822000 -939.051000 -50.298400 1 1.000000 1 -3.000000
54 2 649.562000 -935.562000 -41.097900 1 1.000000 1 -3.000000
55 2 646.072000 -932.217000 -32.441700 1 1.000000 1 -3.000000
56 2 643.343000 -931.163000 -22.954500 1 1.000000 1 -3.000000
57 2 644.852000 -931.842000 -13.192200 1 1.000000 1 -3.000000
58 2 645.773000 -932.660000 -3.406710 1 1.000000 1 -3.000000
59 2 645.594000 -933.933000 6.490780 1 1.000000 1 -3.000000
60 2 643.008000 -937.834000 15.227100 1 1.000000 1 -3.000000
61 2 641.972000 -940.178000 24.762900 1 1.000000 1 -3.000000
62 2 643.036000 -942.144000 34.427900 1 1.000000 1 -3.000000
63 2 645.248000 -941.769000 44.000700 1 1.000000 1 -3.000000
64 2 647.201000 -942.897000 53.691600 1 1.000000 1 -3.000000
65 2 648.729000 -944.750000 63.291900 1 1.000000 1 -3.000000
66 2 652.714000 -945.519000 72.351200 1 1.000000 1 -3.000000
67 2 658.601000 -948.404000 79.836900 1 1.000000 1 -3.000000
68 2 664.858000 -951.548000 86.867600 1 1.000000 1 -3.000000
69 2 671.412000 -955.094000 93.327200 1 1.000000 1 -3.000000
70 2 677.847000 -959.055000 99.743600 1 1.000000 1 -3.000000
71 2 683.472000 -962.391000 107.113000 1 1.000000 1 -3.000000
72 2 688.085000 -966.456000 114.889000 1 1.000000 1 -3.000000
73 2 692.233000 -970.576000 122.862000 1 1.000000 1 -3.000000
74 2 695.283000 -974.745000 131.213000 1 1.000000 1 -3.000000
75 2 698.726000 -979.985000 138.926000 1 1.000000 4 -3.000000
76 1 663.191000 -968.822000 167.862000 1 1.000000 4 0.000000
77 3 649.162000 -964.562000 136.078000 1 1.000000 4 0.000000
78 2 619.048000 -955.139000 177.137000 1 1.000000 4 -3.000000
79 2 613.055000 -956.412000 169.285000 1 1.000000 1 -3.000000
80 2 609.459000 -956.218000 160.121000 1 1.000000 1 -3.000000
81 2 607.623000 -957.122000 150.438000 1 1.000000 1 -3.000000
82 2 605.149000 -958.690000 141.004000 1 1.000000 1 -3.000000
83 2 604.573000 -961.215000 131.407000 1 1.000000 1 -3.000000
84 2 605.885000 -960.984000 121.587000 1 1.000000 1 -3.000000
85 2 606.785000 -960.807000 111.675000 1 1.000000 1 -3.000000
86 2 609.771000 -959.416000 102.347000 1 1.000000 1 -3.000000
87 2 610.754000 -954.964000 93.543000 1 1.000000 1 -3.000000
88 2 610.663000 -950.360000 84.866100 1 1.000000 1 -3.000000
89 2 613.610000 -944.604000 77.409200 1 1.000000 1 -3.000000
90 2 617.766000 -937.189000 72.367100 1 1.000000 1 -3.000000
91 2 621.507000 -928.785000 68.548100 1 1.000000 1 -3.000000
92 2 624.046000 -919.776000 65.441900 1 1.000000 1 -3.000000
93 2 626.333000 -910.288000 64.006600 1 1.000000 1 -3.000000
94 2 627.962000 -900.951000 61.042300 1 1.000000 1 -3.000000
95 2 629.626000 -891.481000 58.388700 1 1.000000 1 -3.000000
96 2 633.026000 -882.287000 57.150100 1 1.000000 1 -3.000000
97 2 638.597000 -874.177000 56.354600 1 1.000000 1 -3.000000
98 2 643.472000 -865.680000 57.657400 1 1.000000 1 -3.000000
99 2 647.188000 -857.671000 62.070000 1 1.000000 1 -3.000000
100 2 648.120000 -848.094000 64.132700 1 1.000000 1 -3.000000
101 2 646.691000 -838.548000 66.048700 1 1.000000 1 -3.000000
102 2 647.678000 -829.256000 69.195700 1 1.000000 5 -3.000000
103 1 615.660000 -831.304000 103.760000 1 1.000000 5 0.000000
104 3 621.963000 -865.051000 96.642100 1 1.000000 5 0.000000
105 2 587.319000 -854.152000 133.745000 1 1.000000 5 -3.000000
106 2 589.185000 -862.493000 128.650000 1 1.000000 1 -3.000000
107 2 591.853000 -871.607000 125.919000 1 1.000000 1 -3.000000
108 2 595.097000 -880.952000 125.237000 1 1.000000 1 -3.000000
109 2 597.505000 -890.230000 122.797000 1 1.000000 1 -3.000000
110 2 602.279000 -898.485000 120.107000 1 1.000000 1 -3.000000
111 2 610.354000 -903.819000 117.976000 1 1.000000 1 -3.000000
112 2 617.724000 -907.211000 112.394000 1 1.000000 1 -3.000000
113 2 626.395000 -909.932000 108.479000 1 1.000000 1 -3.000000
114 2 634.422000 -911.078000 102.786000 1 1.000000 1 -3.000000
115 2 642.524000 -911.336000 96.990300 1 1.000000 1 -3.000000
116 2 649.652000 -911.097000 90.130100 1 1.000000 1 -3.000000
117 2 657.457000 -909.062000 84.260900 1 1.000000 1 -3.000000
118 2 665.311000 -905.437000 79.330800 1 1.000000 1 -3.000000
119 2 672.673000 -901.443000 73.925700 1 1.000000 1 -3.000000
120 2 679.708000 -897.289000 68.296200 1 1.000000 1 -3.000000
121 2 686.462000 -892.475000 62.776100 1 1.000000 1 -3.000000
122 2 694.145000 -888.548000 57.959000 1 1.000000 1 -3.000000
123 2 702.334000 -884.760000 53.790700 1 1.000000 1 -3.000000
124 2 711.278000 -881.235000 51.446400 1 1.000000 1 -3.000000
125 2 719.733000 -876.128000 51.897800 1 1.000000 1 -3.000000
126 2 727.328000 -871.515000 56.373700 1 1.000000 1 -3.000000
127 2 731.170000 -863.901000 61.425100 1 1.000000 1 -3.000000
128 2 737.535000 -857.137000 64.942300 1 1.000000 1 -3.000000
129 2 744.253000 -850.433000 67.750300 1 1.000000 6 -3.000000
130 1 714.419000 -814.167000 63.669800 1 1.000000 6 0.000000
131 3 693.168000 -842.000000 63.842600 1 1.000000 6 0.000000
132 2 671.550000 -794.875000 59.921300 1 1.000000 6 -3.000000
133 2 668.146000 -801.726000 66.320200 1 1.000000 1 -3.000000
134 2 663.587000 -807.450000 72.819100 1 1.000000 1 -3.000000
135 2 659.105000 -814.878000 77.636200 1 1.000000 1 -3.000000
136 2 657.361000 -823.548000 82.027100 1 1.000000 1 -3.000000
137 2 654.809000 -831.899000 86.793700 1 1.000000 1 -3.000000
138 2 653.996000 -840.408000 91.655400 1 1.000000 1 -3.000000
139 2 653.902000 -848.891000 96.799100 1 1.000000 1 -3.000000
140 2 653.597000 -856.503000 103.156000 1 1.000000 1 -3.000000
141 2 653.584000 -864.499000 108.810000 1 1.000000 1 -3.000000
142 2 654.082000 -870.478000 116.826000 1 1.000000 1 -3.000000
143 2 654.472000 -876.599000 124.534000 1 1.000000 1 -3.000000
144 2 655.223000 -882.440000 132.495000 1 1.000000 1 -3.000000
145 2 655.196000 -890.514000 138.252000 1 1.000000 1 -3.000000
146 2 654.365000 -898.566000 143.850000 1 1.000000 1 -3.000000
147 2 656.591000 -906.768000 148.909000 1 1.000000 1 -3.000000
148 2 659.446000 -913.760000 155.398000 1 1.000000 1 -3.000000
149 2 663.607000 -919.319000 162.521000 1 1.000000 1 -3.000000
150 2 669.586000 -923.883000 169.009000 1 1.000000 1 -3.000000
151 2 675.461000 -928.641000 175.320000 1 1.000000 1 -3.000000
152 2 682.247000 -931.367000 182.109000 1 1.000000 1 -3.000000
153 2 688.517000 -933.991000 189.137000 1 1.000000 1 -3.000000
154 2 695.752000 -935.635000 195.690000 1 1.000000 1 -3.000000
155 2 704.456000 -936.383000 200.485000 1 1.000000 1 -3.000000
156 2 713.307000 -935.242000 204.788000 1 1.000000 7 -3.000000
157 1 726.823000 -890.517000 197.920000 1 1.000000 7 0.000000
158 3 692.700000 -889.958000 189.720000 1 1.000000 7 0.000000
159 2 720.127000 -846.275000 182.912000 1 1.000000 7 -3.000000
160 2 710.212000 -846.233000 182.625000 1 1.000000 1 -3.000000
161 2 700.371000 -845.957000 183.245000 1 1.000000 1 -3.000000
162 2 690.525000 -845.150000 184.635000 1 1.000000 1 -3.000000
163 2 680.749000 -846.605000 185.686000 1 1.000000 1 -3.000000
164 2 672.243000 -851.203000 187.846000 1 1.000000 1 -3.000000
165 2 665.311000 -857.836000 190.417000 1 1.000000 1 -3.000000
166 2 658.593000 -864.637000 193.113000 1 1.000000 1 -3.000000
167 2 651.956000 -871.251000 196.389000 1 1.000000 1 -3.000000
168 2 645.175000 -877.651000 199.660000 1 1.000000 1 -3.000000
169 2 638.341000 -882.568000 204.744000 1 1.000000 1 -3.000000
170 2 631.151000 -884.007000 211.370000 1 1.000000 1 -3.000000
171 2 623.214000 -885.836000 217.011000 1 1.000000 1 -3.000000
172 2 615.663000 -888.447000 222.829000 1 1.000000 1 -3.000000
173 2 607.250000 -890.112000 227.655000 1 1.000000 1 -3.000000
174 2 601.379000 -893.510000 234.834000 1 1.000000 1 -3.000000
175 2 594.380000 -895.968000 241.390000 1 1.000000 1 -3.000000
176 2 587.576000 -896.624000 248.650000 1 1.000000 1 -3.000000
177 2 581.052000 -896.968000 256.057000 1 1.000000 1 -3.000000
178 2 574.244000 -893.849000 262.598000 1 1.000000 1 -3.000000
179 2 567.441000 -888.760000 267.643000 1 1.000000 1 -3.000000
180 2 562.413000 -882.061000 273.135000 1 1.000000 1 -3.000000
181 2 560.371000 -874.814000 279.658000 1 1.000000 1 -3.000000
182 2 558.175000 -869.010000 287.315000 1 1.000000 1 -3.000000
183 2 554.700000 -862.479000 293.961000 1 1.000000 8 -3.000000
184 1 586.672000 -869.843000 327.843000 1 1.000000 8 0.000000
185 3 596.256000 -892.367000 302.769000 1 1.000000 8 0.000000
186 2 625.130000 -890.381000 345.863000 1 1.000000 8 -3.000000
187 2 628.844000 -895.647000 338.353000 1 1.000000 1 -3.000000
188 2 632.365000 -900.512000 330.450000 1 1.000000 1 -3.000000
189 2 634.927000 -903.348000 321.283000 1 1.000000 1 -3.000000
190 2 637.297000 -906.108000 312.080000 1 1.000000 1 -3.000000
191 2 637.160000 -908.847000 302.452000 1 1.000000 1 -3.000000
192 2 634.614000 -912.246000 293.410000 1 1.000000 1 -3.000000
193 2 631.116000 -917.455000 285.697000 1 1.000000 1 -3.000000
194 2 626.862000 -925.437000 281.566000 1 1.000000 1 -3.000000
195 2 619.964000 -931.132000 277.219000 1 1.000000 1 -3.000000
196 2 612.643000 -936.898000 273.840000 1 1.000000 1 -3.000000
197 2 605.665000 -942.246000 269.242000 1 1.000000 1 -3.000000
198 2 600.534000 -948.293000 263.318000 1 1.000000 1 -3.000000
199 2 596.997000 -955.491000 257.425000 1 1.000000 1 -3.000000
200 2 592.452000 -962.320000 251.856000 1 1.000000 1 -3.000000
201 2 590.302000 -967.481000 243.697000 1 1.000000 1 -3.000000
202 2 589.912000 -975.152000 237.450000 1 1.000000 1 -3.000000
203 2 589.498000 -982.328000 230.582000 1 1.000000 1 -3.000000
204 2 589.133000 -989.057000 223.246000 1 1.000000 1 -3.000000
205 2 590.334000 -994.577000 215.085000 1 1.000000 1 -3.000000
206 2 590.689000 -999.435000 206.395000 1 1.000000 1 -3.000000
207 2 592.631000 -1004.540000 198.148000 1 1.000000 1 -3.000000
208 2 594.501000 -1008.640000 189.302000 1 1.000000 1 -3.000000
209 2 595.123000 -1011.720000 179.896000 1 1.000000 1 -3.000000
210 2 595.632000 -1013.650000 170.202000 1 1.000000 9 -3.000000
211 1 560.350000 -990.234000 149.366000 1 1.000000 9 0.000000
212 3 564.081000 -973.675000 180.090000 1 1.000000 9 0.000000
213 2 528.510000 -955.506000 146.901000 1 1.000000 9 -3.000000
214 2 532.504000 -950.542000 154.563000 1 1.000000 1 -3.000000
215 2 535.829000 -945.524000 162.378000 1 1.000000 1 -3.000000
216 2 537.861000 -939.218000 169.723000 1 1.000000 1 -3.000000
217 2 540.352000 -935.991000 178.748000 1 1.000000 1 -3.000000
218 2 542.699000 -934.627000 188.250000 1 1.000000 1 -3.000000
219 2 542.285000 -932.680000 197.958000 1 1.000000 1 -3.000000
220 2 542.883000 -931.488000 207.799000 1 1.000000 1 -3.000000
221 2 542.242000 -930.556000 217.595000 1 1.000000 1 -3.000000
222 2 540.154000 -929.649000 227.258000 1 1.000000 1 -3.000000
223 2 539.048000 -928.692000 237.086000 1 1.000000 1 -3.000000
224 2 539.482000 -930.431000 246.846000 1 1.000000 1 -3.000000
225 2 539.657000 -932.359000 256.618000 1 1.000000 1 -3.000000
226 2 539.847000 -934.270000 266.374000 1 1.000000 1 -3.000000
227 2 539.156000 -934.686000 276.261000 1 1.000000 1 -3.000000
228 2 536.054000 -936.652000 285.454000 1 1.000000 1 -3.000000
229 2 532.604000 -937.657000 294.673000 1 1.000000 1 -3.000000
230 2 529.987000 -938.477000 304.117000 1 1.000000 1 -3.000000
231 2 527.235000 -940.016000 313.482000 1 1.000000 1 -3.000000
232 2 525.840000 -938.340000 323.111000 1 1.000000 1 -3.000000
233 2 520.711000 -936.009000 331.303000 1 1.000000 1 -3.000000
234 2 515.118000 -932.614000 338.610000 1 1.000000 1 -3.000000
235 2 508.776000 -929.061000 345.305000 1 1.000000 1 -3.000000
236 2 501.520000 -925.656000 351.017000 1 1.000000 1 -3.000000
237 2 493.891000 -923.081000 356.695000 1 1.000000 10 -3.000000
238 1 461.933000 -911.370000 324.024000 1 1.000000 10 0.000000
239 3 484.811000 -930.870000 306.186000 1 1.000000 10 0.000000
240 2 442.791000 -913.908000 280.971000 1 1.000000 10 -3.000000
241 2 447.375000 -921.628000 276.713000 1 1.000000 1 -3.000000
242 2 453.449000 -928.128000 272.363000 1 1.000000 1 -3.000000
243 2 459.333000 -935.634000 269.516000 1 1.000000 1 -3.000000
244 2 465.802000 -943.050000 268.676000 1 1.000000 1 -3.000000
245 2 471.044000 -951.402000 267.737000 1 1.000000 1 -3.000000
246 2 473.655000 -960.859000 268.221000 1 1.000000 1 -3.000000
247 2 475.232000 -970.641000 267.382000 1 1.000000 1 -3.000000
248 2 477.864000 -979.953000 265.125000 1 1.000000 1 -3.000000
249 2 479.155000 -989.689000 263.786000 1 1.000000 1 -3.000000
250 2 480.146000 -999.214000 261.066000 1 1.000000 1 -3.000000
251 2 480.568000 -1008.330000 257.281000 1 1.000000 1 -3.000000
252 2 481.636000 -1017.450000 253.381000 1 1.000000 1 -3.000000
253 2 482.855000 -1027.210000 252.937000 1 1.000000 1 -3.000000
254 2 483.957000 -1036.980000 254.059000 1 1.000000 1 -3.000000
255 2 486.002000 -1046.040000 257.568000 1 1.000000 1 -3.000000
256 2 486.440000 -1055.740000 259.285000 1 1.000000 1 -3.000000
257 2 490.845000 -1063.780000 262.879000 1 1.000000 1 -3.000000
258 2 495.641000 -1072.220000 264.954000 1 1.000000 1 -3.000000
259 2 500.692000 -1080.220000 267.702000 1 1.000000 1 -3.000000
260 2 505.350000 -1086.630000 273.717000 1 1.000000 1 -3.000000
261 2 508.688000 -1093.350000 280.162000 1 1.000000 1 -3.000000
262 2 508.865000 -1100.220000 287.383000 1 1.000000 1 -3.000000
263 2 509.416000 -1106.990000 294.477000 1 1.000000 1 -3.000000
264 2 511.520000 -1113.450000 301.680000 1 1.000000 11 -3.000000
265 1 476.719000 -1099.600000 330.400000 1 1.000000 11 0.000000
266 3 470.135000 -1082.080000 300.875000 1 1.000000 11 0.000000
267 2 438.434000 -1074.240000 341.141000 1 1.000000 11 -3.000000
268 2 434.376000 -1073.340000 332.269000 1 1.000000 1 -3.000000
269 2 430.323000 -1073.520000 323.275000 1 1.000000 1 -3.000000
270 2 428.108000 -1073.200000 313.634000 1 1.000000 1 -3.000000
271 2 425.180000 -1072.030000 304.252000 1 1.000000 1 -3.000000
272 2 423.667000 -1071.580000 294.489000 1 1.000000 1 -3.000000
273 2 419.760000 -1069.890000 285.491000 1 1.000000 1 -3.000000
274 2 415.176000 -1069.550000 276.661000 1 1.000000 1 -3.000000
275 2 408.692000 -1069.930000 269.179000 1 1.000000 1 -3.000000
276 2 403.344000 -1069.430000 260.885000 1 1.000000 1 -3.000000
277 2 399.975000 -1070.000000 251.544000 1 1.000000 1 -3.000000
278 2 397.749000 -1068.870000 242.029000 1 1.000000 1 -3.000000
279 2 394.712000 -1068.750000 232.577000 1 1.000000 1 -3.000000
280 2 390.852000 -1065.920000 223.888000 1 1.000000 1 -3.000000
281 2 387.029000 -1064.930000 214.960000 1 1.000000 1 -3.000000
282 2 383.932000 -1061.840000 206.038000 1 1.000000 1 -3.000000
283 2 381.293000 -1059.110000 196.847000 1 1.000000 1 -3.000000
284 2 377.003000 -1056.040000 188.472000 1 1.000000 1 -3.000000
285 2 370.365000 -1053.400000 181.667000 1 1.000000 1 -3.000000
286 2 364.804000 -1052.950000 173.460000 1 1.000000 1 -3.000000
287 2 359.481000 -1054.470000 165.199000 1 1.000000 1 -3.000000
288 2 354.097000 -1057.850000 157.657000 1 1.000000 1 -3.000000
289 2 349.024000 -1062.450000 150.577000 1 1.000000 1 -3.000000
290 2 344.794000 -1068.570000 144.139000 1 1.000000 1 -3.000000
291 2 338.873000 -1072.910000 137.454000 1 1.000000 12 -3.000000
292 1 357.703000 -1115.190000 146.419000 1 1.000000 12 0.000000
293 3 362.638000 -1097.880000 176.342000 1 1.000000 12 0.000000
294 2 380.833000 -1146.200000 173.404000 1 1.000000 12 -3.000000
295 2 378.523000 -1140.780000 181.292000 1 1.000000 1 -3.000000
296 2 374.820000 -1136.920000 189.693000 1 1.000000 1 -3.000000
297 2 371.125000 -1133.730000 198.303000 1 1.000000 1 -3.000000
298 2 366.643000 -1129.400000 206.007000 1 1.000000 1 -3.000000
299 2 361.829000 -1124.250000 212.942000 1 1.000000 1 -3.000000
300 2 358.203000 -1117.160000 218.844000 1 1.000000 1 -3.000000
301 2 354.338000 -1110.080000 224.601000 1 1.000000 1 -3.000000
302 2 351.532000 -1104.190000 232.034000 1 1.000000 1 -3.000000
303 2 348.217000 -1100.020000 240.428000 1 1.000000 1 -3.000000
304 2 343.496000 -1095.860000 248.022000 1 1.000000 1 -3.000000
305 2 337.586000 -1092.620000 255.248000 1 1.000000 1 -3.000000
306 2 331.246000 -1091.660000 262.718000 1 1.000000 1 -3.000000
307 2 323.225000 -1091.970000 268.484000 1 1.000000 1 -3.000000
308 2 315.080000 -1091.850000 274.182000 1 1.000000 1 -3.000000
309 2 307.170000 -1092.970000 280.050000 1 1.000000 1 -3.000000
310 2 299.333000 -1094.230000 285.878000 1 1.000000 1 -3.000000
311 2 291.217000 -1096.070000 291.191000 1 1.000000 1 -3.000000
312 2 283.512000 -1098.760000 296.680000 1 1.000000 1 -3.000000
313 2 276.863000 -1103.710000 302.103000 1 1.000000 1 -3.000000
314 2 269.952000 -1109.580000 306.075000 1 1.000000 1 -3.000000
315 2 262.982000 -1115.230000 310.159000 1 1.000000 1 -3.000000
316 2 257.759000 -1123.260000 312.688000 1 1.000000 1 -3.000000
317 2 251.818000 -1131.170000 312.711000 1 1.000000 1 -3.000000
318 2 246.778000 -1139.560000 314.320000 1 1.000000 13 -3.000000
319 1 245.931000 -1157.830000 270.813000 1 1.000000 13 0.000000
320 3 269.104000 -1131.750000 268.107000 1 1.000000 13 0.000000
321 2 260.068000 -1160.750000 225.946000 1 1.000000 13 -3.000000
322 2 268.919000 -1156.300000 225.965000 1 1.000000 1 -3.000000
323 2 277.534000 -1151.520000 226.063000 1 1.000000 1 -3.000000
324 2 285.042000 -1145.450000 228.043000 1 1.000000 1 -3.000000
325 2 291.661000 -1138.120000 229.618000 1 1.000000 1 -3.000000
326 2 296.823000 -1129.750000 230.872000 1 1.000000 1 -3.000000
327 2 300.164000 -1120.550000 232.549000 1 1.000000 1 -3.000000
328 2 301.813000 -1110.750000 232.859000 1 1.000000 1 -3.000000
329 2 305.615000 -1101.760000 234.314000 1 1.000000 1 -3.000000
330 2 309.812000 -1092.790000 234.582000 1 1.000000 1 -3.000000
331 2 311.661000 -1083.040000 234.221000 1 1.000000 1 -3.000000
332 2 312.669000 -1073.350000 233.030000 1 1.000000 1 -3.000000
333 2 313.952000 -1063.790000 230.618000 1 1.000000 1 -3.000000
334 2 317.098000 -1054.960000 227.212000 1 1.000000 1 -3.000000
335 2 321.105000 -1046.180000 225.085000 1 1.000000 1 -3.000000
336 2 325.183000 -1037.490000 223.024000 1 1.000000 1 -3.000000
337 2 329.201000 -1028.500000 221.346000 1 1.000000 1 -3.000000
338 2 332.017000 -1019.440000 218.511000 1 1.000000 1 -3.000000
339 2 336.530000 -1011.090000 215.593000 1 1.000000 1 -3.000000
340 2 340.662000 -1002.120000 214.238000 1 1.000000 1 -3.000000
341 2 345.074000 -993.281000 213.910000 1 1.000000 1 -3.000000
342 2 350.168000 -984.749000 213.749000 1 1.000000 1 -3.000000
343 2 356.103000 -976.724000 214.195000 1 1.000000 1 -3.000000
344 2 361.819000 -968.997000 211.666000 1 1.000000 1 -3.000000
345 2 368.550000 -962.000000 209.712000 1 1.000000 14 -3.000000
346 1 384.614000 -976.365000 167.744000 1 1.000000 14 0.000000
347 3 354.360000 -993.599000 171.155000 1 1.000000 14 0.000000
348 2 382.588000 -1002.170000 128.311000 1 1.000000 14 -3.000000
349 2 373.235000 -1004.540000 130.364000 1 1.000000 1 -3.000000
350 2 363.436000 -1005.310000 131.584000 1 1.000000 1 -3.000000
351 2 353.777000 -1004.170000 129.906000 1 1.000000 1 -3.000000
352 2 343.913000 -1002.940000 129.647000 1 1.000000 1 -3.000000
353 2 334.356000 -1001.170000 131.322000 1 1.000000 1 -3.000000
354 2 325.565000 -999.005000 135.151000 1 1.000000 1 -3.000000
355 2 316.325000 -997.131000 138.196000 1 1.000000 1 -3.000000
356 2 307.516000 -997.749000 142.688000 1 1.000000 1 -3.000000
357 2 298.097000 -997.253000 145.859000 1 1.000000 1 -3.000000
358 2 288.849000 -999.532000 148.880000 1 1.000000 1 -3.000000
359 2 279.620000 -1002.810000 149.635000 1 1.000000 1 -3.000000
360 2 270.124000 -1005.670000 149.880000 1 1.000000 1 -3.000000
361 2 260.439000 -1007.280000 150.960000 1 1.000000 1 -3.000000
362 2 251.440000 -1009.750000 154.203000 1 1.000000 1 -3.000000
363 2 241.788000 -1011.430000 155.060000 1 1.000000 1 -3.000000
364 2 232.021000 -1013.090000 154.841000 1 1.000000 1 -3.000000
365 2 222.584000 -1012.880000 151.831000 1 1.000000 1 -3.000000
366 2 212.969000 -1011.910000 149.461000 1 1.000000 1 -3.000000
367 2 203.329000 -1011.610000 147.209000 1 1.000000 1 -3.000000
368 2 193.602000 -1011.800000 145.481000 1 1.000000 1 -3.000000
369 2 183.836000 -1013.110000 144.540000 1 1.000000 1 -3.000000
370 2 174.659000 -1016.230000 142.751000 1 1.000000 1 -3.000000
371 2 165.797000 -1020.490000 141.921000 1 1.000000 1 -3.000000
372 2 157.200000 -1025.230000 140.844000 1 1.000000 15 -3.000000
373 1 157.834000 -1009.810000 96.258400 1 1.000000 15 0.000000
374 3 183.181000 -991.144000 111.487000 1 1.000000 15 0.000000
375 2 173.507000 -982.377000 61.256400 1 1.000000 15 -3.000000
376 2 181.390000 -977.963000 65.105300 1 1.000000 1 -3.000000
377 2 188.465000 -973.378000 70.260800 1 1.000000 1 -3.000000
378 2 196.225000 -969.331000 74.907500 1 1.000000 1 -3.000000
379 2 203.395000 -965.521000 80.627700 1 1.000000 1 -3.000000
380 2 209.867000 -962.801000 87.631400 1 1.000000 1 -3.000000
381 2 213.495000 -959.031000 96.094100 1 1.000000 1 -3.000000
382 2 217.109000 -955.092000 104.395000 1 1.000000 1 -3.000000
383 2 220.337000 -951.471000 113.026000 1 1.000000 1 -3.000000
384 2 223.690000 -948.678000 121.903000 1 1.000000 1 -3.000000
385 2 226.574000 -945.933000 131.015000 1 1.000000 1 -3.000000
386 2 229.803000 -944.352000 140.208000 1 1.000000 1 -3.000000
387 2 233.112000 -943.400000 149.506000 1 1.000000 1 -3.000000
388 2 235.390000 -941.706000 158.886000 1 1.000000 1 -3.000000
389 2 236.404000 -940.772000 168.637000 1 1.000000 1 -3.000000
390 2 237.382000 -939.036000 178.390000 1 1.000000 1 -3.000000
391 2 237.479000 -940.588000 188.141000 1 1.000000 1 -3.000000
392 2 234.366000 -942.173000 197.420000 1 1.000000 1 -3.000000
393 2 230.644000 -944.835000 206.135000 1 1.000000 1 -3.000000
394 2 226.700000 -949.307000 214.031000 1 1.000000 1 -3.000000
395 2 221.590000 -953.747000 221.200000 1 1.000000 1 -3.000000
396 2 218.195000 -959.177000 228.750000 1 1.000000 1 -3.000000
397 2 212.807000 -964.674000 234.975000 1 1.000000 1 -3.000000
398 2 207.728000 -970.555000 241.102000 1 1.000000 1 -3.000000
399 2 203.720000 -975.070000 248.990000 1 1.000000 16 -3.000000
400 1 177.146000 -999.746000 218.850000 1 1.000000 16 0.000000
401 3 194.474000 -977.543000 198.028000 1 1.000000 16 0.000000
402 2 159.176000 -1008.800000 176.120000 1 1.000000 16 -3.000000
403 2 165.920000 -1005.380000 169.703000 1 1.000000 1 -3.000000
404 2 173.359000 -1001.030000 165.005000 1 1.000000 1 -3.000000
405 2 178.374000 -995.275000 158.687000 1 1.000000 1 -3.000000
406 2 184.383000 -988.422000 154.992000 1 1.000000 1 -3.000000
407 2 190.597000 -980.935000 153.136000 1 1.000000 1 -3.000000
408 2 194.841000 -972.204000 151.162000 1 1.000000 1 -3.000000
409 2 198.643000 -963.369000 148.766000 1 1.000000 1 -3.000000
410 2 203.109000 -954.837000 146.554000 1 1.000000 1 -3.000000
411 2 206.567000 -945.988000 143.977000 1 1.000000 1 -3.000000
412 2 210.213000 -936.975000 142.246000 1 1.000000 1 -3.000000
413 2 213.006000 -927.873000 139.594000 1 1.000000 1 -3.000000
414 2 214.624000 -918.254000 137.506000 1 1.000000 1 -3.000000
415 2 216.051000 -908.489000 137.287000 1 1.000000 1 -3.000000
416 2 216.882000 -898.747000 138.765000 1 1.000000 1 -3.000000
417 2 219.852000 -889.322000 139.243000 1 1.000000 1 -3.000000
418 2 225.901000 -881.465000 138.952000 1 1.000000 1 -3.000000
419 2 231.638000 -873.453000 139.434000 1 1.000000 1 -3.000000
420 2 236.371000 -864.842000 139.469000 1 1.000000 1 -3.000000
421 2 240.463000 -855.843000 139.043000 1 1.000000 1 -3.000000
422 2 246.994000 -848.429000 139.750000 1 1.000000 1 -3.000000
423 2 254.575000 -842.053000 139.493000 1 1.000000 1 -3.000000
424 2 261.291000 -834.835000 138.398000 1 1.000000 1 -3.000000
425 2 268.826000 -828.299000 138.558000 1 1.000000 1 -3.000000
426 2 277.827000 -824.286000 139.181000 1 1.000000 17 -3.000000
427 1 310.020000 -856.479000 151.413000 1 1.000000 17 0.000000
428 3 280.740000 -875.257000 147.787000 1 1.000000 17 0.000000
429 2 324.281000 -900.383000 161.110000 1 1.000000 17 -3.000000
430 2 316.225000 -905.037000 157.617000 1 1.000000 1 -3.000000
431 2 307.857000 -909.541000 154.984000 1 1.000000 1 -3.000000
432 2 299.738000 -914.645000 152.704000 1 1.000000 1 -3.000000
433 2 291.606000 -918.343000 148.519000 1 1.000000 1 -3.000000
434 2 284.503000 -917.590000 141.708000 1 1.000000 1 -3.000000
435 2 276.782000 -915.385000 135.914000 1 1.000000 1 -3.000000
436 2 270.085000 -912.051000 129.523000 1 1.000000 1 -3.000000
437 2 263.435000 -908.188000 123.235000 1 1.000000 1 -3.000000
438 2 255.635000 -904.735000 118.366000 1 1.000000 1 -3.000000
439 2 246.077000 -902.824000 116.087000 1 1.000000 1 -3.000000
440 2 236.879000 -899.236000 115.386000 1 1.000000 1 -3.000000
441 2 227.645000 -895.816000 113.761000 1 1.000000 1 -3.000000
442 2 218.909000 -891.515000 111.798000 1 1.000000 1 -3.000000
443 2 209.550000 -888.599000 110.443000 1 1.000000 1 -3.000000
444 2 200.069000 -886.240000 108.343000 1 1.000000 1 -3.000000
445 2 190.227000 -884.882000 108.301000 1 1.000000 1 -3.000000
446 2 180.432000 -883.780000 108.483000 1 1.000000 1 -3.000000
447 2 170.514000 -884.725000 108.059000 1 1.000000 1 -3.000000
448 2 160.846000 -884.213000 105.961000 1 1.000000 1 -3.000000
449 2 151.031000 -884.705000 105.230000 1 1.000000 1 -3.000000
450 2 141.663000 -881.569000 106.099000 1 1.000000 1 -3.000000
451 2 131.943000 -879.507000 106.930000 1 1.000000 1 -3.000000
452 2 122.194000 -880.816000 107.899000 1 1.000000 1 -3.000000
453 2 112.388000 -881.952000 109.194000 1 1.000000 18 -3.000000
454 1 116.535000 -906.056000 149.583000 1 1.000000 18 0.000000
455 3 145.152000 -885.865000 149.326000 1 1.000000 18 0.000000
456 2 138.534000 -917.958000 189.566000 1 1.000000 18 -3.000000
457 2 141.709000 -909.414000 193.430000 1 1.000000 1 -3.000000
458 2 146.093000 -900.766000 195.577000 1 1.000000 1 -3.000000
459 2 151.582000 -892.433000 194.802000 1 1.000000 1 -3.000000
460 2 156.010000 -883.901000 192.448000 1 1.000000 1 -3.000000
461 2 160.761000 -875.592000 189.866000 1 1.000000 1 -3.000000
462 2 164.318000 -868.042000 184.624000 1 1.000000 1 -3.000000
463 2 165.214000 -859.733000 179.265000 1 1.000000 1 -3.000000
464 2 166.497000 -851.628000 173.594000 1 1.000000 1 -3.000000
465 2 169.697000 -843.212000 169.431000 1 1.000000 1 -3.000000
466 2 171.024000 -834.778000 164.311000 1 1.000000 1 -3.000000
467 2 172.866000 -825.456000 161.298000 1 1.000000 1 -3.000000
468 2 172.986000 -815.810000 158.800000 1 1.000000 1 -3.000000
469 2 170.596000 -806.656000 156.065000 1 1.000000 1 -3.000000
470 2 168.183000 -797.760000 152.421000 1 1.000000 1 -3.000000
471 2 166.932000 -789.559000 146.864000 1 1.000000 1 -3.000000
472 2 164.554000 -782.197000 140.568000 1 1.000000 1 -3.000000