LAMMPS data file

4067 atoms
4067 ellipsoids
4516 bonds
8882 angles
0 dihedrals

3 atom types
5 bond types
12 angle types
0 dihedral types

-4631.092947 4670.465898 xlo xhi
-4631.092947 4670.465898 ylo yhi
-4631.092947 4670.465898 zlo zhi

Masses

1 196016.000000
2 1950.000000
3 19500.000000

Atoms

1 2 788.613000 -250.988000 214.711000 1 1.000000 1 -3.000000
2 2 790.761000 -247.997000 205.531000 1 1.000000 1 -3.000000
3 2 792.155000 -245.540000 196.026000 1 1.000000 1 -3.000000
4 2 792.427000 -242.648000 186.622000 1 1.000000 1 -3.000000
5 2 791.882000 -241.459000 176.803000 1 1.000000 1 -3.000000
6 2 792.015000 -238.682000 167.325000 1 1.000000 1 -3.000000
7 2 794.136000 -234.731000 158.505000 1 1.000000 1 -3.000000
8 2 797.046000 -231.854000 149.472000 1 1.000000 1 -3.000000
9 2 800.605000 -227.421000 141.325000 1 1.000000 1 -3.000000
10 2 804.321000 -223.677000 132.922000 1 1.000000 1 -3.000000
11 2 807.513000 -222.533000 123.635000 1 1.000000 1 -3.000000
12 2 810.947000 -218.727000 115.111000 1 1.000000 1 -3.000000
13 2 812.870000 -214.164000 106.459000 1 1.000000 1 -3.000000
14 2 815.028000 -207.272000 99.593400 1 1.000000 1 -3.000000
15 2 817.656000 -199.972000 93.415800 1 1.000000 1 -3.000000
16 2 819.225000 -192.644000 86.840700 1 1.000000 1 -3.000000
17 2 821.768000 -185.528000 80.494500 1 1.000000 1 -3.000000
18 2 825.194000 -179.746000 73.283700 1 1.000000 1 -3.000000
19 2 828.600000 -174.037000 65.849100 1 1.000000 1 -3.000000
20 2 830.876000 -169.334000 57.488500 1 1.000000 1 -3.000000
21 2 832.596000 -162.607000 50.488700 1 1.000000 2 -3.000000
22 1 835.635000 -185.154000 9.208050 1 1.000000 2 0.000000
23 3 851.272000 -207.195000 31.392300 1 1.000000 2 0.000000
24 2 847.891000 -221.429000 -18.414300 1 1.000000 2 -3.000000
25 2 847.723000 -228.808000 -11.885300 1 1.000000 1 -3.000000
26 2 848.175000 -236.826000 -6.098200 1 1.000000 1 -3.000000
27 2 848.596000 -242.937000 1.633990 1 1.000000 1 -3.000000
28 2 851.232000 -246.795000 10.415000 1 1.000000 1 -3.000000
29 2 854.241000 -249.271000 19.615100 1 1.000000 1 -3.000000
30 2 856.936000 -250.917000 28.996700 1 1.000000 1 -3.000000
31 2 858.236000 -250.411000 38.761100 1 1.000000 1 -3.000000
32 2 859.224000 -250.108000 48.712200 1 1.000000 1 -3.000000
33 2 859.414000 -248.070000 58.388400 1 1.000000 1 -3.000000
34 2 858.173000 -244.984000 67.778500 1 1.000000 1 -3.000000
35 2 857.604000 -240.463000 76.539800 1 1.000000 1 -3.000000
36 2 860.083000 -235.793000 84.885900 1 1.000000 1 -3.000000
37 2 862.532000 -228.828000 91.587300 1 1.000000 1 -3.000000
38 2 865.702000 -222.292000 98.306400 1 1.000000 1 -3.000000
39 2 868.472000 -214.948000 104.265000 1 1.000000 1 -3.000000
40 2 871.204000 -208.506000 111.271000 1 1.000000 1 -3.000000
41 2 874.294000 -203.013000 118.986000 1 1.000000 1 -3.000000
42 2 877.627000 -197.396000 126.370000 1 1.000000 1 -3.000000
43 2 880.349000 -190.193000 132.581000 1 1.000000 1 -3.000000
44 2 881.842000 -182.391000 138.602000 1 1.000000 1 -3.000000
45 2 882.007000 -173.243000 142.325000 1 1.000000 1 -3.000000
46 2 881.449000 -163.408000 143.504000 1 1.000000 1 -3.000000
47 2 882.168000 -153.831000 145.931000 1 1.000000 1 -3.000000
48 2 884.588000 -144.578000 148.427000 1 1.000000 3 -3.000000
49 1 882.694000 -127.579000 104.479000 1 1.000000 3 0.000000
50 3 870.042000 -160.046000 101.151000 1 1.000000 3 0.000000
51 2 872.981000 -130.424000 58.442100 1 1.000000 3 -3.000000
52 2 866.928000 -138.292000 58.061200 1 1.000000 1 -3.000000
53 2 861.900000 -146.580000 56.773700 1 1.000000 1 -3.000000
54 2 857.197000 -155.036000 58.166500 1 1.000000 1 -3.000000
55 2 853.233000 -164.031000 59.356300 1 1.000000 1 -3.000000
56 2 851.973000 -173.364000 62.405600 1 1.000000 1 -3.000000
57 2 853.667000 -181.750000 67.606900 1 1.000000 1 -3.000000
58 2 859.221000 -189.297000 70.905300 1 1.000000 1 -3.000000
59 2 865.410000 -196.627000 73.211400 1 1.000000 1 -3.000000
60 2 872.117000 -203.882000 71.941800 1 1.000000 1 -3.000000
61 2 876.271000 -212.207000 68.840100 1 1.000000 1 -3.000000
62 2 880.051000 -220.087000 64.351900 1 1.000000 1 -3.000000
63 2 884.299000 -228.284000 60.953200 1 1.000000 1 -3.000000
64 2 889.006000 -236.725000 58.673600 1 1.000000 1 -3.000000
65 2 893.910000 -245.299000 58.190400 1 1.000000 1 -3.000000
66 2 899.259000 -253.513000 57.186400 1 1.000000 1 -3.000000
67 2 901.268000 -263.126000 55.933000 1 1.000000 1 -3.000000
68 2 903.469000 -272.666000 54.541000 1 1.000000 1 -3.000000
69 2 904.849000 -282.291000 52.484500 1 1.000000 1 -3.000000
70 2 905.470000 -291.877000 50.067400 1 1.000000 1 -3.000000
71 2 902.784000 -300.758000 46.577200 1 1.000000 1 -3.000000
72 2 900.659000 -307.349000 39.613400 1 1.000000 1 -3.000000
73 2 898.436000 -312.113000 31.160400 1 1.000000 1 -3.000000
74 2 897.472000 -319.043000 24.046500 1 1.000000 1 -3.000000
75 2 893.960000 -326.227000 18.302900 1 1.000000 4 -3.000000
76 1 897.224000 -296.396000 -18.114100 1 1.000000 4 0.000000
77 3 909.127000 -277.552000 8.830540 1 1.000000 4 0.000000
78 2 907.490000 -254.854000 -37.965200 1 1.000000 4 -3.000000
79 2 915.296000 -252.749000 -32.098700 1 1.000000 1 -3.000000
80 2 922.572000 -249.783000 -26.112500 1 1.000000 1 -3.000000
81 2 929.379000 -247.575000 -19.227700 1 1.000000 1 -3.000000
82 2 935.171000 -245.966000 -11.360600 1 1.000000 1 -3.000000
83 2 937.513000 -244.540000 -1.815450 1 1.000000 1 -3.000000
84 2 939.069000 -244.413000 7.979900 1 1.000000 1 -3.000000
85 2 940.200000 -245.165000 17.838200 1 1.000000 1 -3.000000
86 2 941.074000 -243.647000 27.517300 1 1.000000 1 -3.000000
87 2 943.970000 -243.836000 37.057000 1 1.000000 1 -3.000000
88 2 948.200000 -244.693000 45.955900 1 1.000000 1 -3.000000
89 2 951.937000 -244.687000 55.098700 1 1.000000 1 -3.000000
90 2 955.359000 -243.253000 64.290300 1 1.000000 1 -3.000000
91 2 959.125000 -241.741000 73.190500 1 1.000000 1 -3.000000
92 2 964.170000 -239.871000 81.470600 1 1.000000 1 -3.000000
93 2 970.776000 -238.346000 88.646500 1 1.000000 1 -3.000000
94 2 976.975000 -235.975000 95.952200 1 1.000000 1 -3.000000
95 2 982.677000 -232.956000 103.464000 1 1.000000 1 -3.000000
96 2 989.509000 -231.495000 110.448000 1 1.000000 1 -3.000000
97 2 995.806000 -228.229000 117.277000 1 1.000000 1 -3.000000
98 2 1003.990000 -224.715000 121.777000 1 1.000000 1 -3.000000
99 2 1010.870000 -220.487000 127.562000 1 1.000000 1 -3.000000
100 2 1018.570000 -216.206000 131.864000 1 1.000000 1 -3.000000
101 2 1026.400000 -211.315000 135.253000 1 1.000000 1 -3.000000
102 2 1035.180000 -207.819000 138.074000 1 1.000000 5 -3.000000
103 1 1027.780000 -210.336000 184.623000 1 1.000000 5 0.000000
104 3 1001.680000 -229.465000 171.245000 1 1.000000 5 0.000000
105 2 1003.720000 -223.896000 222.862000 1 1.000000 5 -3.000000
106 2 996.042000 -228.472000 218.674000 1 1.000000 1 -3.000000
107 2 991.214000 -236.027000 214.515000 1 1.000000 1 -3.000000
108 2 986.049000 -243.571000 210.616000 1 1.000000 1 -3.000000
109 2 981.471000 -250.695000 205.369000 1 1.000000 1 -3.000000
110 2 976.512000 -255.240000 198.156000 1 1.000000 1 -3.000000
111 2 973.221000 -259.101000 189.640000 1 1.000000 1 -3.000000
112 2 973.983000 -262.999000 180.601000 1 1.000000 1 -3.000000
113 2 975.706000 -267.652000 172.066000 1 1.000000 1 -3.000000
114 2 978.730000 -270.086000 162.937000 1 1.000000 1 -3.000000
115 2 980.970000 -273.884000 154.038000 1 1.000000 1 -3.000000
116 2 980.945000 -278.945000 145.515000 1 1.000000 1 -3.000000
117 2 981.525000 -283.502000 136.798000 1 1.000000 1 -3.000000
118 2 985.162000 -287.628000 128.503000 1 1.000000 1 -3.000000
119 2 987.823000 -289.871000 119.281000 1 1.000000 1 -3.000000
120 2 991.143000 -290.072000 109.961000 1 1.000000 1 -3.000000
121 2 992.877000 -290.099000 100.255000 1 1.000000 1 -3.000000
122 2 997.314000 -287.833000 91.655600 1 1.000000 1 -3.000000
123 2 1002.870000 -283.978000 84.384000 1 1.000000 1 -3.000000
124 2 1008.550000 -281.200000 76.845800 1 1.000000 1 -3.000000
125 2 1016.180000 -278.615000 71.194800 1 1.000000 1 -3.000000
126 2 1022.250000 -272.040000 66.989000 1 1.000000 1 -3.000000
127 2 1029.300000 -265.247000 65.365100 1 1.000000 1 -3.000000
128 2 1037.330000 -259.536000 64.786100 1 1.000000 1 -3.000000
129 2 1046.350000 -255.559000 65.850200 1 1.000000 6 -3.000000
130 1 1030.170000 -217.225000 88.210400 1 1.000000 6 0.000000
131 3 1009.350000 -242.838000 99.938000 1 1.000000 6 0.000000
132 2 1000.910000 -194.882000 117.738000 1 1.000000 6 -3.000000
133 2 995.174000 -202.370000 121.064000 1 1.000000 1 -3.000000
134 2 990.685000 -209.760000 125.856000 1 1.000000 1 -3.000000
135 2 987.546000 -218.225000 130.048000 1 1.000000 1 -3.000000
136 2 984.464000 -227.077000 133.290000 1 1.000000 1 -3.000000
137 2 982.307000 -236.528000 134.867000 1 1.000000 1 -3.000000
138 2 977.112000 -244.870000 134.619000 1 1.000000 1 -3.000000
139 2 972.554000 -253.675000 135.352000 1 1.000000 1 -3.000000
140 2 966.536000 -261.540000 135.918000 1 1.000000 1 -3.000000
141 2 963.371000 -270.735000 137.314000 1 1.000000 1 -3.000000
142 2 959.805000 -280.011000 137.673000 1 1.000000 1 -3.000000
143 2 957.354000 -289.594000 137.330000 1 1.000000 1 -3.000000
144 2 956.955000 -299.432000 138.317000 1 1.000000 1 -3.000000
145 2 957.807000 -307.784000 143.502000 1 1.000000 1 -3.000000
146 2 958.007000 -316.869000 147.435000 1 1.000000 1 -3.000000
147 2 960.897000 -323.826000 153.931000 1 1.000000 1 -3.000000
148 2 963.861000 -330.689000 160.327000 1 1.000000 1 -3.000000
149 2 967.552000 -336.302000 167.699000 1 1.000000 1 -3.000000
150 2 969.313000 -341.690000 175.776000 1 1.000000 1 -3.000000
151 2 969.956000 -349.280000 182.075000 1 1.000000 1 -3.000000
152 2 968.381000 -356.548000 188.631000 1 1.000000 1 -3.000000
153 2 965.896000 -364.835000 193.437000 1 1.000000 1 -3.000000
154 2 962.236000 -373.111000 197.410000 1 1.000000 1 -3.000000
155 2 957.031000 -379.828000 202.522000 1 1.000000 1 -3.000000
156 2 952.142000 -386.128000 208.358000 1 1.000000 7 -3.000000
157 1 916.019000 -390.200000 178.259000 1 1.000000 7 0.000000
158 3 939.921000 -372.516000 159.698000 1 1.000000 7 0.000000
159 2 894.165000 -382.290000 137.158000 1 1.000000 7 -3.000000
160 2 902.088000 -380.656000 131.449000 1 1.000000 1 -3.000000
161 2 909.174000 -379.412000 124.639000 1 1.000000 1 -3.000000
162 2 918.341000 -378.355000 120.954000 1 1.000000 1 -3.000000
163 2 927.577000 -378.091000 117.574000 1 1.000000 1 -3.000000
164 2 937.237000 -376.598000 115.551000 1 1.000000 1 -3.000000
165 2 946.756000 -374.043000 114.833000 1 1.000000 1 -3.000000
166 2 956.368000 -371.967000 114.061000 1 1.000000 1 -3.000000
167 2 965.995000 -370.219000 112.819000 1 1.000000 1 -3.000000
168 2 975.578000 -371.275000 110.571000 1 1.000000 1 -3.000000
169 2 985.183000 -371.761000 108.028000 1 1.000000 1 -3.000000
170 2 994.543000 -370.602000 105.329000 1 1.000000 1 -3.000000
171 2 1004.120000 -368.741000 103.915000 1 1.000000 1 -3.000000
172 2 1013.570000 -367.489000 101.248000 1 1.000000 1 -3.000000
173 2 1023.050000 -369.004000 99.275700 1 1.000000 1 -3.000000
174 2 1032.600000 -368.325000 96.994300 1 1.000000 1 -3.000000
175 2 1042.400000 -367.253000 95.705200 1 1.000000 1 -3.000000
176 2 1052.300000 -366.832000 96.557500 1 1.000000 1 -3.000000
177 2 1061.460000 -369.623000 99.004000 1 1.000000 1 -3.000000
178 2 1069.650000 -372.150000 103.910000 1 1.000000 1 -3.000000
179 2 1078.720000 -375.295000 106.269000 1 1.000000 1 -3.000000
180 2 1087.830000 -378.917000 106.765000 1 1.000000 1 -3.000000
181 2 1095.980000 -384.056000 104.440000 1 1.000000 1 -3.000000
182 2 1104.860000 -388.407000 103.767000 1 1.000000 1 -3.000000
183 2 1113.600000 -391.991000 106.875000 1 1.000000 8 -3.000000
184 1 1102.830000 -429.663000 80.615200 1 1.000000 8 0.000000
185 3 1075.690000 -408.151000 75.239200 1 1.000000 8 0.000000
186 2 1074.930000 -454.509000 51.876300 1 1.000000 8 -3.000000
187 2 1067.440000 -448.442000 49.525700 1 1.000000 1 -3.000000
188 2 1060.580000 -441.613000 47.556200 1 1.000000 1 -3.000000
189 2 1055.270000 -433.669000 45.150600 1 1.000000 1 -3.000000
190 2 1050.630000 -425.131000 43.324900 1 1.000000 1 -3.000000
191 2 1047.590000 -415.795000 42.366500 1 1.000000 1 -3.000000
192 2 1044.770000 -406.339000 43.545500 1 1.000000 1 -3.000000
193 2 1043.700000 -396.871000 45.938800 1 1.000000 1 -3.000000
194 2 1039.710000 -387.898000 47.683100 1 1.000000 1 -3.000000
195 2 1035.970000 -378.735000 47.738800 1 1.000000 1 -3.000000
196 2 1031.600000 -370.068000 46.176000 1 1.000000 1 -3.000000
197 2 1028.300000 -360.781000 46.963600 1 1.000000 1 -3.000000
198 2 1024.610000 -351.697000 45.803000 1 1.000000 1 -3.000000
199 2 1021.160000 -342.637000 43.930800 1 1.000000 1 -3.000000
200 2 1017.060000 -334.073000 41.038100 1 1.000000 1 -3.000000
201 2 1011.910000 -325.921000 39.074000 1 1.000000 1 -3.000000
202 2 1006.010000 -318.561000 36.296100 1 1.000000 1 -3.000000
203 2 999.881000 -311.619000 33.088500 1 1.000000 1 -3.000000
204 2 992.895000 -305.825000 29.096700 1 1.000000 1 -3.000000
205 2 987.111000 -298.853000 25.013200 1 1.000000 1 -3.000000
206 2 982.643000 -294.097000 17.576800 1 1.000000 1 -3.000000
207 2 978.851000 -289.808000 9.506390 1 1.000000 1 -3.000000
208 2 976.751000 -285.880000 0.763702 1 1.000000 1 -3.000000
209 2 978.406000 -281.863000 -8.159330 1 1.000000 1 -3.000000
210 2 977.331000 -278.050000 -17.228400 1 1.000000 9 -3.000000
211 1 995.987000 -314.413000 -40.756300 1 1.000000 9 0.000000
212 3 988.205000 -328.210000 -9.567340 1 1.000000 9 0.000000
213 2 1012.410000 -358.477000 -44.216800 1 1.000000 9 -3.000000
214 2 1005.940000 -361.816000 -37.394700 1 1.000000 1 -3.000000
215 2 999.980000 -366.602000 -30.985900 1 1.000000 1 -3.000000
216 2 992.917000 -370.716000 -25.291500 1 1.000000 1 -3.000000
217 2 985.926000 -372.043000 -18.535700 1 1.000000 1 -3.000000
218 2 978.716000 -372.765000 -11.765700 1 1.000000 1 -3.000000
219 2 972.107000 -370.453000 -4.717400 1 1.000000 1 -3.000000
220 2 967.264000 -369.955000 3.871030 1 1.000000 1 -3.000000
221 2 960.399000 -370.338000 10.968700 1 1.000000 1 -3.000000
222 2 952.397000 -369.856000 16.749500 1 1.000000 1 -3.000000
223 2 944.518000 -370.833000 22.680800 1 1.000000 1 -3.000000
224 2 938.395000 -373.561000 29.960400 1 1.000000 1 -3.000000
225 2 933.623000 -375.761000 38.389100 1 1.000000 1 -3.000000
226 2 927.343000 -377.862000 45.683100 1 1.000000 1 -3.000000
227 2 920.903000 -379.573000 53.046700 1 1.000000 1 -3.000000
228 2 915.119000 -382.521000 60.341700 1 1.000000 1 -3.000000
229 2 908.738000 -384.716000 67.623100 1 1.000000 1 -3.000000
230 2 902.687000 -384.327000 75.410100 1 1.000000 1 -3.000000
231 2 896.233000 -383.223000 82.838400 1 1.000000 1 -3.000000
232 2 888.512000 -379.546000 87.695200 1 1.000000 1 -3.000000
233 2 882.144000 -373.942000 92.759300 1 1.000000 1 -3.000000
234 2 876.498000 -367.684000 98.031200 1 1.000000 1 -3.000000
235 2 871.873000 -360.277000 102.631000 1 1.000000 1 -3.000000
236 2 867.941000 -352.547000 107.263000 1 1.000000 1 -3.000000
237 2 862.446000 -345.542000 111.473000 1 1.000000 10 -3.000000
238 1 855.477000 -346.600000 158.144000 1 1.000000 10 0.000000
239 3 862.042000 -380.076000 150.249000 1 1.000000 10 0.000000
240 2 849.869000 -368.813000 199.412000 1 1.000000 10 -3.000000
241 2 854.592000 -377.118000 197.035000 1 1.000000 1 -3.000000
242 2 860.802000 -384.662000 195.006000 1 1.000000 1 -3.000000
243 2 865.865000 -392.575000 191.878000 1 1.000000 1 -3.000000
244 2 870.464000 -400.273000 187.506000 1 1.000000 1 -3.000000
245 2 873.292000 -408.170000 182.183000 1 1.000000 1 -3.000000
246 2 874.150000 -415.216000 175.309000 1 1.000000 1 -3.000000
247 2 875.655000 -420.680000 167.248000 1 1.000000 1 -3.000000
248 2 875.119000 -427.194000 159.865000 1 1.000000 1 -3.000000
249 2 871.618000 -432.892000 152.636000 1 1.000000 1 -3.000000
250 2 868.365000 -436.599000 144.082000 1 1.000000 1 -3.000000
251 2 864.446000 -438.765000 135.305000 1 1.000000 1 -3.000000
252 2 861.627000 -442.860000 126.758000 1 1.000000 1 -3.000000
253 2 858.502000 -445.281000 117.618000 1 1.000000 1 -3.000000
254 2 855.051000 -446.386000 108.456000 1 1.000000 1 -3.000000
255 2 849.957000 -448.857000 100.264000 1 1.000000 1 -3.000000
256 2 842.201000 -449.582000 94.136600 1 1.000000 1 -3.000000
257 2 833.061000 -448.317000 90.340200 1 1.000000 1 -3.000000
258 2 823.835000 -444.916000 89.660500 1 1.000000 1 -3.000000
259 2 814.879000 -440.793000 88.699700 1 1.000000 1 -3.000000
260 2 806.310000 -436.720000 85.939400 1 1.000000 1 -3.000000
261 2 798.197000 -432.818000 81.800100 1 1.000000 1 -3.000000
262 2 791.797000 -427.907000 75.990900 1 1.000000 1 -3.000000
263 2 786.097000 -422.021000 70.235000 1 1.000000 1 -3.000000
264 2 781.194000 -415.806000 64.202100 1 1.000000 11 -3.000000
265 1 794.535000 -373.438000 80.121400 1 1.000000 11 0.000000
266 3 819.945000 -394.628000 91.508800 1 1.000000 11 0.000000
267 2 824.048000 -344.049000 102.313000 1 1.000000 11 -3.000000
268 2 830.739000 -350.616000 105.695000 1 1.000000 1 -3.000000
269 2 837.890000 -357.382000 107.103000 1 1.000000 1 -3.000000
270 2 845.795000 -363.359000 107.312000 1 1.000000 1 -3.000000
271 2 853.550000 -369.599000 107.036000 1 1.000000 1 -3.000000
272 2 858.414000 -378.202000 106.442000 1 1.000000 1 -3.000000
273 2 862.439000 -387.293000 105.947000 1 1.000000 1 -3.000000
274 2 866.950000 -395.958000 107.757000 1 1.000000 1 -3.000000
275 2 873.445000 -402.735000 111.052000 1 1.000000 1 -3.000000
276 2 880.114000 -409.667000 113.612000 1 1.000000 1 -3.000000
277 2 886.793000 -416.249000 116.930000 1 1.000000 1 -3.000000
278 2 893.648000 -422.752000 119.859000 1 1.000000 1 -3.000000
279 2 900.559000 -429.226000 123.110000 1 1.000000 1 -3.000000
280 2 906.140000 -435.204000 128.690000 1 1.000000 1 -3.000000
281 2 911.776000 -441.521000 133.802000 1 1.000000 1 -3.000000
282 2 916.753000 -448.496000 138.723000 1 1.000000 1 -3.000000
283 2 923.388000 -454.862000 142.418000 1 1.000000 1 -3.000000
284 2 929.827000 -461.765000 145.052000 1 1.000000 1 -3.000000
285 2 935.418000 -469.822000 146.560000 1 1.000000 1 -3.000000
286 2 941.853000 -476.848000 144.012000 1 1.000000 1 -3.000000
287 2 948.214000 -484.233000 142.545000 1 1.000000 1 -3.000000
288 2 955.740000 -489.751000 139.388000 1 1.000000 1 -3.000000
289 2 964.106000 -494.978000 138.116000 1 1.000000 1 -3.000000
290 2 973.080000 -498.454000 135.835000 1 1.000000 1 -3.000000
291 2 982.256000 -500.626000 132.889000 1 1.000000 12 -3.000000
292 1 1002.950000 -458.214000 133.462000 1 1.000000 12 0.000000
293 3 974.897000 -453.665000 153.811000 1 1.000000 12 0.000000
294 2 1007.930000 -413.947000 149.203000 1 1.000000 12 -3.000000
295 2 1000.700000 -413.412000 155.859000 1 1.000000 1 -3.000000
296 2 994.451000 -414.150000 163.556000 1 1.000000 1 -3.000000
297 2 987.307000 -413.091000 170.211000 1 1.000000 1 -3.000000
298 2 982.752000 -417.287000 178.066000 1 1.000000 1 -3.000000
299 2 979.147000 -423.226000 185.127000 1 1.000000 1 -3.000000
300 2 976.281000 -429.549000 192.145000 1 1.000000 1 -3.000000
301 2 974.973000 -438.187000 196.906000 1 1.000000 1 -3.000000
302 2 971.862000 -447.288000 198.956000 1 1.000000 1 -3.000000
303 2 970.398000 -456.836000 200.871000 1 1.000000 1 -3.000000
304 2 971.918000 -466.108000 203.981000 1 1.000000 1 -3.000000
305 2 973.767000 -475.443000 206.928000 1 1.000000 1 -3.000000
306 2 976.927000 -484.382000 209.452000 1 1.000000 1 -3.000000
307 2 980.723000 -493.499000 211.007000 1 1.000000 1 -3.000000
308 2 983.809000 -502.761000 212.390000 1 1.000000 1 -3.000000
309 2 988.910000 -511.120000 213.395000 1 1.000000 1 -3.000000
310 2 993.424000 -519.464000 216.262000 1 1.000000 1 -3.000000
311 2 999.870000 -526.512000 218.667000 1 1.000000 1 -3.000000
312 2 1006.820000 -533.070000 221.272000 1 1.000000 1 -3.000000
313 2 1013.070000 -539.315000 225.834000 1 1.000000 1 -3.000000
314 2 1014.610000 -547.416000 231.375000 1 1.000000 1 -3.000000
315 2 1015.180000 -554.278000 238.477000 1 1.000000 1 -3.000000
316 2 1014.290000 -562.144000 244.437000 1 1.000000 1 -3.000000
317 2 1013.050000 -570.657000 249.224000 1 1.000000 1 -3.000000
318 2 1011.690000 -579.264000 253.808000 1 1.000000 13 -3.000000
319 1 970.027000 -568.351000 273.201000 1 1.000000 13 0.000000
320 3 972.494000 -545.885000 246.465000 1 1.000000 13 0.000000
321 2 931.720000 -541.212000 278.181000 1 1.000000 13 -3.000000
322 2 931.562000 -537.414000 269.071000 1 1.000000 1 -3.000000
323 2 930.499000 -533.361000 260.052000 1 1.000000 1 -3.000000
324 2 929.632000 -530.063000 250.792000 1 1.000000 1 -3.000000
325 2 931.345000 -530.442000 241.149000 1 1.000000 1 -3.000000
326 2 933.799000 -530.555000 231.568000 1 1.000000 1 -3.000000
327 2 936.765000 -532.674000 222.381000 1 1.000000 1 -3.000000
328 2 939.792000 -533.955000 212.988000 1 1.000000 1 -3.000000
329 2 943.548000 -538.380000 204.956000 1 1.000000 1 -3.000000
330 2 946.410000 -543.752000 197.134000 1 1.000000 1 -3.000000
331 2 946.513000 -550.017000 189.334000 1 1.000000 1 -3.000000
332 2 944.969000 -557.659000 183.149000 1 1.000000 1 -3.000000
333 2 943.883000 -565.174000 176.731000 1 1.000000 1 -3.000000
334 2 943.754000 -572.594000 170.231000 1 1.000000 1 -3.000000
335 2 942.999000 -579.845000 163.409000 1 1.000000 1 -3.000000
336 2 944.841000 -586.159000 156.055000 1 1.000000 1 -3.000000
337 2 947.466000 -592.595000 148.889000 1 1.000000 1 -3.000000
338 2 948.960000 -599.686000 142.106000 1 1.000000 1 -3.000000
339 2 951.617000 -607.059000 136.055000 1 1.000000 1 -3.000000
340 2 955.119000 -614.297000 130.335000 1 1.000000 1 -3.000000
341 2 959.340000 -621.282000 124.729000 1 1.000000 1 -3.000000
342 2 965.078000 -628.842000 122.394000 1 1.000000 1 -3.000000
343 2 968.406000 -638.039000 121.310000 1 1.000000 1 -3.000000
344 2 974.158000 -646.046000 119.970000 1 1.000000 1 -3.000000
345 2 979.919000 -653.086000 116.127000 1 1.000000 14 -3.000000
346 1 1005.170000 -654.379000 155.968000 1 1.000000 14 0.000000
347 3 977.973000 -633.953000 164.308000 1 1.000000 14 0.000000
348 2 1014.960000 -641.157000 200.155000 1 1.000000 14 -3.000000
349 2 1005.620000 -640.359000 203.233000 1 1.000000 1 -3.000000
350 2 995.862000 -641.330000 204.755000 1 1.000000 1 -3.000000
351 2 986.108000 -640.901000 207.121000 1 1.000000 1 -3.000000
352 2 976.338000 -641.458000 208.460000 1 1.000000 1 -3.000000
353 2 966.560000 -642.888000 207.214000 1 1.000000 1 -3.000000
354 2 956.921000 -644.031000 205.475000 1 1.000000 1 -3.000000
355 2 947.046000 -643.168000 204.449000 1 1.000000 1 -3.000000
356 2 937.338000 -642.006000 202.502000 1 1.000000 1 -3.000000
357 2 927.655000 -642.786000 200.676000 1 1.000000 1 -3.000000
358 2 918.063000 -645.013000 200.682000 1 1.000000 1 -3.000000
359 2 908.604000 -647.967000 200.264000 1 1.000000 1 -3.000000
360 2 899.495000 -651.489000 201.838000 1 1.000000 1 -3.000000
361 2 890.541000 -655.675000 200.974000 1 1.000000 1 -3.000000
362 2 881.106000 -658.592000 202.138000 1 1.000000 1 -3.000000
363 2 872.055000 -662.642000 202.205000 1 1.000000 1 -3.000000
364 2 863.217000 -665.551000 205.519000 1 1.000000 1 -3.000000
365 2 854.689000 -670.300000 207.610000 1 1.000000 1 -3.000000
366 2 846.098000 -675.176000 207.225000 1 1.000000 1 -3.000000
367 2 837.260000 -679.738000 206.973000 1 1.000000 1 -3.000000
368 2 827.475000 -680.460000 208.074000 1 1.000000 1 -3.000000
369 2 817.799000 -678.811000 208.869000 1 1.000000 1 -3.000000
370 2 808.315000 -675.859000 208.898000 1 1.000000 1 -3.000000
371 2 798.603000 -674.000000 209.926000 1 1.000000 1 -3.000000
372 2 788.975000 -671.581000 210.028000 1 1.000000 15 -3.000000
373 1 790.771000 -638.248000 176.678000 1 1.000000 15 0.000000
374 3 819.763000 -656.996000 170.942000 1 1.000000 15 0.000000
375 2 810.237000 -616.935000 139.345000 1 1.000000 15 -3.000000
376 2 815.486000 -625.127000 137.010000 1 1.000000 1 -3.000000
377 2 820.651000 -633.195000 134.737000 1 1.000000 1 -3.000000
378 2 825.865000 -640.759000 130.993000 1 1.000000 1 -3.000000
379 2 830.526000 -649.388000 129.399000 1 1.000000 1 -3.000000
380 2 836.380000 -657.264000 131.213000 1 1.000000 1 -3.000000
381 2 842.391000 -664.083000 135.023000 1 1.000000 1 -3.000000
382 2 847.272000 -671.762000 139.119000 1 1.000000 1 -3.000000
383 2 850.009000 -680.455000 143.003000 1 1.000000 1 -3.000000
384 2 853.545000 -687.298000 149.218000 1 1.000000 1 -3.000000
385 2 856.704000 -694.730000 154.790000 1 1.000000 1 -3.000000
386 2 860.883000 -702.092000 159.895000 1 1.000000 1 -3.000000
387 2 867.119000 -709.250000 162.645000 1 1.000000 1 -3.000000
388 2 871.435000 -717.418000 166.060000 1 1.000000 1 -3.000000
389 2 875.341000 -725.868000 169.543000 1 1.000000 1 -3.000000
390 2 880.820000 -733.489000 172.860000 1 1.000000 1 -3.000000
391 2 887.429000 -740.261000 175.753000 1 1.000000 1 -3.000000
392 2 894.222000 -747.157000 177.862000 1 1.000000 1 -3.000000
393 2 899.593000 -753.428000 183.355000 1 1.000000 1 -3.000000
394 2 905.784000 -760.555000 186.402000 1 1.000000 1 -3.000000
395 2 913.214000 -766.608000 188.775000 1 1.000000 1 -3.000000
396 2 918.473000 -774.635000 191.223000 1 1.000000 1 -3.000000
397 2 922.957000 -783.343000 192.303000 1 1.000000 1 -3.000000
398 2 927.252000 -791.783000 195.077000 1 1.000000 1 -3.000000
399 2 931.255000 -800.740000 196.279000 1 1.000000 16 -3.000000
400 1 893.231000 -820.778000 215.693000 1 1.000000 16 0.000000
401 3 879.971000 -793.640000 197.898000 1 1.000000 16 0.000000
402 2 846.925000 -824.432000 223.777000 1 1.000000 16 -3.000000
403 2 843.349000 -819.797000 215.831000 1 1.000000 1 -3.000000
404 2 840.037000 -813.304000 209.150000 1 1.000000 1 -3.000000
405 2 836.547000 -806.495000 202.827000 1 1.000000 1 -3.000000
406 2 834.116000 -799.467000 196.306000 1 1.000000 1 -3.000000
407 2 834.965000 -791.675000 190.065000 1 1.000000 1 -3.000000
408 2 836.409000 -784.179000 183.828000 1 1.000000 1 -3.000000
409 2 839.995000 -777.322000 177.606000 1 1.000000 1 -3.000000
410 2 841.955000 -769.472000 171.853000 1 1.000000 1 -3.000000
411 2 841.452000 -759.962000 169.199000 1 1.000000 1 -3.000000
412 2 839.899000 -750.729000 165.983000 1 1.000000 1 -3.000000
413 2 836.487000 -742.476000 161.726000 1 1.000000 1 -3.000000
414 2 834.174000 -735.267000 155.352000 1 1.000000 1 -3.000000
415 2 830.147000 -728.563000 149.307000 1 1.000000 1 -3.000000
416 2 827.345000 -724.504000 140.643000 1 1.000000 1 -3.000000
417 2 823.842000 -721.650000 131.892000 1 1.000000 1 -3.000000
418 2 819.256000 -717.412000 124.203000 1 1.000000 1 -3.000000
419 2 815.442000 -714.334000 115.611000 1 1.000000 1 -3.000000
420 2 814.220000 -710.132000 106.694000 1 1.000000 1 -3.000000
421 2 813.578000 -704.164000 98.824900 1 1.000000 1 -3.000000
422 2 814.603000 -701.422000 89.359400 1 1.000000 1 -3.000000
423 2 817.784000 -698.790000 80.331400 1 1.000000 1 -3.000000
424 2 820.995000 -697.204000 71.022200 1 1.000000 1 -3.000000
425 2 822.922000 -694.675000 61.625700 1 1.000000 1 -3.000000
426 2 827.651000 -693.170000 53.036200 1 1.000000 17 -3.000000
427 1 847.098000 -735.635000 46.236400 1 1.000000 17 0.000000
428 3 829.427000 -739.632000 76.178000 1 1.000000 17 0.000000
429 2 856.094000 -780.391000 58.221500 1 1.000000 17 -3.000000
430 2 848.002000 -780.722000 63.865700 1 1.000000 1 -3.000000
431 2 840.898000 -782.749000 70.535600 1 1.000000 1 -3.000000
432 2 832.897000 -783.523000 76.310700 1 1.000000 1 -3.000000
433 2 824.735000 -782.785000 81.775200 1 1.000000 1 -3.000000
434 2 817.106000 -780.324000 87.569000 1 1.000000 1 -3.000000
435 2 810.360000 -777.535000 94.260700 1 1.000000 1 -3.000000
436 2 803.591000 -775.044000 101.101000 1 1.000000 1 -3.000000
437 2 796.380000 -772.720000 107.383000 1 1.000000 1 -3.000000
438 2 787.461000 -771.315000 111.525000 1 1.000000 1 -3.000000
439 2 779.951000 -769.257000 117.682000 1 1.000000 1 -3.000000
440 2 771.781000 -768.132000 123.242000 1 1.000000 1 -3.000000
441 2 763.317000 -766.656000 128.122000 1 1.000000 1 -3.000000
442 2 754.245000 -765.789000 132.009000 1 1.000000 1 -3.000000
443 2 745.169000 -763.725000 135.297000 1 1.000000 1 -3.000000
444 2 736.327000 -761.057000 138.892000 1 1.000000 1 -3.000000
445 2 727.358000 -759.973000 142.711000 1 1.000000 1 -3.000000
446 2 718.052000 -760.414000 146.049000 1 1.000000 1 -3.000000
447 2 708.274000 -761.346000 146.604000 1 1.000000 1 -3.000000
448 2 698.471000 -760.430000 147.618000 1 1.000000 1 -3.000000
449 2 688.664000 -759.165000 147.305000 1 1.000000 1 -3.000000
450 2 678.949000 -759.641000 145.666000 1 1.000000 1 -3.000000
451 2 669.893000 -762.430000 143.025000 1 1.000000 1 -3.000000
452 2 661.124000 -765.394000 139.534000 1 1.000000 1 -3.000000
453 2 651.805000 -766.099000 136.409000 1 1.000000 18 -3.000000
454 1 663.957000 -785.232000 95.035400 1 1.000000 18 0.000000
455 3 693.158000 -788.475000 114.291000 1 1.000000 18 0.000000
456 2 693.883000 -806.920000 65.714200 1 1.000000 18 -3.000000
457 2 700.354000 -810.480000 72.313400 1 1.000000 1 -3.000000
458 2 707.591000 -813.037000 78.428600 1 1.000000 1 -3.000000
459 2 715.762000 -813.366000 84.135900 1 1.000000 1 -3.000000
460 2 723.031000 -813.674000 90.841400 1 1.000000 1 -3.000000
461 2 728.916000 -812.406000 98.607500 1 1.000000 1 -3.000000
462 2 732.239000 -810.873000 107.756000 1 1.000000 1 -3.000000
463 2 734.733000 -808.518000 117.065000 1 1.000000 1 -3.000000
464 2 737.840000 -806.451000 126.202000 1 1.000000 1 -3.000000
465 2 740.702000 -804.779000 135.549000 1 1.000000 1 -3.000000
466 2 743.866000 -803.913000 144.930000 1 1.000000 1 -3.000000
467 2 749.449000 -802.882000 153.034000 1 1.000000 1 -3.000000
468 2 755.881000 -801.476000 160.464000 1 1.000000 1 -3.000000
469 2 762.258000 -799.171000 167.661000 1 1.000000 1 -3.000000
470 2 770.283000 -795.136000 171.652000 1 1.000000 1 -3.000000
471 2 776.614000 -789.330000 176.547000 1 1.000000 1 -3.000000
472 2 781.539000 -783.596000 182.973000 1 1.000000 1 -3.000000
473 2 785.837000 -778.492000 190.312000 1 1.000000 1 -3.000000
474 2 790.915000 -774.504000 197.799000 1 1.000000 1 -3.000000