LAMMPS data file

4067 atoms
4067 ellipsoids
4516 bonds
8882 angles
0 dihedrals

3 atom types
5 bond types
12 angle types
0 dihedral types

-4631.092947 4670.465898 xlo xhi
-4631.092947 4670.465898 ylo yhi
-4631.092947 4670.465898 zlo zhi

Masses

1 196016.000000
2 1950.000000
3 19500.000000

Atoms

1 2 228.074000 -39.616800 -169.494000 1 1.000000 1 -3.000000
2 2 221.220000 -43.172600 -163.312000 1 1.000000 1 -3.000000
3 2 214.743000 -45.812100 -156.317000 1 1.000000 1 -3.000000
4 2 207.748000 -48.988600 -150.062000 1 1.000000 1 -3.000000
5 2 200.235000 -54.047200 -145.912000 1 1.000000 1 -3.000000
6 2 191.970000 -59.060000 -143.919000 1 1.000000 1 -3.000000
7 2 184.121000 -64.949000 -142.355000 1 1.000000 1 -3.000000
8 2 175.401000 -69.709000 -142.200000 1 1.000000 1 -3.000000
9 2 166.922000 -74.817600 -142.234000 1 1.000000 1 -3.000000
10 2 159.342000 -81.089300 -143.399000 1 1.000000 1 -3.000000
11 2 151.548000 -87.146700 -144.709000 1 1.000000 1 -3.000000
12 2 144.350000 -93.925500 -144.978000 1 1.000000 1 -3.000000
13 2 136.289000 -99.657000 -144.034000 1 1.000000 1 -3.000000
14 2 128.742000 -105.636000 -141.667000 1 1.000000 1 -3.000000
15 2 121.862000 -112.677000 -140.734000 1 1.000000 1 -3.000000
16 2 115.162000 -119.709000 -138.917000 1 1.000000 1 -3.000000
17 2 107.515000 -125.511000 -136.607000 1 1.000000 1 -3.000000
18 2 98.662200 -128.467000 -133.592000 1 1.000000 1 -3.000000
19 2 90.095400 -130.407000 -128.723000 1 1.000000 1 -3.000000
20 2 81.181500 -132.266000 -124.681000 1 1.000000 1 -3.000000
21 2 71.899400 -133.110000 -121.287000 1 1.000000 2 -3.000000
22 1 58.386400 -88.485300 -114.431000 1 1.000000 2 0.000000
23 3 85.417800 -85.354900 -136.387000 1 1.000000 2 0.000000
24 2 60.797400 -41.981400 -122.028000 1 1.000000 2 -3.000000
25 2 66.748400 -44.613100 -129.462000 1 1.000000 1 -3.000000
26 2 71.330200 -43.930300 -138.192000 1 1.000000 1 -3.000000
27 2 77.009300 -43.690500 -146.400000 1 1.000000 1 -3.000000
28 2 82.652400 -44.989400 -154.316000 1 1.000000 1 -3.000000
29 2 88.126500 -48.076000 -162.010000 1 1.000000 1 -3.000000
30 2 93.541100 -53.228200 -168.486000 1 1.000000 1 -3.000000
31 2 99.543400 -57.819500 -174.955000 1 1.000000 1 -3.000000
32 2 103.520000 -62.033200 -183.050000 1 1.000000 1 -3.000000
33 2 106.946000 -66.835500 -191.113000 1 1.000000 1 -3.000000
34 2 110.570000 -70.924000 -199.378000 1 1.000000 1 -3.000000
35 2 113.192000 -75.551300 -207.686000 1 1.000000 1 -3.000000
36 2 113.305000 -82.704400 -214.602000 1 1.000000 1 -3.000000
37 2 113.549000 -89.890900 -221.453000 1 1.000000 1 -3.000000
38 2 115.540000 -96.717100 -228.370000 1 1.000000 1 -3.000000
39 2 116.934000 -103.957000 -234.956000 1 1.000000 1 -3.000000
40 2 118.935000 -110.348000 -242.269000 1 1.000000 1 -3.000000
41 2 122.788000 -115.523000 -249.793000 1 1.000000 1 -3.000000
42 2 125.964000 -122.023000 -256.494000 1 1.000000 1 -3.000000
43 2 130.618000 -127.084000 -263.655000 1 1.000000 1 -3.000000
44 2 134.102000 -131.659000 -271.623000 1 1.000000 1 -3.000000
45 2 136.533000 -138.171000 -278.575000 1 1.000000 1 -3.000000
46 2 137.475000 -144.340000 -286.233000 1 1.000000 1 -3.000000
47 2 135.738000 -151.442000 -292.869000 1 1.000000 1 -3.000000
48 2 134.970000 -159.457000 -298.577000 1 1.000000 3 -3.000000
49 1 88.045500 -162.708000 -302.590000 1 1.000000 3 0.000000
50 3 92.489500 -131.894000 -286.527000 1 1.000000 3 0.000000
51 2 44.118300 -145.793000 -298.881000 1 1.000000 3 -3.000000
52 2 46.596000 -136.993000 -295.077000 1 1.000000 1 -3.000000
53 2 48.670900 -127.747000 -292.294000 1 1.000000 1 -3.000000
54 2 50.984500 -118.854000 -288.658000 1 1.000000 1 -3.000000
55 2 53.552100 -109.877000 -285.270000 1 1.000000 1 -3.000000
56 2 58.509400 -101.750000 -282.629000 1 1.000000 1 -3.000000
57 2 65.709200 -95.366700 -280.259000 1 1.000000 1 -3.000000
58 2 73.607400 -89.422000 -280.951000 1 1.000000 1 -3.000000
59 2 81.161200 -83.061300 -281.940000 1 1.000000 1 -3.000000
60 2 88.838300 -76.890300 -282.905000 1 1.000000 1 -3.000000
61 2 97.078900 -71.522000 -283.563000 1 1.000000 1 -3.000000
62 2 105.252000 -65.893400 -283.905000 1 1.000000 1 -3.000000
63 2 112.632000 -59.375700 -283.553000 1 1.000000 1 -3.000000
64 2 120.174000 -52.946500 -283.980000 1 1.000000 1 -3.000000
65 2 126.449000 -45.689700 -286.397000 1 1.000000 1 -3.000000
66 2 132.414000 -38.670300 -289.923000 1 1.000000 1 -3.000000
67 2 136.319000 -29.662100 -291.534000 1 1.000000 1 -3.000000
68 2 141.791000 -21.422200 -291.925000 1 1.000000 1 -3.000000
69 2 145.844000 -12.403300 -291.444000 1 1.000000 1 -3.000000
70 2 150.681000 -3.858030 -290.707000 1 1.000000 1 -3.000000
71 2 155.942000 4.522550 -289.956000 1 1.000000 1 -3.000000
72 2 161.217000 12.175300 -293.480000 1 1.000000 1 -3.000000
73 2 165.476000 19.783800 -297.985000 1 1.000000 1 -3.000000
74 2 169.415000 28.167800 -301.696000 1 1.000000 1 -3.000000
75 2 171.924000 37.223800 -304.784000 1 1.000000 4 -3.000000
76 1 184.995000 19.282600 -346.398000 1 1.000000 4 0.000000
77 3 165.350000 -6.253970 -332.456000 1 1.000000 4 0.000000
78 2 185.424000 -14.011500 -379.796000 1 1.000000 4 -3.000000
79 2 179.768000 -19.892400 -374.232000 1 1.000000 1 -3.000000
80 2 172.304000 -24.840100 -370.043000 1 1.000000 1 -3.000000
81 2 164.463000 -30.630900 -368.183000 1 1.000000 1 -3.000000
82 2 156.511000 -34.408600 -363.705000 1 1.000000 1 -3.000000
83 2 150.441000 -40.991700 -359.464000 1 1.000000 1 -3.000000
84 2 145.139000 -49.071400 -357.617000 1 1.000000 1 -3.000000
85 2 139.369000 -56.961600 -355.812000 1 1.000000 1 -3.000000
86 2 132.625000 -63.567800 -352.988000 1 1.000000 1 -3.000000
87 2 125.018000 -69.559300 -350.814000 1 1.000000 1 -3.000000
88 2 117.351000 -73.844400 -346.259000 1 1.000000 1 -3.000000
89 2 109.625000 -78.451400 -342.024000 1 1.000000 1 -3.000000
90 2 103.142000 -81.995100 -335.480000 1 1.000000 1 -3.000000
91 2 95.645000 -82.235100 -329.020000 1 1.000000 1 -3.000000
92 2 88.588900 -81.183900 -322.237000 1 1.000000 1 -3.000000
93 2 81.053100 -79.742100 -315.923000 1 1.000000 1 -3.000000
94 2 74.820300 -76.799000 -308.858000 1 1.000000 1 -3.000000
95 2 68.808800 -73.758300 -301.525000 1 1.000000 1 -3.000000
96 2 63.075500 -70.415500 -294.225000 1 1.000000 1 -3.000000
97 2 57.399700 -67.364800 -286.777000 1 1.000000 1 -3.000000
98 2 51.401000 -64.408800 -279.406000 1 1.000000 1 -3.000000
99 2 45.979200 -61.685000 -271.613000 1 1.000000 1 -3.000000
100 2 44.784800 -58.936600 -262.140000 1 1.000000 1 -3.000000
101 2 41.021400 -55.728800 -253.536000 1 1.000000 1 -3.000000
102 2 35.674900 -54.094600 -245.362000 1 1.000000 5 -3.000000
103 1 61.141000 -84.444400 -219.614000 1 1.000000 5 0.000000
104 3 77.979200 -83.754300 -250.333000 1 1.000000 5 0.000000
105 2 98.633400 -111.974000 -211.933000 1 1.000000 5 -3.000000
106 2 98.718900 -118.336000 -219.498000 1 1.000000 1 -3.000000
107 2 99.053200 -125.822000 -225.912000 1 1.000000 1 -3.000000
108 2 99.860900 -134.173000 -231.136000 1 1.000000 1 -3.000000
109 2 97.746500 -142.331000 -236.292000 1 1.000000 1 -3.000000
110 2 95.524200 -150.410000 -241.625000 1 1.000000 1 -3.000000
111 2 92.646100 -158.092000 -247.296000 1 1.000000 1 -3.000000
112 2 90.377800 -164.327000 -254.681000 1 1.000000 1 -3.000000
113 2 88.267900 -172.079000 -260.418000 1 1.000000 1 -3.000000
114 2 85.899900 -179.462000 -266.494000 1 1.000000 1 -3.000000
115 2 84.912500 -187.021000 -272.825000 1 1.000000 1 -3.000000
116 2 82.796000 -193.801000 -279.778000 1 1.000000 1 -3.000000
117 2 82.615200 -202.130000 -285.099000 1 1.000000 1 -3.000000
118 2 83.060400 -210.285000 -290.687000 1 1.000000 1 -3.000000
119 2 83.592200 -218.760000 -295.762000 1 1.000000 1 -3.000000
120 2 84.280100 -227.321000 -300.700000 1 1.000000 1 -3.000000
121 2 85.276900 -235.863000 -305.515000 1 1.000000 1 -3.000000
122 2 89.308900 -243.281000 -310.587000 1 1.000000 1 -3.000000
123 2 91.511700 -251.382000 -315.858000 1 1.000000 1 -3.000000
124 2 92.899300 -260.246000 -319.938000 1 1.000000 1 -3.000000
125 2 92.992200 -270.064000 -320.815000 1 1.000000 1 -3.000000
126 2 92.883000 -279.736000 -318.640000 1 1.000000 1 -3.000000
127 2 94.470800 -289.263000 -316.433000 1 1.000000 1 -3.000000
128 2 97.200100 -297.478000 -311.626000 1 1.000000 1 -3.000000
129 2 99.309900 -306.871000 -309.265000 1 1.000000 6 -3.000000
130 1 107.516000 -297.200000 -263.860000 1 1.000000 6 0.000000
131 3 89.569500 -269.233000 -274.767000 1 1.000000 6 0.000000
132 2 102.759000 -271.456000 -224.602000 1 1.000000 6 -3.000000
133 2 95.293100 -265.810000 -227.921000 1 1.000000 1 -3.000000
134 2 87.322900 -260.838000 -230.915000 1 1.000000 1 -3.000000
135 2 80.522200 -254.252000 -233.905000 1 1.000000 1 -3.000000
136 2 73.276000 -249.122000 -238.366000 1 1.000000 1 -3.000000
137 2 65.377400 -247.520000 -244.070000 1 1.000000 1 -3.000000
138 2 59.005200 -245.297000 -251.263000 1 1.000000 1 -3.000000
139 2 53.848100 -243.637000 -259.627000 1 1.000000 1 -3.000000
140 2 48.934900 -239.856000 -267.426000 1 1.000000 1 -3.000000
141 2 43.227500 -235.684000 -274.343000 1 1.000000 1 -3.000000
142 2 37.847300 -231.583000 -281.504000 1 1.000000 1 -3.000000
143 2 31.835700 -228.732000 -288.812000 1 1.000000 1 -3.000000
144 2 27.396400 -226.333000 -297.325000 1 1.000000 1 -3.000000
145 2 26.229200 -225.917000 -307.138000 1 1.000000 1 -3.000000
146 2 24.961300 -225.328000 -316.919000 1 1.000000 1 -3.000000
147 2 25.295700 -224.363000 -326.819000 1 1.000000 1 -3.000000
148 2 26.011100 -223.633000 -336.623000 1 1.000000 1 -3.000000
149 2 26.608000 -223.513000 -346.545000 1 1.000000 1 -3.000000
150 2 28.050900 -224.642000 -356.241000 1 1.000000 1 -3.000000
151 2 27.353200 -226.976000 -365.826000 1 1.000000 1 -3.000000
152 2 26.956300 -231.092000 -374.787000 1 1.000000 1 -3.000000
153 2 25.217900 -236.650000 -382.726000 1 1.000000 1 -3.000000
154 2 24.164500 -242.376000 -390.772000 1 1.000000 1 -3.000000
155 2 23.568400 -249.683000 -397.515000 1 1.000000 1 -3.000000
156 2 24.142400 -257.567000 -403.428000 1 1.000000 7 -3.000000
157 1 36.614900 -295.094000 -377.605000 1 1.000000 7 0.000000
158 3 33.139300 -269.741000 -353.767000 1 1.000000 7 0.000000
159 2 49.594200 -316.230000 -337.535000 1 1.000000 7 -3.000000
160 2 47.494800 -308.885000 -331.288000 1 1.000000 1 -3.000000
161 2 44.911100 -302.009000 -324.564000 1 1.000000 1 -3.000000
162 2 41.464500 -295.329000 -318.024000 1 1.000000 1 -3.000000
163 2 36.948200 -287.356000 -314.120000 1 1.000000 1 -3.000000
164 2 31.544400 -280.643000 -309.261000 1 1.000000 1 -3.000000
165 2 25.285600 -273.486000 -306.815000 1 1.000000 1 -3.000000
166 2 18.892700 -266.571000 -303.708000 1 1.000000 1 -3.000000
167 2 15.313400 -258.517000 -299.268000 1 1.000000 1 -3.000000
168 2 10.263300 -251.812000 -293.967000 1 1.000000 1 -3.000000
169 2 5.763510 -244.927000 -288.573000 1 1.000000 1 -3.000000
170 2 1.739010 -237.092000 -284.012000 1 1.000000 1 -3.000000
171 2 -3.703660 -229.502000 -280.795000 1 1.000000 1 -3.000000
172 2 -8.120960 -221.013000 -278.346000 1 1.000000 1 -3.000000
173 2 -11.957800 -211.954000 -278.618000 1 1.000000 1 -3.000000
174 2 -15.479200 -202.798000 -277.696000 1 1.000000 1 -3.000000
175 2 -19.554200 -193.845000 -276.561000 1 1.000000 1 -3.000000
176 2 -25.414000 -185.746000 -275.938000 1 1.000000 1 -3.000000
177 2 -31.567300 -178.142000 -274.559000 1 1.000000 1 -3.000000
178 2 -36.717400 -169.737000 -273.115000 1 1.000000 1 -3.000000
179 2 -42.553600 -161.777000 -274.015000 1 1.000000 1 -3.000000
180 2 -46.154900 -153.304000 -277.747000 1 1.000000 1 -3.000000
181 2 -49.272500 -144.854000 -281.930000 1 1.000000 1 -3.000000
182 2 -52.216200 -136.420000 -286.070000 1 1.000000 1 -3.000000
183 2 -55.084100 -128.443000 -291.212000 1 1.000000 8 -3.000000
184 1 -25.043400 -127.611000 -327.572000 1 1.000000 8 0.000000
185 3 -18.868400 -158.890000 -312.920000 1 1.000000 8 0.000000
186 2 7.939630 -146.503000 -355.472000 1 1.000000 8 -3.000000
187 2 7.983150 -155.915000 -352.378000 1 1.000000 1 -3.000000
188 2 7.317220 -165.290000 -349.352000 1 1.000000 1 -3.000000
189 2 4.444690 -174.054000 -345.801000 1 1.000000 1 -3.000000
190 2 3.900570 -183.175000 -342.081000 1 1.000000 1 -3.000000
191 2 1.690290 -192.355000 -339.149000 1 1.000000 1 -3.000000
192 2 -3.073280 -199.967000 -335.023000 1 1.000000 1 -3.000000
193 2 -6.686680 -208.228000 -330.852000 1 1.000000 1 -3.000000
194 2 -10.023600 -216.510000 -326.591000 1 1.000000 1 -3.000000
195 2 -15.334100 -222.758000 -321.181000 1 1.000000 1 -3.000000
196 2 -19.701600 -230.020000 -316.026000 1 1.000000 1 -3.000000
197 2 -24.207200 -237.804000 -311.808000 1 1.000000 1 -3.000000
198 2 -26.783300 -244.807000 -305.250000 1 1.000000 1 -3.000000
199 2 -30.511700 -251.158000 -298.545000 1 1.000000 1 -3.000000
200 2 -33.144700 -256.580000 -290.636000 1 1.000000 1 -3.000000
201 2 -35.181300 -261.756000 -282.438000 1 1.000000 1 -3.000000
202 2 -35.392700 -268.778000 -275.442000 1 1.000000 1 -3.000000
203 2 -38.064600 -275.861000 -269.143000 1 1.000000 1 -3.000000
204 2 -43.694500 -282.647000 -264.612000 1 1.000000 1 -3.000000
205 2 -48.415500 -290.533000 -260.998000 1 1.000000 1 -3.000000
206 2 -51.647000 -299.493000 -258.472000 1 1.000000 1 -3.000000
207 2 -54.324000 -307.910000 -254.098000 1 1.000000 1 -3.000000
208 2 -53.182600 -316.474000 -249.344000 1 1.000000 1 -3.000000
209 2 -51.961800 -325.078000 -244.725000 1 1.000000 1 -3.000000
210 2 -49.947800 -333.561000 -239.974000 1 1.000000 9 -3.000000
211 1 -8.805320 -323.610000 -219.157000 1 1.000000 9 0.000000
212 3 -22.474700 -291.965000 -225.232000 1 1.000000 9 0.000000
213 2 23.317100 -294.159000 -201.076000 1 1.000000 9 -3.000000
214 2 17.120900 -286.488000 -200.228000 1 1.000000 1 -3.000000
215 2 12.673100 -277.569000 -200.072000 1 1.000000 1 -3.000000
216 2 6.495940 -269.785000 -200.437000 1 1.000000 1 -3.000000
217 2 -0.725473 -263.019000 -199.544000 1 1.000000 1 -3.000000
218 2 -9.220290 -257.953000 -198.776000 1 1.000000 1 -3.000000
219 2 -17.293300 -252.991000 -195.813000 1 1.000000 1 -3.000000
220 2 -24.446400 -246.238000 -194.656000 1 1.000000 1 -3.000000
221 2 -31.453200 -239.745000 -191.948000 1 1.000000 1 -3.000000
222 2 -38.477600 -234.166000 -187.785000 1 1.000000 1 -3.000000
223 2 -45.325100 -229.599000 -182.396000 1 1.000000 1 -3.000000
224 2 -52.424800 -225.111000 -177.190000 1 1.000000 1 -3.000000
225 2 -59.873600 -223.413000 -170.988000 1 1.000000 1 -3.000000
226 2 -65.448000 -220.406000 -163.460000 1 1.000000 1 -3.000000
227 2 -68.555700 -217.214000 -154.625000 1 1.000000 1 -3.000000
228 2 -74.684400 -213.021000 -147.994000 1 1.000000 1 -3.000000
229 2 -80.747000 -207.928000 -142.135000 1 1.000000 1 -3.000000
230 2 -86.705600 -201.841000 -137.070000 1 1.000000 1 -3.000000
231 2 -92.565800 -194.963000 -132.976000 1 1.000000 1 -3.000000
232 2 -97.427800 -187.075000 -129.723000 1 1.000000 1 -3.000000
233 2 -102.435000 -179.462000 -125.792000 1 1.000000 1 -3.000000
234 2 -109.334000 -173.272000 -122.120000 1 1.000000 1 -3.000000
235 2 -116.252000 -166.585000 -119.636000 1 1.000000 1 -3.000000
236 2 -123.208000 -159.844000 -117.935000 1 1.000000 1 -3.000000
237 2 -130.261000 -153.096000 -116.111000 1 1.000000 10 -3.000000
238 1 -166.984000 -177.561000 -132.632000 1 1.000000 10 0.000000
239 3 -141.728000 -201.696000 -130.395000 1 1.000000 10 0.000000
240 2 -187.846000 -216.699000 -148.830000 1 1.000000 10 -3.000000
241 2 -182.187000 -224.122000 -145.538000 1 1.000000 1 -3.000000
242 2 -175.566000 -231.268000 -143.809000 1 1.000000 1 -3.000000
243 2 -167.894000 -236.587000 -140.493000 1 1.000000 1 -3.000000
244 2 -159.523000 -240.999000 -137.497000 1 1.000000 1 -3.000000
245 2 -151.243000 -245.090000 -133.932000 1 1.000000 1 -3.000000
246 2 -142.789000 -249.757000 -131.633000 1 1.000000 1 -3.000000
247 2 -134.626000 -254.523000 -128.710000 1 1.000000 1 -3.000000
248 2 -126.340000 -259.685000 -126.864000 1 1.000000 1 -3.000000
249 2 -117.523000 -264.053000 -125.636000 1 1.000000 1 -3.000000
250 2 -108.629000 -265.519000 -121.340000 1 1.000000 1 -3.000000
251 2 -99.704000 -266.481000 -117.229000 1 1.000000 1 -3.000000
252 2 -90.294600 -268.625000 -114.971000 1 1.000000 1 -3.000000
253 2 -80.760100 -269.915000 -112.407000 1 1.000000 1 -3.000000
254 2 -71.081900 -269.431000 -110.374000 1 1.000000 1 -3.000000
255 2 -61.353100 -271.279000 -110.990000 1 1.000000 1 -3.000000
256 2 -51.648400 -270.445000 -112.988000 1 1.000000 1 -3.000000
257 2 -42.267800 -268.042000 -114.748000 1 1.000000 1 -3.000000
258 2 -33.074800 -264.634000 -116.299000 1 1.000000 1 -3.000000
259 2 -23.417400 -262.253000 -117.386000 1 1.000000 1 -3.000000
260 2 -14.137500 -260.049000 -120.337000 1 1.000000 1 -3.000000
261 2 -4.850590 -257.205000 -122.372000 1 1.000000 1 -3.000000
262 2 3.344310 -252.290000 -125.009000 1 1.000000 1 -3.000000
263 2 12.699800 -249.828000 -127.257000 1 1.000000 1 -3.000000
264 2 21.183100 -245.866000 -130.505000 1 1.000000 11 -3.000000
265 1 24.199600 -222.898000 -89.414800 1 1.000000 11 0.000000
266 3 5.904310 -251.533000 -81.260700 1 1.000000 11 0.000000
267 2 17.835000 -218.863000 -42.805600 1 1.000000 11 -3.000000
268 2 18.210600 -228.698000 -42.460500 1 1.000000 1 -3.000000
269 2 17.463300 -238.432000 -40.538900 1 1.000000 1 -3.000000
270 2 17.892800 -248.031000 -38.345900 1 1.000000 1 -3.000000
271 2 16.666400 -257.893000 -38.497900 1 1.000000 1 -3.000000
272 2 15.142300 -267.431000 -40.525600 1 1.000000 1 -3.000000
273 2 13.039400 -276.967000 -42.302500 1 1.000000 1 -3.000000
274 2 10.352800 -286.487000 -42.787100 1 1.000000 1 -3.000000
275 2 5.424960 -295.072000 -41.418200 1 1.000000 1 -3.000000
276 2 1.143310 -303.528000 -38.639500 1 1.000000 1 -3.000000
277 2 -4.093430 -311.112000 -35.124000 1 1.000000 1 -3.000000
278 2 -11.048500 -316.748000 -30.990100 1 1.000000 1 -3.000000
279 2 -17.602000 -322.387000 -26.261800 1 1.000000 1 -3.000000
280 2 -25.696400 -326.297000 -22.221300 1 1.000000 1 -3.000000
281 2 -32.326100 -331.564000 -16.947000 1 1.000000 1 -3.000000
282 2 -37.534400 -337.367000 -10.834900 1 1.000000 1 -3.000000
283 2 -45.286300 -340.756000 -5.684970 1 1.000000 1 -3.000000
284 2 -51.534900 -343.928000 1.320400 1 1.000000 1 -3.000000
285 2 -57.337600 -346.221000 9.029680 1 1.000000 1 -3.000000
286 2 -63.240400 -349.961000 16.035600 1 1.000000 1 -3.000000
287 2 -69.687000 -354.795000 21.685000 1 1.000000 1 -3.000000
288 2 -75.318600 -358.502000 28.976000 1 1.000000 1 -3.000000
289 2 -83.047700 -360.202000 34.821500 1 1.000000 1 -3.000000
290 2 -91.077800 -360.081000 40.708800 1 1.000000 1 -3.000000
291 2 -98.136900 -359.853000 47.583100 1 1.000000 12 -3.000000
292 1 -99.742200 -314.481000 60.453700 1 1.000000 12 0.000000
293 3 -81.169100 -313.774000 30.737900 1 1.000000 12 0.000000
294 2 -89.389600 -268.738000 55.202700 1 1.000000 12 -3.000000
295 2 -87.511900 -269.394000 45.509900 1 1.000000 1 -3.000000
296 2 -87.270900 -268.293000 35.618500 1 1.000000 1 -3.000000
297 2 -87.577700 -269.902000 25.812200 1 1.000000 1 -3.000000
298 2 -85.630500 -272.209000 16.348300 1 1.000000 1 -3.000000
299 2 -81.888200 -274.653000 7.536740 1 1.000000 1 -3.000000
300 2 -78.841600 -280.232000 -0.029297 1 1.000000 1 -3.000000
301 2 -76.729000 -288.317000 -5.430350 1 1.000000 1 -3.000000
302 2 -76.629600 -295.626000 -12.080300 1 1.000000 1 -3.000000
303 2 -76.621200 -303.281000 -18.403100 1 1.000000 1 -3.000000
304 2 -79.359800 -310.033000 -25.079200 1 1.000000 1 -3.000000
305 2 -80.457000 -317.642000 -31.506300 1 1.000000 1 -3.000000
306 2 -79.992700 -324.886000 -38.123700 1 1.000000 1 -3.000000
307 2 -81.125100 -329.659000 -46.645900 1 1.000000 1 -3.000000
308 2 -81.103600 -333.774000 -55.691500 1 1.000000 1 -3.000000
309 2 -78.536400 -338.939000 -63.695800 1 1.000000 1 -3.000000
310 2 -74.563000 -343.186000 -71.692700 1 1.000000 1 -3.000000
311 2 -72.385300 -347.214000 -80.352200 1 1.000000 1 -3.000000
312 2 -67.894300 -349.948000 -88.747300 1 1.000000 1 -3.000000
313 2 -65.533500 -348.803000 -98.307600 1 1.000000 1 -3.000000
314 2 -63.089100 -347.801000 -107.759000 1 1.000000 1 -3.000000
315 2 -58.570300 -345.844000 -116.230000 1 1.000000 1 -3.000000
316 2 -53.428200 -344.420000 -124.573000 1 1.000000 1 -3.000000
317 2 -47.398400 -341.429000 -131.899000 1 1.000000 1 -3.000000
318 2 -40.434000 -339.713000 -138.735000 1 1.000000 13 -3.000000
319 1 -7.359570 -315.254000 -115.592000 1 1.000000 13 0.000000
320 3 -26.482100 -329.285000 -89.856700 1 1.000000 13 0.000000
321 2 14.146500 -299.629000 -76.635300 1 1.000000 13 -3.000000
322 2 9.642100 -306.027000 -70.535000 1 1.000000 1 -3.000000
323 2 5.619270 -312.659000 -64.333000 1 1.000000 1 -3.000000
324 2 1.110550 -319.558000 -58.728700 1 1.000000 1 -3.000000
325 2 -4.940430 -324.995000 -53.171400 1 1.000000 1 -3.000000
326 2 -11.289100 -330.184000 -47.594300 1 1.000000 1 -3.000000
327 2 -17.782700 -335.799000 -42.681800 1 1.000000 1 -3.000000
328 2 -25.820700 -340.240000 -39.079200 1 1.000000 1 -3.000000
329 2 -34.311300 -343.089000 -34.934100 1 1.000000 1 -3.000000
330 2 -43.101100 -346.326000 -31.616600 1 1.000000 1 -3.000000
331 2 -51.632000 -350.409000 -28.760600 1 1.000000 1 -3.000000
332 2 -59.716200 -354.966000 -25.360600 1 1.000000 1 -3.000000
333 2 -68.381800 -356.616000 -20.809500 1 1.000000 1 -3.000000
334 2 -76.865100 -357.337000 -15.899300 1 1.000000 1 -3.000000
335 2 -85.177400 -359.118000 -10.863300 1 1.000000 1 -3.000000
336 2 -94.146900 -358.885000 -6.742680 1 1.000000 1 -3.000000
337 2 -103.589000 -358.818000 -3.689530 1 1.000000 1 -3.000000
338 2 -112.926000 -358.817000 -0.220217 1 1.000000 1 -3.000000
339 2 -122.396000 -358.635000 2.804300 1 1.000000 1 -3.000000
340 2 -132.011000 -359.196000 4.979180 1 1.000000 1 -3.000000
341 2 -141.819000 -358.757000 6.195310 1 1.000000 1 -3.000000
342 2 -151.575000 -357.139000 6.303290 1 1.000000 1 -3.000000
343 2 -161.329000 -358.810000 7.229850 1 1.000000 1 -3.000000
344 2 -171.205000 -358.742000 7.182380 1 1.000000 1 -3.000000
345 2 -181.009000 -359.550000 8.099550 1 1.000000 14 -3.000000
346 1 -182.548000 -402.277000 28.052400 1 1.000000 14 0.000000
347 3 -149.799000 -391.585000 34.489000 1 1.000000 14 0.000000
348 2 -163.835000 -438.472000 51.830900 1 1.000000 14 -3.000000
349 2 -155.785000 -433.732000 55.106500 1 1.000000 1 -3.000000
350 2 -147.880000 -428.882000 58.693400 1 1.000000 1 -3.000000
351 2 -140.265000 -424.225000 63.000800 1 1.000000 1 -3.000000
352 2 -133.292000 -417.944000 66.245600 1 1.000000 1 -3.000000
353 2 -126.674000 -410.632000 67.324400 1 1.000000 1 -3.000000
354 2 -118.623000 -404.952000 68.466700 1 1.000000 1 -3.000000
355 2 -110.110000 -399.807000 69.149500 1 1.000000 1 -3.000000
356 2 -102.315000 -394.024000 70.971300 1 1.000000 1 -3.000000
357 2 -93.703500 -389.363000 73.006500 1 1.000000 1 -3.000000
358 2 -84.498900 -386.988000 75.591900 1 1.000000 1 -3.000000
359 2 -76.217900 -384.397000 80.388700 1 1.000000 1 -3.000000
360 2 -67.093100 -381.087000 82.513200 1 1.000000 1 -3.000000
361 2 -58.873400 -377.244000 86.339600 1 1.000000 1 -3.000000
362 2 -49.991100 -374.541000 89.737600 1 1.000000 1 -3.000000
363 2 -40.549900 -373.147000 92.509000 1 1.000000 1 -3.000000
364 2 -30.986900 -371.218000 91.284900 1 1.000000 1 -3.000000
365 2 -21.709500 -367.807000 90.375000 1 1.000000 1 -3.000000
366 2 -12.802800 -364.567000 87.510800 1 1.000000 1 -3.000000
367 2 -4.837160 -360.913000 82.999500 1 1.000000 1 -3.000000
368 2 1.459890 -356.044000 77.132000 1 1.000000 1 -3.000000
369 2 6.768070 -350.310000 71.027500 1 1.000000 1 -3.000000
370 2 12.890900 -343.886000 66.583200 1 1.000000 1 -3.000000
371 2 18.637900 -337.961000 61.131800 1 1.000000 1 -3.000000
372 2 23.962200 -331.094000 56.429700 1 1.000000 15 -3.000000
373 1 34.526000 -303.908000 93.565100 1 1.000000 15 0.000000
374 3 20.511200 -332.527000 108.202000 1 1.000000 15 0.000000
375 2 37.490000 -294.982000 139.795000 1 1.000000 15 -3.000000
376 2 37.420000 -304.096000 143.478000 1 1.000000 1 -3.000000
377 2 37.205600 -313.447000 146.789000 1 1.000000 1 -3.000000
378 2 36.865300 -322.926000 149.657000 1 1.000000 1 -3.000000
379 2 38.235300 -332.697000 149.647000 1 1.000000 1 -3.000000
380 2 39.015100 -342.570000 150.060000 1 1.000000 1 -3.000000
381 2 38.997700 -352.455000 150.880000 1 1.000000 1 -3.000000
382 2 38.611900 -362.315000 151.890000 1 1.000000 1 -3.000000
383 2 35.222300 -369.615000 157.772000 1 1.000000 1 -3.000000
384 2 33.555900 -376.230000 164.942000 1 1.000000 1 -3.000000
385 2 31.796100 -380.739000 173.560000 1 1.000000 1 -3.000000
386 2 31.207000 -386.643000 181.459000 1 1.000000 1 -3.000000
387 2 31.577400 -391.936000 189.807000 1 1.000000 1 -3.000000
388 2 30.480900 -395.774000 198.897000 1 1.000000 1 -3.000000
389 2 29.510000 -398.672000 208.329000 1 1.000000 1 -3.000000
390 2 28.843600 -399.679000 218.075000 1 1.000000 1 -3.000000
391 2 27.838900 -401.204000 227.806000 1 1.000000 1 -3.000000
392 2 25.999300 -402.913000 237.391000 1 1.000000 1 -3.000000
393 2 24.722700 -402.713000 247.187000 1 1.000000 1 -3.000000
394 2 22.573400 -400.957000 256.750000 1 1.000000 1 -3.000000
395 2 20.894800 -397.313000 265.779000 1 1.000000 1 -3.000000
396 2 17.986500 -394.212000 274.687000 1 1.000000 1 -3.000000
397 2 13.869700 -391.527000 283.307000 1 1.000000 1 -3.000000
398 2 10.237000 -390.529000 292.464000 1 1.000000 1 -3.000000
399 2 4.691240 -387.774000 300.221000 1 1.000000 16 -3.000000
400 1 -33.213000 -414.418000 291.322000 1 1.000000 16 0.000000
401 3 -7.381340 -431.383000 275.016000 1 1.000000 16 0.000000
402 2 -55.319800 -451.402000 272.087000 1 1.000000 16 -3.000000
403 2 -47.580400 -457.047000 269.351000 1 1.000000 1 -3.000000
404 2 -39.885400 -462.860000 266.915000 1 1.000000 1 -3.000000
405 2 -31.584200 -468.278000 265.480000 1 1.000000 1 -3.000000
406 2 -22.839700 -472.630000 266.764000 1 1.000000 1 -3.000000
407 2 -13.613900 -475.594000 268.719000 1 1.000000 1 -3.000000
408 2 -4.101930 -476.046000 271.264000 1 1.000000 1 -3.000000
409 2 5.737560 -476.187000 272.447000 1 1.000000 1 -3.000000
410 2 15.267400 -474.268000 274.384000 1 1.000000 1 -3.000000
411 2 24.819400 -471.591000 274.677000 1 1.000000 1 -3.000000
412 2 34.506300 -470.085000 276.368000 1 1.000000 1 -3.000000
413 2 43.392500 -467.656000 280.145000 1 1.000000 1 -3.000000
414 2 51.976000 -463.704000 283.019000 1 1.000000 1 -3.000000
415 2 59.984000 -459.301000 286.681000 1 1.000000 1 -3.000000
416 2 68.149300 -455.595000 291.042000 1 1.000000 1 -3.000000
417 2 75.338600 -450.076000 295.078000 1 1.000000 1 -3.000000
418 2 81.966500 -444.627000 300.012000 1 1.000000 1 -3.000000
419 2 88.332000 -437.486000 302.745000 1 1.000000 1 -3.000000
420 2 95.538000 -430.912000 304.260000 1 1.000000 1 -3.000000
421 2 102.781000 -424.248000 303.907000 1 1.000000 1 -3.000000
422 2 110.233000 -417.769000 304.341000 1 1.000000 1 -3.000000
423 2 117.510000 -411.359000 306.032000 1 1.000000 1 -3.000000
424 2 125.987000 -406.950000 308.564000 1 1.000000 1 -3.000000
425 2 134.310000 -402.182000 310.995000 1 1.000000 1 -3.000000
426 2 141.826000 -397.116000 314.998000 1 1.000000 17 -3.000000
427 1 130.206000 -400.468000 360.591000 1 1.000000 17 0.000000
428 3 117.290000 -429.906000 346.797000 1 1.000000 17 0.000000
429 2 108.749000 -420.989000 397.258000 1 1.000000 17 -3.000000
430 2 104.365000 -428.010000 391.894000 1 1.000000 1 -3.000000
431 2 101.309000 -435.839000 386.701000 1 1.000000 1 -3.000000
432 2 98.264900 -444.118000 382.212000 1 1.000000 1 -3.000000
433 2 95.035900 -452.409000 377.947000 1 1.000000 1 -3.000000
434 2 90.384200 -460.636000 374.889000 1 1.000000 1 -3.000000
435 2 85.941700 -468.672000 370.991000 1 1.000000 1 -3.000000
436 2 83.230800 -477.031000 366.525000 1 1.000000 1 -3.000000
437 2 79.950500 -486.200000 365.373000 1 1.000000 1 -3.000000
438 2 79.407000 -495.846000 363.121000 1 1.000000 1 -3.000000
439 2 79.363600 -505.656000 361.221000 1 1.000000 1 -3.000000
440 2 78.828100 -514.618000 357.221000 1 1.000000 1 -3.000000
441 2 77.006400 -523.820000 353.981000 1 1.000000 1 -3.000000
442 2 76.875500 -533.127000 350.734000 1 1.000000 1 -3.000000
443 2 77.908300 -542.389000 347.132000 1 1.000000 1 -3.000000
444 2 79.902500 -551.493000 343.730000 1 1.000000 1 -3.000000
445 2 80.969500 -561.113000 341.681000 1 1.000000 1 -3.000000
446 2 83.564300 -570.190000 338.794000 1 1.000000 1 -3.000000
447 2 87.917400 -578.723000 336.323000 1 1.000000 1 -3.000000
448 2 92.902700 -586.751000 333.668000 1 1.000000 1 -3.000000
449 2 97.580100 -594.774000 330.215000 1 1.000000 1 -3.000000
450 2 101.996000 -603.304000 328.427000 1 1.000000 1 -3.000000
451 2 106.715000 -611.432000 325.575000 1 1.000000 1 -3.000000
452 2 113.326000 -618.586000 323.598000 1 1.000000 1 -3.000000
453 2 119.115000 -625.890000 320.299000 1 1.000000 18 -3.000000
454 1 154.506000 -617.145000 350.216000 1 1.000000 18 0.000000
455 3 132.300000 -590.720000 356.137000 1 1.000000 18 0.000000
456 2 177.358000 -590.891000 382.031000 1 1.000000 18 -3.000000
457 2 168.715000 -587.678000 385.611000 1 1.000000 1 -3.000000
458 2 160.415000 -584.308000 389.852000 1 1.000000 1 -3.000000
459 2 152.776000 -578.713000 392.974000 1 1.000000 1 -3.000000
460 2 145.767000 -571.930000 394.359000 1 1.000000 1 -3.000000
461 2 138.451000 -565.271000 395.274000 1 1.000000 1 -3.000000
462 2 131.442000 -558.370000 395.718000 1 1.000000 1 -3.000000
463 2 125.746000 -550.349000 394.976000 1 1.000000 1 -3.000000
464 2 119.039000 -543.069000 394.182000 1 1.000000 1 -3.000000
465 2 111.327000 -536.909000 394.245000 1 1.000000 1 -3.000000
466 2 102.780000 -532.105000 395.594000 1 1.000000 1 -3.000000
467 2 95.088600 -526.239000 397.745000 1 1.000000 1 -3.000000
468 2 86.573800 -521.064000 397.676000 1 1.000000 1 -3.000000
469 2 78.455300 -515.439000 397.101000 1 1.000000 1 -3.000000
470 2 70.618600 -509.579000 398.598000 1 1.000000 1 -3.000000
471 2 64.028200 -502.813000 401.635000 1 1.000000 1 -3.000000
472 2 57.581300 -495.547000 403.532000 1 1.000000 1 -3.000000
473 2 50.980300 -489.567000 407.783000 1 1.000000 1 -3.000000
474 2 46.031000 -485.077000 415.048000 1 1.000000 1 -3.000000