LAMMPS data file

4067 atoms
4067 ellipsoids
4516 bonds
8882 angles
0 dihedrals

3 atom types
5 bond types
12 angle types
0 dihedral types

-4631.092947 4670.465898 xlo xhi
-4631.092947 4670.465898 ylo yhi
-4631.092947 4670.465898 zlo zhi

Masses

1 196016.000000
2 1950.000000
3 19500.000000

Atoms

1 2 549.962000 -433.704000 612.506000 1 1.000000 1 -3.000000
2 2 543.877000 -430.616000 619.741000 1 1.000000 1 -3.000000
3 2 536.895000 -425.600000 624.694000 1 1.000000 1 -3.000000
4 2 530.397000 -421.660000 631.011000 1 1.000000 1 -3.000000
5 2 525.342000 -418.225000 638.788000 1 1.000000 1 -3.000000
6 2 521.219000 -414.537000 647.055000 1 1.000000 1 -3.000000
7 2 515.388000 -411.661000 654.588000 1 1.000000 1 -3.000000
8 2 510.332000 -407.402000 661.986000 1 1.000000 1 -3.000000
9 2 505.497000 -403.255000 669.560000 1 1.000000 1 -3.000000
10 2 501.316000 -396.853000 675.886000 1 1.000000 1 -3.000000
11 2 495.312000 -391.559000 681.868000 1 1.000000 1 -3.000000
12 2 490.327000 -385.295000 687.721000 1 1.000000 1 -3.000000
13 2 484.602000 -380.340000 694.195000 1 1.000000 1 -3.000000
14 2 480.343000 -375.364000 701.625000 1 1.000000 1 -3.000000
15 2 476.975000 -368.864000 708.256000 1 1.000000 1 -3.000000
16 2 474.314000 -362.277000 715.007000 1 1.000000 1 -3.000000
17 2 470.473000 -359.128000 723.512000 1 1.000000 1 -3.000000
18 2 468.918000 -355.431000 732.546000 1 1.000000 1 -3.000000
19 2 468.176000 -353.885000 742.302000 1 1.000000 1 -3.000000
20 2 466.103000 -350.631000 751.414000 1 1.000000 1 -3.000000
21 2 464.091000 -347.957000 760.736000 1 1.000000 2 -3.000000
22 1 463.411000 -392.561000 776.210000 1 1.000000 2 0.000000
23 3 478.762000 -395.207000 744.838000 1 1.000000 2 0.000000
24 2 472.885000 -438.626000 772.699000 1 1.000000 2 -3.000000
25 2 480.758000 -435.785000 767.416000 1 1.000000 1 -3.000000
26 2 489.169000 -436.003000 762.152000 1 1.000000 1 -3.000000
27 2 496.606000 -434.361000 755.808000 1 1.000000 1 -3.000000
28 2 503.546000 -432.869000 748.843000 1 1.000000 1 -3.000000
29 2 509.031000 -428.714000 741.595000 1 1.000000 1 -3.000000
30 2 514.465000 -425.073000 734.233000 1 1.000000 1 -3.000000
31 2 518.296000 -418.540000 727.783000 1 1.000000 1 -3.000000
32 2 522.010000 -411.057000 722.535000 1 1.000000 1 -3.000000
33 2 523.960000 -402.121000 718.778000 1 1.000000 1 -3.000000
34 2 526.083000 -393.254000 715.169000 1 1.000000 1 -3.000000
35 2 528.971000 -383.856000 714.011000 1 1.000000 1 -3.000000
36 2 530.063000 -374.329000 711.810000 1 1.000000 1 -3.000000
37 2 531.420000 -365.064000 708.805000 1 1.000000 1 -3.000000
38 2 532.193000 -355.524000 706.354000 1 1.000000 1 -3.000000
39 2 533.011000 -345.641000 705.527000 1 1.000000 1 -3.000000
40 2 533.370000 -335.801000 706.495000 1 1.000000 1 -3.000000
41 2 533.671000 -326.497000 709.730000 1 1.000000 1 -3.000000
42 2 534.433000 -317.101000 712.563000 1 1.000000 1 -3.000000
43 2 534.974000 -307.866000 715.837000 1 1.000000 1 -3.000000
44 2 534.124000 -299.669000 721.430000 1 1.000000 1 -3.000000
45 2 529.897000 -293.604000 728.132000 1 1.000000 1 -3.000000
46 2 525.508000 -287.581000 734.610000 1 1.000000 1 -3.000000
47 2 522.608000 -282.245000 742.443000 1 1.000000 1 -3.000000
48 2 519.664000 -276.279000 749.825000 1 1.000000 3 -3.000000
49 1 475.354000 -291.237000 743.979000 1 1.000000 3 0.000000
50 3 494.393000 -318.129000 732.378000 1 1.000000 3 0.000000
51 2 442.784000 -322.789000 730.919000 1 1.000000 3 -3.000000
52 2 447.436000 -328.244000 724.034000 1 1.000000 1 -3.000000
53 2 451.370000 -333.123000 716.344000 1 1.000000 1 -3.000000
54 2 455.308000 -337.615000 708.526000 1 1.000000 1 -3.000000
55 2 458.610000 -342.129000 700.390000 1 1.000000 1 -3.000000
56 2 461.113000 -347.000000 692.212000 1 1.000000 1 -3.000000
57 2 463.325000 -353.027000 684.771000 1 1.000000 1 -3.000000
58 2 465.077000 -359.871000 677.749000 1 1.000000 1 -3.000000
59 2 469.943000 -366.877000 672.619000 1 1.000000 1 -3.000000
60 2 472.379000 -374.876000 667.372000 1 1.000000 1 -3.000000
61 2 472.952000 -382.057000 660.778000 1 1.000000 1 -3.000000
62 2 472.285000 -388.888000 653.594000 1 1.000000 1 -3.000000
63 2 469.220000 -395.808000 647.156000 1 1.000000 1 -3.000000
64 2 465.741000 -403.033000 641.230000 1 1.000000 1 -3.000000
65 2 463.526000 -410.782000 635.563000 1 1.000000 1 -3.000000
66 2 461.145000 -418.017000 629.298000 1 1.000000 1 -3.000000
67 2 459.137000 -424.260000 621.923000 1 1.000000 1 -3.000000
68 2 458.368000 -429.254000 613.499000 1 1.000000 1 -3.000000
69 2 457.940000 -433.254000 604.384000 1 1.000000 1 -3.000000
70 2 457.546000 -437.563000 595.417000 1 1.000000 1 -3.000000
71 2 457.511000 -442.388000 586.830000 1 1.000000 1 -3.000000
72 2 459.784000 -446.643000 578.224000 1 1.000000 1 -3.000000
73 2 461.741000 -451.384000 569.730000 1 1.000000 1 -3.000000
74 2 464.831000 -455.384000 561.211000 1 1.000000 1 -3.000000
75 2 468.125000 -459.794000 552.952000 1 1.000000 4 -3.000000
76 1 509.306000 -476.013000 569.263000 1 1.000000 4 0.000000
77 3 492.505000 -466.041000 598.353000 1 1.000000 4 0.000000
78 2 540.979000 -483.903000 603.311000 1 1.000000 4 -3.000000
79 2 534.725000 -483.638000 611.044000 1 1.000000 1 -3.000000
80 2 527.939000 -483.299000 618.172000 1 1.000000 1 -3.000000
81 2 522.029000 -481.734000 625.957000 1 1.000000 1 -3.000000
82 2 516.378000 -479.996000 633.816000 1 1.000000 1 -3.000000
83 2 509.576000 -476.682000 640.264000 1 1.000000 1 -3.000000
84 2 501.149000 -475.795000 645.209000 1 1.000000 1 -3.000000
85 2 492.631000 -473.907000 649.907000 1 1.000000 1 -3.000000
86 2 483.085000 -471.787000 651.894000 1 1.000000 1 -3.000000
87 2 473.778000 -468.989000 653.973000 1 1.000000 1 -3.000000
88 2 464.200000 -466.516000 654.587000 1 1.000000 1 -3.000000
89 2 455.035000 -463.988000 657.219000 1 1.000000 1 -3.000000
90 2 445.708000 -464.225000 660.526000 1 1.000000 1 -3.000000
91 2 436.263000 -463.101000 663.373000 1 1.000000 1 -3.000000
92 2 426.873000 -460.845000 665.734000 1 1.000000 1 -3.000000
93 2 417.139000 -460.433000 667.584000 1 1.000000 1 -3.000000
94 2 407.244000 -460.435000 668.561000 1 1.000000 1 -3.000000
95 2 397.652000 -458.867000 670.357000 1 1.000000 1 -3.000000
96 2 387.774000 -459.445000 670.575000 1 1.000000 1 -3.000000
97 2 377.941000 -459.447000 670.651000 1 1.000000 1 -3.000000
98 2 368.532000 -458.678000 667.755000 1 1.000000 1 -3.000000
99 2 359.996000 -459.523000 662.861000 1 1.000000 1 -3.000000
100 2 350.910000 -460.581000 659.065000 1 1.000000 1 -3.000000
101 2 342.686000 -462.332000 653.802000 1 1.000000 1 -3.000000
102 2 333.431000 -464.038000 650.675000 1 1.000000 5 -3.000000
103 1 343.306000 -428.161000 621.676000 1 1.000000 5 0.000000
104 3 374.454000 -443.543000 626.219000 1 1.000000 5 0.000000
105 2 372.285000 -401.684000 595.519000 1 1.000000 5 -3.000000
106 2 377.936000 -409.053000 592.181000 1 1.000000 1 -3.000000
107 2 383.684000 -416.749000 589.616000 1 1.000000 1 -3.000000
108 2 390.238000 -423.978000 588.137000 1 1.000000 1 -3.000000
109 2 395.810000 -432.183000 588.440000 1 1.000000 1 -3.000000
110 2 401.665000 -439.710000 591.172000 1 1.000000 1 -3.000000
111 2 406.824000 -446.917000 595.397000 1 1.000000 1 -3.000000
112 2 410.941000 -454.910000 599.669000 1 1.000000 1 -3.000000
113 2 414.006000 -462.586000 605.234000 1 1.000000 1 -3.000000
114 2 416.070000 -471.255000 609.432000 1 1.000000 1 -3.000000
115 2 419.907000 -480.155000 611.606000 1 1.000000 1 -3.000000
116 2 425.121000 -488.532000 610.959000 1 1.000000 1 -3.000000
117 2 429.575000 -497.332000 609.998000 1 1.000000 1 -3.000000
118 2 433.724000 -506.035000 608.164000 1 1.000000 1 -3.000000
119 2 439.046000 -513.840000 605.144000 1 1.000000 1 -3.000000
120 2 442.976000 -519.139000 597.773000 1 1.000000 1 -3.000000
121 2 447.379000 -524.626000 590.811000 1 1.000000 1 -3.000000
122 2 450.444000 -528.236000 582.081000 1 1.000000 1 -3.000000
123 2 453.565000 -526.679000 572.747000 1 1.000000 1 -3.000000
124 2 453.794000 -525.147000 562.943000 1 1.000000 1 -3.000000
125 2 452.454000 -521.874000 553.796000 1 1.000000 1 -3.000000
126 2 452.196000 -516.927000 545.189000 1 1.000000 1 -3.000000
127 2 449.350000 -511.054000 537.705000 1 1.000000 1 -3.000000
128 2 446.456000 -503.931000 531.529000 1 1.000000 1 -3.000000
129 2 443.839000 -495.846000 526.310000 1 1.000000 6 -3.000000
130 1 442.832000 -520.022000 485.849000 1 1.000000 6 0.000000
131 3 464.080000 -539.137000 506.098000 1 1.000000 6 0.000000
132 2 455.955000 -555.189000 457.274000 1 1.000000 6 -3.000000
133 2 458.256000 -561.824000 464.260000 1 1.000000 1 -3.000000
134 2 456.979000 -568.253000 471.706000 1 1.000000 1 -3.000000
135 2 457.561000 -574.096000 479.717000 1 1.000000 1 -3.000000
136 2 459.023000 -579.893000 487.561000 1 1.000000 1 -3.000000
137 2 459.219000 -583.933000 496.587000 1 1.000000 1 -3.000000
138 2 461.577000 -588.109000 505.250000 1 1.000000 1 -3.000000
139 2 463.001000 -594.522000 512.717000 1 1.000000 1 -3.000000
140 2 465.597000 -600.258000 520.230000 1 1.000000 1 -3.000000
141 2 467.234000 -606.935000 527.443000 1 1.000000 1 -3.000000
142 2 469.078000 -614.094000 534.077000 1 1.000000 1 -3.000000
143 2 472.895000 -620.463000 540.676000 1 1.000000 1 -3.000000
144 2 477.483000 -627.056000 546.401000 1 1.000000 1 -3.000000
145 2 481.301000 -632.857000 553.397000 1 1.000000 1 -3.000000
146 2 485.795000 -638.508000 560.172000 1 1.000000 1 -3.000000
147 2 487.566000 -643.542000 568.473000 1 1.000000 1 -3.000000
148 2 488.045000 -649.081000 576.657000 1 1.000000 1 -3.000000
149 2 487.451000 -653.569000 585.598000 1 1.000000 1 -3.000000
150 2 485.333000 -659.219000 593.506000 1 1.000000 1 -3.000000
151 2 481.982000 -662.504000 602.231000 1 1.000000 1 -3.000000
152 2 478.076000 -665.809000 610.619000 1 1.000000 1 -3.000000
153 2 473.320000 -669.552000 618.499000 1 1.000000 1 -3.000000
154 2 466.776000 -671.627000 625.648000 1 1.000000 1 -3.000000
155 2 461.046000 -675.912000 632.480000 1 1.000000 1 -3.000000
156 2 456.252000 -680.276000 640.057000 1 1.000000 7 -3.000000
157 1 473.975000 -653.479000 674.652000 1 1.000000 7 0.000000
158 3 487.219000 -639.017000 645.650000 1 1.000000 7 0.000000
159 2 500.195000 -618.015000 691.289000 1 1.000000 7 -3.000000
160 2 501.709000 -612.636000 683.169000 1 1.000000 1 -3.000000
161 2 503.153000 -606.010000 676.028000 1 1.000000 1 -3.000000
162 2 504.312000 -602.055000 666.971000 1 1.000000 1 -3.000000
163 2 505.313000 -599.023000 657.609000 1 1.000000 1 -3.000000
164 2 503.634000 -596.783000 648.144000 1 1.000000 1 -3.000000
165 2 503.504000 -596.675000 638.239000 1 1.000000 1 -3.000000
166 2 504.199000 -598.623000 628.607000 1 1.000000 1 -3.000000
167 2 506.021000 -601.416000 619.257000 1 1.000000 1 -3.000000
168 2 509.988000 -604.931000 610.876000 1 1.000000 1 -3.000000
169 2 514.649000 -606.937000 602.379000 1 1.000000 1 -3.000000
170 2 519.377000 -609.985000 594.270000 1 1.000000 1 -3.000000
171 2 523.848000 -613.766000 586.195000 1 1.000000 1 -3.000000
172 2 527.505000 -618.547000 578.365000 1 1.000000 1 -3.000000
173 2 530.826000 -622.751000 570.017000 1 1.000000 1 -3.000000
174 2 533.996000 -626.399000 561.438000 1 1.000000 1 -3.000000
175 2 537.757000 -630.644000 553.329000 1 1.000000 1 -3.000000
176 2 539.602000 -636.710000 545.654000 1 1.000000 1 -3.000000
177 2 540.858000 -644.037000 539.104000 1 1.000000 1 -3.000000
178 2 542.741000 -649.841000 531.316000 1 1.000000 1 -3.000000
179 2 543.051000 -655.688000 523.358000 1 1.000000 1 -3.000000
180 2 542.270000 -660.308000 514.614000 1 1.000000 1 -3.000000
181 2 538.389000 -662.756000 505.858000 1 1.000000 1 -3.000000
182 2 538.039000 -664.915000 496.243000 1 1.000000 1 -3.000000
183 2 537.299000 -667.112000 486.626000 1 1.000000 8 -3.000000
184 1 510.941000 -630.338000 473.233000 1 1.000000 8 0.000000
185 3 519.487000 -622.608000 506.332000 1 1.000000 8 0.000000
186 2 490.397000 -588.378000 480.126000 1 1.000000 8 -3.000000
187 2 493.283000 -588.219000 489.582000 1 1.000000 1 -3.000000
188 2 495.222000 -585.399000 498.890000 1 1.000000 1 -3.000000
189 2 497.130000 -584.597000 508.548000 1 1.000000 1 -3.000000
190 2 497.920000 -584.547000 518.444000 1 1.000000 1 -3.000000
191 2 501.132000 -584.559000 527.784000 1 1.000000 1 -3.000000
192 2 505.936000 -585.195000 536.391000 1 1.000000 1 -3.000000
193 2 509.210000 -586.628000 545.627000 1 1.000000 1 -3.000000
194 2 514.133000 -586.463000 554.198000 1 1.000000 1 -3.000000
195 2 518.242000 -586.292000 563.194000 1 1.000000 1 -3.000000
196 2 522.465000 -584.971000 571.998000 1 1.000000 1 -3.000000
197 2 527.220000 -578.698000 577.939000 1 1.000000 1 -3.000000
198 2 532.593000 -572.244000 583.180000 1 1.000000 1 -3.000000
199 2 537.715000 -564.799000 587.453000 1 1.000000 1 -3.000000
200 2 542.174000 -556.645000 590.796000 1 1.000000 1 -3.000000
201 2 547.171000 -549.754000 595.902000 1 1.000000 1 -3.000000
202 2 551.793000 -545.900000 603.737000 1 1.000000 1 -3.000000
203 2 555.960000 -541.921000 611.829000 1 1.000000 1 -3.000000
204 2 561.248000 -536.848000 618.488000 1 1.000000 1 -3.000000
205 2 565.962000 -530.522000 624.550000 1 1.000000 1 -3.000000
206 2 570.671000 -522.939000 628.832000 1 1.000000 1 -3.000000
207 2 577.355000 -515.962000 631.015000 1 1.000000 1 -3.000000
208 2 584.528000 -509.163000 630.512000 1 1.000000 1 -3.000000
209 2 591.232000 -501.937000 630.133000 1 1.000000 1 -3.000000
210 2 598.807000 -495.616000 630.777000 1 1.000000 9 -3.000000
211 1 630.935000 -523.660000 610.573000 1 1.000000 9 0.000000
212 3 600.796000 -534.699000 596.545000 1 1.000000 9 0.000000
213 2 644.719000 -556.434000 579.593000 1 1.000000 9 -3.000000
214 2 635.540000 -557.007000 575.902000 1 1.000000 1 -3.000000
215 2 626.484000 -556.350000 571.984000 1 1.000000 1 -3.000000
216 2 618.127000 -555.787000 566.888000 1 1.000000 1 -3.000000
217 2 608.755000 -556.041000 563.695000 1 1.000000 1 -3.000000
218 2 599.913000 -557.408000 559.588000 1 1.000000 1 -3.000000
219 2 591.276000 -557.964000 554.708000 1 1.000000 1 -3.000000
220 2 581.760000 -557.615000 552.101000 1 1.000000 1 -3.000000
221 2 572.394000 -554.556000 550.809000 1 1.000000 1 -3.000000
222 2 562.861000 -552.219000 551.979000 1 1.000000 1 -3.000000
223 2 553.593000 -549.269000 553.945000 1 1.000000 1 -3.000000
224 2 543.952000 -546.944000 554.112000 1 1.000000 1 -3.000000
225 2 534.520000 -544.248000 554.494000 1 1.000000 1 -3.000000
226 2 525.134000 -541.208000 553.606000 1 1.000000 1 -3.000000
227 2 515.954000 -537.647000 552.402000 1 1.000000 1 -3.000000
228 2 507.911000 -533.126000 548.812000 1 1.000000 1 -3.000000
229 2 500.236000 -528.644000 544.398000 1 1.000000 1 -3.000000
230 2 493.596000 -522.332000 540.676000 1 1.000000 1 -3.000000
231 2 486.492000 -516.105000 537.594000 1 1.000000 1 -3.000000
232 2 478.819000 -510.251000 535.395000 1 1.000000 1 -3.000000
233 2 472.270000 -503.039000 533.950000 1 1.000000 1 -3.000000
234 2 465.625000 -495.675000 533.509000 1 1.000000 1 -3.000000
235 2 460.431000 -487.174000 533.833000 1 1.000000 1 -3.000000
236 2 456.066000 -479.249000 529.895000 1 1.000000 1 -3.000000
237 2 452.648000 -471.966000 524.168000 1 1.000000 10 -3.000000
238 1 415.679000 -457.763000 549.772000 1 1.000000 10 0.000000
239 3 428.285000 -484.873000 568.141000 1 1.000000 10 0.000000
240 2 385.934000 -460.855000 586.287000 1 1.000000 10 -3.000000
241 2 391.226000 -468.317000 590.140000 1 1.000000 1 -3.000000
242 2 396.944000 -476.021000 592.407000 1 1.000000 1 -3.000000
243 2 400.387000 -484.990000 594.764000 1 1.000000 1 -3.000000
244 2 401.174000 -494.767000 596.290000 1 1.000000 1 -3.000000
245 2 402.287000 -504.527000 597.004000 1 1.000000 1 -3.000000
246 2 403.355000 -513.536000 600.934000 1 1.000000 1 -3.000000
247 2 402.635000 -521.668000 606.670000 1 1.000000 1 -3.000000
248 2 400.783000 -528.593000 613.700000 1 1.000000 1 -3.000000
249 2 398.475000 -535.363000 620.633000 1 1.000000 1 -3.000000
250 2 395.698000 -540.315000 628.734000 1 1.000000 1 -3.000000
251 2 393.449000 -543.589000 637.884000 1 1.000000 1 -3.000000
252 2 391.770000 -548.463000 646.398000 1 1.000000 1 -3.000000
253 2 389.250000 -553.779000 654.407000 1 1.000000 1 -3.000000
254 2 384.712000 -558.447000 661.854000 1 1.000000 1 -3.000000
255 2 379.686000 -561.803000 669.663000 1 1.000000 1 -3.000000
256 2 374.138000 -563.526000 677.625000 1 1.000000 1 -3.000000
257 2 368.412000 -564.588000 685.592000 1 1.000000 1 -3.000000
258 2 361.484000 -564.998000 692.659000 1 1.000000 1 -3.000000
259 2 354.210000 -566.095000 699.391000 1 1.000000 1 -3.000000
260 2 348.082000 -568.796000 706.644000 1 1.000000 1 -3.000000
261 2 341.322000 -573.458000 711.981000 1 1.000000 1 -3.000000
262 2 334.399000 -579.121000 716.192000 1 1.000000 1 -3.000000
263 2 328.588000 -585.534000 720.973000 1 1.000000 1 -3.000000
264 2 322.252000 -591.546000 725.597000 1 1.000000 11 -3.000000
265 1 323.901000 -627.006000 694.567000 1 1.000000 11 0.000000
266 3 352.775000 -608.608000 687.180000 1 1.000000 11 0.000000
267 2 343.878000 -652.017000 659.928000 1 1.000000 11 -3.000000
268 2 351.775000 -646.114000 658.488000 1 1.000000 1 -3.000000
269 2 360.219000 -640.829000 657.739000 1 1.000000 1 -3.000000
270 2 369.335000 -637.414000 659.233000 1 1.000000 1 -3.000000
271 2 378.247000 -634.566000 662.362000 1 1.000000 1 -3.000000
272 2 385.352000 -630.050000 667.523000 1 1.000000 1 -3.000000
273 2 391.868000 -625.714000 673.608000 1 1.000000 1 -3.000000
274 2 400.128000 -622.396000 677.759000 1 1.000000 1 -3.000000
275 2 408.852000 -620.853000 682.301000 1 1.000000 1 -3.000000
276 2 417.247000 -620.227000 687.616000 1 1.000000 1 -3.000000
277 2 425.724000 -619.877000 692.713000 1 1.000000 1 -3.000000
278 2 434.248000 -620.908000 697.622000 1 1.000000 1 -3.000000
279 2 441.431000 -621.322000 704.415000 1 1.000000 1 -3.000000
280 2 447.850000 -622.682000 711.755000 1 1.000000 1 -3.000000
281 2 454.474000 -623.490000 719.137000 1 1.000000 1 -3.000000
282 2 460.567000 -624.020000 726.872000 1 1.000000 1 -3.000000
283 2 467.413000 -624.790000 733.899000 1 1.000000 1 -3.000000
284 2 473.181000 -626.724000 741.687000 1 1.000000 1 -3.000000
285 2 478.170000 -628.743000 749.966000 1 1.000000 1 -3.000000
286 2 482.976000 -631.891000 757.931000 1 1.000000 1 -3.000000
287 2 486.907000 -636.615000 765.835000 1 1.000000 1 -3.000000
288 2 488.107000 -641.079000 774.630000 1 1.000000 1 -3.000000
289 2 487.887000 -645.914000 783.336000 1 1.000000 1 -3.000000
290 2 489.860000 -651.033000 791.639000 1 1.000000 1 -3.000000
291 2 492.197000 -654.422000 800.676000 1 1.000000 12 -3.000000
292 1 446.125000 -651.408000 810.460000 1 1.000000 12 0.000000
293 3 446.892000 -652.573000 775.466000 1 1.000000 12 0.000000
294 2 400.494000 -648.582000 798.653000 1 1.000000 12 -3.000000
295 2 400.842000 -651.092000 789.021000 1 1.000000 1 -3.000000
296 2 400.079000 -656.166000 780.607000 1 1.000000 1 -3.000000
297 2 402.528000 -658.982000 771.425000 1 1.000000 1 -3.000000
298 2 405.389000 -661.378000 762.290000 1 1.000000 1 -3.000000
299 2 409.242000 -664.163000 753.595000 1 1.000000 1 -3.000000
300 2 411.368000 -665.382000 744.088000 1 1.000000 1 -3.000000
301 2 412.590000 -665.965000 734.270000 1 1.000000 1 -3.000000
302 2 413.192000 -665.729000 724.386000 1 1.000000 1 -3.000000
303 2 415.049000 -664.640000 714.700000 1 1.000000 1 -3.000000
304 2 416.109000 -662.447000 705.077000 1 1.000000 1 -3.000000
305 2 417.218000 -661.771000 695.268000 1 1.000000 1 -3.000000
306 2 418.967000 -661.231000 685.481000 1 1.000000 1 -3.000000
307 2 422.036000 -662.939000 676.151000 1 1.000000 1 -3.000000
308 2 425.039000 -665.649000 667.101000 1 1.000000 1 -3.000000
309 2 427.487000 -668.619000 657.997000 1 1.000000 1 -3.000000
310 2 428.282000 -671.520000 648.535000 1 1.000000 1 -3.000000
311 2 427.241000 -673.750000 638.946000 1 1.000000 1 -3.000000
312 2 426.353000 -675.850000 629.329000 1 1.000000 1 -3.000000
313 2 427.299000 -679.095000 620.012000 1 1.000000 1 -3.000000
314 2 430.401000 -683.174000 611.609000 1 1.000000 1 -3.000000
315 2 433.897000 -688.598000 604.178000 1 1.000000 1 -3.000000
316 2 437.173000 -696.227000 598.936000 1 1.000000 1 -3.000000
317 2 439.988000 -703.297000 592.701000 1 1.000000 1 -3.000000
318 2 445.527000 -707.282000 585.587000 1 1.000000 13 -3.000000
319 1 477.145000 -726.134000 615.136000 1 1.000000 13 0.000000
320 3 453.001000 -712.879000 636.779000 1 1.000000 13 0.000000
321 2 492.065000 -739.700000 657.816000 1 1.000000 13 -3.000000
322 2 482.674000 -740.630000 660.857000 1 1.000000 1 -3.000000
323 2 473.461000 -740.202000 664.695000 1 1.000000 1 -3.000000
324 2 464.325000 -740.877000 668.489000 1 1.000000 1 -3.000000
325 2 455.276000 -742.534000 672.128000 1 1.000000 1 -3.000000
326 2 446.586000 -742.345000 676.842000 1 1.000000 1 -3.000000
327 2 438.229000 -743.068000 682.112000 1 1.000000 1 -3.000000
328 2 430.951000 -742.426000 688.979000 1 1.000000 1 -3.000000
329 2 423.541000 -739.767000 694.985000 1 1.000000 1 -3.000000
330 2 417.392000 -737.827000 702.512000 1 1.000000 1 -3.000000
331 2 411.775000 -735.416000 710.345000 1 1.000000 1 -3.000000
332 2 405.822000 -733.380000 717.871000 1 1.000000 1 -3.000000
333 2 398.655000 -733.219000 724.733000 1 1.000000 1 -3.000000
334 2 392.118000 -731.498000 731.893000 1 1.000000 1 -3.000000
335 2 386.874000 -727.037000 738.972000 1 1.000000 1 -3.000000
336 2 381.208000 -722.512000 745.701000 1 1.000000 1 -3.000000
337 2 376.621000 -715.800000 751.383000 1 1.000000 1 -3.000000
338 2 372.942000 -710.880000 759.166000 1 1.000000 1 -3.000000
339 2 371.738000 -705.782000 767.635000 1 1.000000 1 -3.000000
340 2 369.301000 -700.954000 776.035000 1 1.000000 1 -3.000000
341 2 367.465000 -694.398000 783.257000 1 1.000000 1 -3.000000
342 2 366.004000 -686.042000 788.295000 1 1.000000 1 -3.000000
343 2 364.381000 -677.351000 792.845000 1 1.000000 1 -3.000000
344 2 360.050000 -669.546000 797.077000 1 1.000000 1 -3.000000
345 2 355.901000 -662.556000 802.648000 1 1.000000 14 -3.000000
346 1 345.327000 -637.376000 764.233000 1 1.000000 14 0.000000
347 3 347.704000 -670.040000 751.919000 1 1.000000 14 0.000000
348 2 336.568000 -632.139000 718.169000 1 1.000000 14 -3.000000
349 2 336.228000 -641.859000 716.089000 1 1.000000 1 -3.000000
350 2 334.456000 -651.206000 713.353000 1 1.000000 1 -3.000000
351 2 332.925000 -660.735000 711.434000 1 1.000000 1 -3.000000
352 2 335.759000 -669.851000 708.815000 1 1.000000 1 -3.000000
353 2 337.165000 -679.512000 707.191000 1 1.000000 1 -3.000000
354 2 337.217000 -689.332000 706.365000 1 1.000000 1 -3.000000
355 2 335.763000 -698.985000 705.000000 1 1.000000 1 -3.000000
356 2 332.669000 -708.028000 702.102000 1 1.000000 1 -3.000000
357 2 327.149000 -715.440000 698.798000 1 1.000000 1 -3.000000
358 2 318.389000 -719.940000 697.610000 1 1.000000 1 -3.000000
359 2 310.251000 -724.174000 693.993000 1 1.000000 1 -3.000000
360 2 302.263000 -728.239000 689.897000 1 1.000000 1 -3.000000
361 2 294.284000 -732.360000 685.624000 1 1.000000 1 -3.000000
362 2 286.899000 -738.144000 682.300000 1 1.000000 1 -3.000000
363 2 279.441000 -743.829000 679.298000 1 1.000000 1 -3.000000
364 2 271.827000 -747.952000 674.596000 1 1.000000 1 -3.000000
365 2 262.820000 -749.303000 670.575000 1 1.000000 1 -3.000000
366 2 253.444000 -749.955000 667.487000 1 1.000000 1 -3.000000
367 2 244.762000 -749.085000 662.967000 1 1.000000 1 -3.000000
368 2 236.759000 -751.218000 657.434000 1 1.000000 1 -3.000000
369 2 229.319000 -754.121000 651.619000 1 1.000000 1 -3.000000
370 2 223.042000 -757.724000 644.762000 1 1.000000 1 -3.000000
371 2 219.153000 -761.712000 636.579000 1 1.000000 1 -3.000000
372 2 215.095000 -765.535000 628.450000 1 1.000000 15 -3.000000
373 1 250.954000 -769.603000 598.112000 1 1.000000 15 0.000000
374 3 266.843000 -768.691000 629.342000 1 1.000000 15 0.000000
375 2 296.671000 -773.979000 587.158000 1 1.000000 15 -3.000000
376 2 298.334000 -775.973000 596.678000 1 1.000000 1 -3.000000
377 2 301.744000 -778.138000 605.675000 1 1.000000 1 -3.000000
378 2 305.966000 -781.139000 614.185000 1 1.000000 1 -3.000000
379 2 308.252000 -783.309000 623.568000 1 1.000000 1 -3.000000
380 2 308.265000 -786.621000 632.883000 1 1.000000 1 -3.000000
381 2 304.940000 -788.114000 642.119000 1 1.000000 1 -3.000000
382 2 301.119000 -788.920000 651.218000 1 1.000000 1 -3.000000
383 2 296.882000 -788.249000 660.075000 1 1.000000 1 -3.000000
384 2 291.393000 -786.683000 668.200000 1 1.000000 1 -3.000000
385 2 286.231000 -784.624000 676.397000 1 1.000000 1 -3.000000
386 2 281.219000 -783.806000 684.971000 1 1.000000 1 -3.000000
387 2 275.041000 -781.255000 692.245000 1 1.000000 1 -3.000000
388 2 268.795000 -780.074000 699.900000 1 1.000000 1 -3.000000
389 2 262.357000 -780.500000 707.390000 1 1.000000 1 -3.000000
390 2 259.053000 -778.262000 716.360000 1 1.000000 1 -3.000000
391 2 256.677000 -776.134000 725.709000 1 1.000000 1 -3.000000
392 2 257.721000 -773.850000 735.247000 1 1.000000 1 -3.000000
393 2 258.584000 -771.892000 744.869000 1 1.000000 1 -3.000000
394 2 259.132000 -771.749000 754.720000 1 1.000000 1 -3.000000
395 2 258.545000 -770.577000 764.524000 1 1.000000 1 -3.000000
396 2 255.825000 -768.566000 773.865000 1 1.000000 1 -3.000000
397 2 255.227000 -763.908000 782.603000 1 1.000000 1 -3.000000
398 2 253.120000 -756.724000 789.187000 1 1.000000 1 -3.000000
399 2 251.959000 -751.159000 797.255000 1 1.000000 16 -3.000000
400 1 231.782000 -714.226000 775.906000 1 1.000000 16 0.000000
401 3 227.760000 -740.102000 752.739000 1 1.000000 16 0.000000
402 2 211.391000 -692.686000 739.223000 1 1.000000 16 -3.000000
403 2 205.525000 -699.758000 735.732000 1 1.000000 1 -3.000000
404 2 202.058000 -707.686000 730.936000 1 1.000000 1 -3.000000
405 2 199.555000 -716.416000 727.112000 1 1.000000 1 -3.000000
406 2 197.186000 -725.558000 723.925000 1 1.000000 1 -3.000000
407 2 194.967000 -735.112000 722.208000 1 1.000000 1 -3.000000
408 2 194.897000 -744.946000 721.568000 1 1.000000 1 -3.000000
409 2 195.991000 -754.752000 721.513000 1 1.000000 1 -3.000000
410 2 196.495000 -764.531000 720.349000 1 1.000000 1 -3.000000
411 2 198.507000 -774.185000 720.055000 1 1.000000 1 -3.000000
412 2 200.596000 -783.880000 721.059000 1 1.000000 1 -3.000000
413 2 201.997000 -793.660000 721.296000 1 1.000000 1 -3.000000
414 2 204.803000 -803.082000 720.823000 1 1.000000 1 -3.000000
415 2 207.814000 -812.013000 717.806000 1 1.000000 1 -3.000000
416 2 211.527000 -819.801000 712.690000 1 1.000000 1 -3.000000
417 2 214.976000 -826.961000 706.879000 1 1.000000 1 -3.000000
418 2 219.154000 -834.764000 702.462000 1 1.000000 1 -3.000000
419 2 225.503000 -842.300000 701.174000 1 1.000000 1 -3.000000
420 2 232.230000 -849.615000 701.137000 1 1.000000 1 -3.000000
421 2 237.720000 -857.686000 702.873000 1 1.000000 1 -3.000000
422 2 240.883000 -866.979000 704.419000 1 1.000000 1 -3.000000
423 2 242.393000 -876.020000 708.255000 1 1.000000 1 -3.000000
424 2 242.389000 -885.171000 712.027000 1 1.000000 1 -3.000000
425 2 243.155000 -893.753000 716.961000 1 1.000000 1 -3.000000
426 2 243.595000 -902.599000 721.333000 1 1.000000 17 -3.000000
427 1 217.187000 -890.143000 758.371000 1 1.000000 17 0.000000
428 3 209.327000 -865.820000 734.529000 1 1.000000 17 0.000000
429 2 187.549000 -861.572000 781.448000 1 1.000000 17 -3.000000
430 2 183.222000 -858.159000 773.178000 1 1.000000 1 -3.000000
431 2 179.340000 -855.170000 764.589000 1 1.000000 1 -3.000000
432 2 175.864000 -850.324000 756.708000 1 1.000000 1 -3.000000
433 2 170.155000 -847.564000 749.116000 1 1.000000 1 -3.000000
434 2 163.037000 -846.128000 742.366000 1 1.000000 1 -3.000000
435 2 156.652000 -844.043000 735.032000 1 1.000000 1 -3.000000
436 2 149.859000 -842.844000 727.996000 1 1.000000 1 -3.000000
437 2 142.978000 -842.344000 720.855000 1 1.000000 1 -3.000000
438 2 135.764000 -842.219000 714.164000 1 1.000000 1 -3.000000
439 2 129.275000 -841.749000 706.727000 1 1.000000 1 -3.000000
440 2 122.857000 -842.334000 699.320000 1 1.000000 1 -3.000000
441 2 116.018000 -841.397000 692.266000 1 1.000000 1 -3.000000
442 2 108.246000 -840.598000 686.211000 1 1.000000 1 -3.000000
443 2 100.678000 -838.685000 680.020000 1 1.000000 1 -3.000000
444 2 93.502200 -836.336000 673.708000 1 1.000000 1 -3.000000
445 2 85.771700 -834.402000 667.832000 1 1.000000 1 -3.000000
446 2 79.046800 -833.604000 660.685000 1 1.000000 1 -3.000000
447 2 72.150000 -833.033000 653.655000 1 1.000000 1 -3.000000
448 2 64.241000 -831.218000 647.987000 1 1.000000 1 -3.000000
449 2 56.301400 -827.605000 643.354000 1 1.000000 1 -3.000000
450 2 47.721000 -824.010000 639.890000 1 1.000000 1 -3.000000
451 2 41.014300 -817.100000 637.620000 1 1.000000 1 -3.000000
452 2 34.914900 -809.343000 637.232000 1 1.000000 1 -3.000000
453 2 28.378300 -801.985000 636.984000 1 1.000000 18 -3.000000
454 1 58.170200 -765.533000 634.000000 1 1.000000 18 0.000000
455 3 79.536500 -793.287000 634.894000 1 1.000000 18 0.000000
456 2 101.123000 -746.209000 632.550000 1 1.000000 18 -3.000000
457 2 106.600000 -754.374000 631.141000 1 1.000000 1 -3.000000
458 2 111.739000 -762.645000 629.573000 1 1.000000 1 -3.000000
459 2 116.272000 -771.327000 627.654000 1 1.000000 1 -3.000000
460 2 120.365000 -779.794000 624.753000 1 1.000000 1 -3.000000
461 2 121.364000 -789.072000 621.550000 1 1.000000 1 -3.000000
462 2 119.955000 -798.171000 617.948000 1 1.000000 1 -3.000000
463 2 119.172000 -807.670000 615.030000 1 1.000000 1 -3.000000
464 2 119.602000 -817.384000 613.211000 1 1.000000 1 -3.000000
465 2 121.180000 -826.992000 611.072000 1 1.000000 1 -3.000000
466 2 119.775000 -836.778000 610.025000 1 1.000000 1 -3.000000
467 2 117.692000 -846.380000 609.051000 1 1.000000 1 -3.000000
468 2 114.515000 -855.722000 608.122000 1 1.000000 1 -3.000000
469 2 113.005000 -865.256000 606.279000 1 1.000000 1 -3.000000
470 2 111.822000 -874.717000 603.700000 1 1.000000 1 -3.000000
471 2 110.673000 -884.003000 600.694000 1 1.000000 1 -3.000000
472 2 109.341000 -892.350000 595.477000 1 1.000000 1 -3.000000
473 2 108.147000 -901.371000 591.535000 1 1.000000 1 -3.000000