LAMMPS data file

4067 atoms
4067 ellipsoids
4516 bonds
8882 angles
0 dihedrals

3 atom types
5 bond types
12 angle types
0 dihedral types

-4631.092947 4670.465898 xlo xhi
-4631.092947 4670.465898 ylo yhi
-4631.092947 4670.465898 zlo zhi

Masses

1 196016.000000
2 1950.000000
3 19500.000000

Atoms

1 2 113.663000 -662.168000 529.363000 1 1.000000 1 -3.000000
2 2 115.629000 -653.224000 533.092000 1 1.000000 1 -3.000000
3 2 118.208000 -644.514000 537.077000 1 1.000000 1 -3.000000
4 2 119.322000 -636.348000 542.426000 1 1.000000 1 -3.000000
5 2 120.052000 -628.191000 548.052000 1 1.000000 1 -3.000000
6 2 120.273000 -620.839000 554.677000 1 1.000000 1 -3.000000
7 2 120.035000 -613.354000 561.255000 1 1.000000 1 -3.000000
8 2 121.848000 -606.134000 567.675000 1 1.000000 1 -3.000000
9 2 123.362000 -599.380000 574.742000 1 1.000000 1 -3.000000
10 2 125.028000 -591.849000 580.957000 1 1.000000 1 -3.000000
11 2 128.815000 -586.601000 588.340000 1 1.000000 1 -3.000000
12 2 133.977000 -582.974000 595.879000 1 1.000000 1 -3.000000
13 2 139.310000 -579.509000 603.425000 1 1.000000 1 -3.000000
14 2 145.795000 -576.940000 610.448000 1 1.000000 1 -3.000000
15 2 152.975000 -574.778000 616.935000 1 1.000000 1 -3.000000
16 2 160.448000 -573.922000 623.424000 1 1.000000 1 -3.000000
17 2 167.259000 -575.421000 630.374000 1 1.000000 1 -3.000000
18 2 174.309000 -578.170000 636.683000 1 1.000000 1 -3.000000
19 2 182.127000 -579.866000 642.533000 1 1.000000 1 -3.000000
20 2 189.665000 -582.240000 648.506000 1 1.000000 1 -3.000000
21 2 198.132000 -583.104000 653.621000 1 1.000000 2 -3.000000
22 1 224.685000 -602.802000 619.958000 1 1.000000 2 0.000000
23 3 198.740000 -587.832000 601.900000 1 1.000000 2 0.000000
24 2 235.894000 -612.333000 575.172000 1 1.000000 2 -3.000000
25 2 231.046000 -604.603000 571.214000 1 1.000000 1 -3.000000
26 2 224.935000 -598.038000 566.815000 1 1.000000 1 -3.000000
27 2 219.799000 -590.291000 563.375000 1 1.000000 1 -3.000000
28 2 214.170000 -582.433000 561.392000 1 1.000000 1 -3.000000
29 2 209.048000 -574.424000 558.681000 1 1.000000 1 -3.000000
30 2 203.905000 -565.971000 557.254000 1 1.000000 1 -3.000000
31 2 199.471000 -557.580000 560.376000 1 1.000000 1 -3.000000
32 2 196.756000 -548.207000 562.353000 1 1.000000 1 -3.000000
33 2 194.584000 -538.833000 564.649000 1 1.000000 1 -3.000000
34 2 191.331000 -530.360000 568.803000 1 1.000000 1 -3.000000
35 2 189.329000 -521.570000 572.989000 1 1.000000 1 -3.000000
36 2 186.553000 -512.663000 576.347000 1 1.000000 1 -3.000000
37 2 183.482000 -503.712000 579.035000 1 1.000000 1 -3.000000
38 2 180.363000 -494.933000 582.526000 1 1.000000 1 -3.000000
39 2 176.260000 -486.266000 585.066000 1 1.000000 1 -3.000000
40 2 174.557000 -478.011000 590.124000 1 1.000000 1 -3.000000
41 2 173.633000 -470.219000 596.257000 1 1.000000 1 -3.000000
42 2 172.702000 -462.019000 601.675000 1 1.000000 1 -3.000000
43 2 172.236000 -454.691000 608.312000 1 1.000000 1 -3.000000
44 2 171.898000 -450.578000 617.295000 1 1.000000 1 -3.000000
45 2 170.374000 -445.071000 625.417000 1 1.000000 1 -3.000000
46 2 169.055000 -440.953000 634.355000 1 1.000000 1 -3.000000
47 2 166.997000 -436.717000 643.049000 1 1.000000 1 -3.000000
48 2 163.141000 -431.843000 650.737000 1 1.000000 3 -3.000000
49 1 201.704000 -404.750000 652.498000 1 1.000000 3 0.000000
50 3 214.202000 -435.750000 642.307000 1 1.000000 3 0.000000
51 2 247.979000 -396.815000 648.283000 1 1.000000 3 -3.000000
52 2 249.112000 -403.895000 641.522000 1 1.000000 1 -3.000000
53 2 250.891000 -410.756000 634.576000 1 1.000000 1 -3.000000
54 2 251.024000 -417.018000 626.973000 1 1.000000 1 -3.000000
55 2 250.519000 -423.192000 619.237000 1 1.000000 1 -3.000000
56 2 250.792000 -428.810000 611.104000 1 1.000000 1 -3.000000
57 2 250.805000 -433.010000 602.126000 1 1.000000 1 -3.000000
58 2 250.948000 -436.741000 592.969000 1 1.000000 1 -3.000000
59 2 250.702000 -440.706000 583.862000 1 1.000000 1 -3.000000
60 2 252.726000 -441.913000 574.239000 1 1.000000 1 -3.000000
61 2 254.723000 -442.532000 564.593000 1 1.000000 1 -3.000000
62 2 255.567000 -439.216000 555.296000 1 1.000000 1 -3.000000
63 2 257.178000 -438.361000 545.603000 1 1.000000 1 -3.000000
64 2 258.157000 -432.649000 537.597000 1 1.000000 1 -3.000000
65 2 258.403000 -426.540000 529.837000 1 1.000000 1 -3.000000
66 2 257.063000 -419.940000 522.622000 1 1.000000 1 -3.000000
67 2 253.941000 -412.013000 517.498000 1 1.000000 1 -3.000000
68 2 251.548000 -402.972000 514.293000 1 1.000000 1 -3.000000
69 2 247.091000 -394.807000 510.650000 1 1.000000 1 -3.000000
70 2 244.105000 -385.673000 508.149000 1 1.000000 1 -3.000000
71 2 240.202000 -376.798000 506.189000 1 1.000000 1 -3.000000
72 2 236.531000 -367.562000 506.964000 1 1.000000 1 -3.000000
73 2 234.911000 -357.747000 507.579000 1 1.000000 1 -3.000000
74 2 233.122000 -348.565000 510.647000 1 1.000000 1 -3.000000
75 2 231.805000 -339.238000 513.864000 1 1.000000 4 -3.000000
76 1 241.357000 -342.420000 559.933000 1 1.000000 4 0.000000
77 3 259.361000 -369.026000 546.218000 1 1.000000 4 0.000000
78 2 261.037000 -362.730000 597.697000 1 1.000000 4 -3.000000
79 2 268.375000 -367.672000 593.368000 1 1.000000 1 -3.000000
80 2 276.176000 -372.439000 589.548000 1 1.000000 1 -3.000000
81 2 282.569000 -376.913000 583.482000 1 1.000000 1 -3.000000
82 2 287.473000 -382.442000 576.753000 1 1.000000 1 -3.000000
83 2 291.817000 -388.020000 569.851000 1 1.000000 1 -3.000000
84 2 294.119000 -389.047000 560.259000 1 1.000000 1 -3.000000
85 2 296.761000 -389.756000 550.709000 1 1.000000 1 -3.000000
86 2 298.037000 -393.936000 541.827000 1 1.000000 1 -3.000000
87 2 300.021000 -399.253000 533.746000 1 1.000000 1 -3.000000
88 2 302.418000 -403.585000 525.184000 1 1.000000 1 -3.000000
89 2 305.060000 -409.391000 517.577000 1 1.000000 1 -3.000000
90 2 308.896000 -414.626000 510.122000 1 1.000000 1 -3.000000
91 2 313.197000 -416.214000 501.294000 1 1.000000 1 -3.000000
92 2 318.060000 -418.127000 492.865000 1 1.000000 1 -3.000000
93 2 321.547000 -417.385000 483.675000 1 1.000000 1 -3.000000
94 2 322.445000 -416.626000 473.813000 1 1.000000 1 -3.000000
95 2 321.509000 -416.108000 464.021000 1 1.000000 1 -3.000000
96 2 319.694000 -415.868000 454.351000 1 1.000000 1 -3.000000
97 2 320.744000 -413.471000 444.786000 1 1.000000 1 -3.000000
98 2 321.275000 -408.844000 436.074000 1 1.000000 1 -3.000000
99 2 321.827000 -402.858000 428.291000 1 1.000000 1 -3.000000
100 2 325.621000 -395.907000 422.352000 1 1.000000 1 -3.000000
101 2 328.966000 -388.163000 417.388000 1 1.000000 1 -3.000000
102 2 331.618000 -380.767000 411.269000 1 1.000000 5 -3.000000
103 1 327.462000 -344.980000 441.724000 1 1.000000 5 0.000000
104 3 331.163000 -372.833000 462.559000 1 1.000000 5 0.000000
105 2 323.800000 -326.617000 485.023000 1 1.000000 5 -3.000000
106 2 328.269000 -334.455000 489.097000 1 1.000000 1 -3.000000
107 2 333.348000 -341.411000 494.085000 1 1.000000 1 -3.000000
108 2 339.631000 -347.988000 497.963000 1 1.000000 1 -3.000000
109 2 345.883000 -355.017000 500.919000 1 1.000000 1 -3.000000
110 2 353.178000 -361.684000 500.238000 1 1.000000 1 -3.000000
111 2 360.067000 -368.733000 500.783000 1 1.000000 1 -3.000000
112 2 367.993000 -374.347000 502.207000 1 1.000000 1 -3.000000
113 2 375.936000 -379.988000 504.080000 1 1.000000 1 -3.000000
114 2 384.220000 -385.099000 505.748000 1 1.000000 1 -3.000000
115 2 392.756000 -389.150000 508.833000 1 1.000000 1 -3.000000
116 2 400.875000 -393.168000 512.844000 1 1.000000 1 -3.000000
117 2 408.600000 -398.367000 516.137000 1 1.000000 1 -3.000000
118 2 416.321000 -403.423000 519.527000 1 1.000000 1 -3.000000
119 2 423.432000 -408.435000 524.181000 1 1.000000 1 -3.000000
120 2 430.741000 -411.443000 530.115000 1 1.000000 1 -3.000000
121 2 437.974000 -413.728000 536.538000 1 1.000000 1 -3.000000
122 2 443.871000 -419.113000 542.442000 1 1.000000 1 -3.000000
123 2 449.177000 -426.099000 547.093000 1 1.000000 1 -3.000000
124 2 455.318000 -430.790000 553.194000 1 1.000000 1 -3.000000
125 2 461.350000 -436.082000 559.092000 1 1.000000 1 -3.000000
126 2 469.499000 -440.117000 563.077000 1 1.000000 1 -3.000000
127 2 477.825000 -443.408000 567.249000 1 1.000000 1 -3.000000
128 2 487.232000 -445.554000 569.551000 1 1.000000 1 -3.000000
129 2 496.258000 -447.958000 572.868000 1 1.000000 6 -3.000000
130 1 520.987000 -416.163000 548.350000 1 1.000000 6 0.000000
131 3 488.674000 -402.600000 548.794000 1 1.000000 6 0.000000
132 2 525.536000 -376.587000 523.078000 1 1.000000 6 -3.000000
133 2 516.600000 -372.773000 524.821000 1 1.000000 1 -3.000000
134 2 507.786000 -368.372000 526.237000 1 1.000000 1 -3.000000
135 2 499.037000 -365.260000 529.658000 1 1.000000 1 -3.000000
136 2 489.983000 -364.132000 533.507000 1 1.000000 1 -3.000000
137 2 481.000000 -363.115000 537.536000 1 1.000000 1 -3.000000
138 2 472.905000 -362.218000 543.047000 1 1.000000 1 -3.000000
139 2 465.746000 -363.064000 549.822000 1 1.000000 1 -3.000000
140 2 459.994000 -363.972000 557.847000 1 1.000000 1 -3.000000
141 2 453.769000 -366.133000 565.184000 1 1.000000 1 -3.000000
142 2 445.794000 -367.232000 570.840000 1 1.000000 1 -3.000000
143 2 437.041000 -367.495000 575.516000 1 1.000000 1 -3.000000
144 2 427.631000 -367.004000 578.728000 1 1.000000 1 -3.000000
145 2 418.055000 -368.018000 580.939000 1 1.000000 1 -3.000000
146 2 408.709000 -369.081000 584.098000 1 1.000000 1 -3.000000
147 2 398.990000 -369.230000 586.137000 1 1.000000 1 -3.000000
148 2 389.437000 -371.043000 587.650000 1 1.000000 1 -3.000000
149 2 379.791000 -372.198000 589.652000 1 1.000000 1 -3.000000
150 2 369.895000 -371.653000 590.730000 1 1.000000 1 -3.000000
151 2 360.685000 -373.652000 593.544000 1 1.000000 1 -3.000000
152 2 352.275000 -374.163000 598.718000 1 1.000000 1 -3.000000
153 2 345.413000 -375.041000 605.712000 1 1.000000 1 -3.000000
154 2 338.770000 -377.031000 612.774000 1 1.000000 1 -3.000000
155 2 333.861000 -378.921000 621.168000 1 1.000000 1 -3.000000
156 2 328.003000 -380.594000 628.974000 1 1.000000 7 -3.000000
157 1 358.129000 -406.501000 654.517000 1 1.000000 7 0.000000
158 3 378.973000 -390.616000 631.218000 1 1.000000 7 0.000000
159 2 400.314000 -426.119000 662.530000 1 1.000000 7 -3.000000
160 2 405.707000 -419.304000 657.895000 1 1.000000 1 -3.000000
161 2 410.128000 -411.918000 652.927000 1 1.000000 1 -3.000000
162 2 415.707000 -405.098000 648.299000 1 1.000000 1 -3.000000
163 2 420.048000 -397.583000 643.562000 1 1.000000 1 -3.000000
164 2 423.647000 -390.275000 637.962000 1 1.000000 1 -3.000000
165 2 423.022000 -381.488000 633.499000 1 1.000000 1 -3.000000
166 2 421.017000 -372.761000 629.449000 1 1.000000 1 -3.000000
167 2 418.712000 -364.000000 625.440000 1 1.000000 1 -3.000000
168 2 417.977000 -355.154000 621.076000 1 1.000000 1 -3.000000
169 2 415.477000 -346.309000 617.161000 1 1.000000 1 -3.000000
170 2 413.338000 -338.159000 611.934000 1 1.000000 1 -3.000000
171 2 410.283000 -330.079000 607.070000 1 1.000000 1 -3.000000
172 2 409.279000 -321.118000 603.167000 1 1.000000 1 -3.000000
173 2 408.444000 -311.508000 600.688000 1 1.000000 1 -3.000000
174 2 408.061000 -301.998000 597.917000 1 1.000000 1 -3.000000
175 2 408.154000 -292.624000 594.992000 1 1.000000 1 -3.000000
176 2 408.404000 -282.986000 592.806000 1 1.000000 1 -3.000000
177 2 408.959000 -273.235000 590.727000 1 1.000000 1 -3.000000
178 2 409.062000 -264.208000 586.696000 1 1.000000 1 -3.000000
179 2 408.608000 -254.777000 583.587000 1 1.000000 1 -3.000000
180 2 406.775000 -246.849000 577.966000 1 1.000000 1 -3.000000
181 2 407.063000 -239.114000 571.797000 1 1.000000 1 -3.000000
182 2 406.702000 -232.512000 564.354000 1 1.000000 1 -3.000000
183 2 405.142000 -226.018000 556.967000 1 1.000000 8 -3.000000
184 1 421.683000 -252.969000 521.972000 1 1.000000 8 0.000000
185 3 412.592000 -276.221000 546.359000 1 1.000000 8 0.000000
186 2 432.167000 -294.228000 501.745000 1 1.000000 8 -3.000000
187 2 427.330000 -299.902000 508.209000 1 1.000000 1 -3.000000
188 2 425.316000 -305.474000 516.106000 1 1.000000 1 -3.000000
189 2 420.758000 -311.286000 522.756000 1 1.000000 1 -3.000000
190 2 415.450000 -316.895000 528.997000 1 1.000000 1 -3.000000
191 2 408.920000 -320.012000 535.794000 1 1.000000 1 -3.000000
192 2 401.969000 -322.103000 542.616000 1 1.000000 1 -3.000000
193 2 396.100000 -321.837000 550.626000 1 1.000000 1 -3.000000
194 2 389.670000 -318.708000 557.423000 1 1.000000 1 -3.000000
195 2 381.885000 -316.656000 563.203000 1 1.000000 1 -3.000000
196 2 375.233000 -315.603000 570.556000 1 1.000000 1 -3.000000
197 2 368.673000 -314.668000 577.964000 1 1.000000 1 -3.000000
198 2 361.627000 -311.188000 584.036000 1 1.000000 1 -3.000000
199 2 354.666000 -307.406000 589.898000 1 1.000000 1 -3.000000
200 2 346.858000 -303.420000 594.634000 1 1.000000 1 -3.000000
201 2 338.988000 -298.936000 598.526000 1 1.000000 1 -3.000000
202 2 331.466000 -295.535000 604.027000 1 1.000000 1 -3.000000
203 2 324.759000 -290.329000 609.126000 1 1.000000 1 -3.000000
204 2 317.168000 -285.233000 612.978000 1 1.000000 1 -3.000000
205 2 310.359000 -279.309000 617.036000 1 1.000000 1 -3.000000
206 2 304.510000 -272.368000 620.885000 1 1.000000 1 -3.000000
207 2 300.844000 -263.840000 624.277000 1 1.000000 1 -3.000000
208 2 297.492000 -254.976000 627.034000 1 1.000000 1 -3.000000
209 2 294.495000 -246.722000 631.662000 1 1.000000 1 -3.000000
210 2 291.154000 -239.728000 637.855000 1 1.000000 9 -3.000000
211 1 331.951000 -216.116000 637.733000 1 1.000000 9 0.000000
212 3 339.590000 -245.476000 620.314000 1 1.000000 9 0.000000
213 2 377.404000 -210.368000 626.307000 1 1.000000 9 -3.000000
214 2 378.612000 -218.150000 620.378000 1 1.000000 1 -3.000000
215 2 380.925000 -226.353000 615.244000 1 1.000000 1 -3.000000
216 2 381.150000 -233.990000 609.002000 1 1.000000 1 -3.000000
217 2 380.861000 -241.062000 602.137000 1 1.000000 1 -3.000000
218 2 378.034000 -248.602000 596.146000 1 1.000000 1 -3.000000
219 2 375.008000 -256.106000 590.594000 1 1.000000 1 -3.000000
220 2 369.259000 -263.107000 586.520000 1 1.000000 1 -3.000000
221 2 362.029000 -268.484000 582.516000 1 1.000000 1 -3.000000
222 2 354.500000 -274.201000 579.692000 1 1.000000 1 -3.000000
223 2 346.558000 -278.899000 576.019000 1 1.000000 1 -3.000000
224 2 338.630000 -283.370000 572.101000 1 1.000000 1 -3.000000
225 2 330.599000 -287.545000 568.066000 1 1.000000 1 -3.000000
226 2 321.065000 -289.525000 566.262000 1 1.000000 1 -3.000000
227 2 311.293000 -291.111000 567.100000 1 1.000000 1 -3.000000
228 2 301.463000 -292.292000 567.368000 1 1.000000 1 -3.000000
229 2 291.639000 -293.784000 567.995000 1 1.000000 1 -3.000000
230 2 282.076000 -296.095000 569.533000 1 1.000000 1 -3.000000
231 2 272.318000 -295.133000 571.282000 1 1.000000 1 -3.000000
232 2 262.410000 -295.641000 571.385000 1 1.000000 1 -3.000000
233 2 252.603000 -294.892000 572.149000 1 1.000000 1 -3.000000
234 2 242.910000 -292.694000 573.241000 1 1.000000 1 -3.000000
235 2 233.192000 -291.424000 574.613000 1 1.000000 1 -3.000000
236 2 223.990000 -288.856000 577.012000 1 1.000000 1 -3.000000
237 2 214.942000 -285.360000 578.799000 1 1.000000 10 -3.000000
238 1 221.088000 -238.659000 575.479000 1 1.000000 10 0.000000
239 3 250.534000 -251.709000 561.873000 1 1.000000 10 0.000000
240 2 245.632000 -200.049000 563.961000 1 1.000000 10 -3.000000
241 2 252.693000 -204.469000 558.636000 1 1.000000 1 -3.000000
242 2 258.919000 -208.326000 551.981000 1 1.000000 1 -3.000000
243 2 264.625000 -212.116000 544.803000 1 1.000000 1 -3.000000
244 2 268.336000 -217.615000 537.474000 1 1.000000 1 -3.000000
245 2 272.232000 -224.979000 532.060000 1 1.000000 1 -3.000000
246 2 274.654000 -232.455000 525.994000 1 1.000000 1 -3.000000
247 2 275.398000 -238.048000 517.863000 1 1.000000 1 -3.000000
248 2 277.740000 -242.261000 509.198000 1 1.000000 1 -3.000000
249 2 279.901000 -246.336000 500.445000 1 1.000000 1 -3.000000
250 2 282.049000 -251.439000 492.160000 1 1.000000 1 -3.000000
251 2 284.280000 -256.836000 484.111000 1 1.000000 1 -3.000000
252 2 287.264000 -261.754000 476.050000 1 1.000000 1 -3.000000
253 2 289.656000 -266.396000 467.592000 1 1.000000 1 -3.000000
254 2 292.037000 -270.067000 458.749000 1 1.000000 1 -3.000000
255 2 296.367000 -274.668000 451.073000 1 1.000000 1 -3.000000
256 2 299.963000 -278.829000 442.797000 1 1.000000 1 -3.000000
257 2 301.558000 -283.427000 434.110000 1 1.000000 1 -3.000000
258 2 302.166000 -287.677000 425.170000 1 1.000000 1 -3.000000
259 2 299.511000 -292.773000 417.132000 1 1.000000 1 -3.000000
260 2 294.621000 -296.793000 409.601000 1 1.000000 1 -3.000000
261 2 287.957000 -298.935000 402.644000 1 1.000000 1 -3.000000
262 2 281.843000 -301.466000 395.247000 1 1.000000 1 -3.000000
263 2 275.537000 -300.223000 387.695000 1 1.000000 1 -3.000000
264 2 267.795000 -300.499000 381.580000 1 1.000000 11 -3.000000
265 1 239.863000 -265.711000 396.951000 1 1.000000 11 0.000000
266 3 269.874000 -259.966000 414.143000 1 1.000000 11 0.000000
267 2 230.097000 -227.998000 423.576000 1 1.000000 11 -3.000000
268 2 239.041000 -223.962000 424.663000 1 1.000000 1 -3.000000
269 2 248.141000 -220.160000 424.148000 1 1.000000 1 -3.000000
270 2 257.502000 -217.209000 422.684000 1 1.000000 1 -3.000000
271 2 266.735000 -214.887000 419.961000 1 1.000000 1 -3.000000
272 2 276.531000 -216.006000 419.445000 1 1.000000 1 -3.000000
273 2 286.032000 -218.843000 418.756000 1 1.000000 1 -3.000000
274 2 294.750000 -223.508000 417.507000 1 1.000000 1 -3.000000
275 2 303.316000 -228.268000 417.132000 1 1.000000 1 -3.000000
276 2 311.793000 -233.341000 417.184000 1 1.000000 1 -3.000000
277 2 318.558000 -240.467000 417.967000 1 1.000000 1 -3.000000
278 2 326.374000 -246.374000 416.173000 1 1.000000 1 -3.000000
279 2 332.301000 -253.507000 412.773000 1 1.000000 1 -3.000000
280 2 338.068000 -260.014000 408.143000 1 1.000000 1 -3.000000
281 2 344.161000 -267.372000 405.520000 1 1.000000 1 -3.000000
282 2 351.754000 -273.113000 402.870000 1 1.000000 1 -3.000000
283 2 359.963000 -278.056000 400.101000 1 1.000000 1 -3.000000
284 2 366.901000 -283.586000 395.614000 1 1.000000 1 -3.000000
285 2 371.376000 -292.022000 393.218000 1 1.000000 1 -3.000000
286 2 373.701000 -301.562000 392.932000 1 1.000000 1 -3.000000
287 2 374.340000 -311.340000 391.192000 1 1.000000 1 -3.000000
288 2 375.778000 -320.419000 387.613000 1 1.000000 1 -3.000000
289 2 376.035000 -329.658000 384.228000 1 1.000000 1 -3.000000
290 2 375.007000 -338.485000 379.894000 1 1.000000 1 -3.000000
291 2 372.731000 -346.148000 374.069000 1 1.000000 12 -3.000000
292 1 333.027000 -338.203000 349.805000 1 1.000000 12 0.000000
293 3 342.626000 -306.175000 360.226000 1 1.000000 12 0.000000
294 2 297.611000 -310.872000 334.851000 1 1.000000 12 -3.000000
295 2 302.365000 -302.188000 333.939000 1 1.000000 1 -3.000000
296 2 307.298000 -293.553000 333.919000 1 1.000000 1 -3.000000
297 2 312.167000 -285.001000 335.142000 1 1.000000 1 -3.000000
298 2 318.081000 -277.277000 337.069000 1 1.000000 1 -3.000000
299 2 322.799000 -269.260000 340.502000 1 1.000000 1 -3.000000
300 2 328.092000 -260.993000 342.336000 1 1.000000 1 -3.000000
301 2 332.163000 -252.395000 344.844000 1 1.000000 1 -3.000000
302 2 332.468000 -242.514000 346.085000 1 1.000000 1 -3.000000
303 2 335.803000 -233.194000 345.565000 1 1.000000 1 -3.000000
304 2 337.955000 -224.196000 342.075000 1 1.000000 1 -3.000000
305 2 341.516000 -216.881000 336.326000 1 1.000000 1 -3.000000
306 2 343.477000 -209.550000 329.968000 1 1.000000 1 -3.000000
307 2 345.077000 -203.089000 322.720000 1 1.000000 1 -3.000000
308 2 345.267000 -196.837000 315.120000 1 1.000000 1 -3.000000
309 2 344.787000 -190.492000 307.478000 1 1.000000 1 -3.000000
310 2 343.240000 -184.455000 299.761000 1 1.000000 1 -3.000000
311 2 342.025000 -179.056000 291.512000 1 1.000000 1 -3.000000
312 2 339.106000 -173.653000 283.747000 1 1.000000 1 -3.000000
313 2 335.934000 -167.449000 276.729000 1 1.000000 1 -3.000000
314 2 334.637000 -161.611000 268.771000 1 1.000000 1 -3.000000
315 2 333.041000 -158.189000 259.599000 1 1.000000 1 -3.000000
316 2 332.395000 -155.731000 250.030000 1 1.000000 1 -3.000000
317 2 329.869000 -154.387000 240.538000 1 1.000000 1 -3.000000
318 2 324.650000 -153.070000 232.181000 1 1.000000 13 -3.000000
319 1 331.080000 -196.414000 214.741000 1 1.000000 13 0.000000
320 3 331.452000 -201.607000 249.354000 1 1.000000 13 0.000000
321 2 339.951000 -242.593000 218.639000 1 1.000000 13 -3.000000
322 2 337.476000 -245.559000 227.708000 1 1.000000 1 -3.000000
323 2 335.113000 -248.072000 237.007000 1 1.000000 1 -3.000000
324 2 332.147000 -247.076000 246.398000 1 1.000000 1 -3.000000
325 2 329.204000 -246.167000 255.790000 1 1.000000 1 -3.000000
326 2 325.374000 -243.723000 264.601000 1 1.000000 1 -3.000000
327 2 321.753000 -240.427000 273.236000 1 1.000000 1 -3.000000
328 2 318.362000 -235.978000 281.391000 1 1.000000 1 -3.000000
329 2 313.938000 -230.832000 288.627000 1 1.000000 1 -3.000000
330 2 307.958000 -226.730000 295.384000 1 1.000000 1 -3.000000
331 2 302.041000 -223.188000 302.539000 1 1.000000 1 -3.000000
332 2 294.630000 -219.540000 308.071000 1 1.000000 1 -3.000000
333 2 286.319000 -216.698000 312.663000 1 1.000000 1 -3.000000
334 2 277.739000 -212.034000 314.547000 1 1.000000 1 -3.000000
335 2 268.523000 -208.736000 313.269000 1 1.000000 1 -3.000000
336 2 259.418000 -205.283000 311.775000 1 1.000000 1 -3.000000
337 2 251.346000 -199.996000 309.476000 1 1.000000 1 -3.000000
338 2 242.755000 -195.959000 306.633000 1 1.000000 1 -3.000000
339 2 234.559000 -193.724000 301.582000 1 1.000000 1 -3.000000
340 2 226.484000 -191.531000 296.423000 1 1.000000 1 -3.000000
341 2 220.838000 -187.693000 289.090000 1 1.000000 1 -3.000000
342 2 216.989000 -185.214000 280.324000 1 1.000000 1 -3.000000
343 2 214.262000 -183.678000 270.915000 1 1.000000 1 -3.000000
344 2 210.568000 -181.077000 262.033000 1 1.000000 1 -3.000000
345 2 205.145000 -180.083000 253.810000 1 1.000000 14 -3.000000
346 1 241.197000 -199.584000 230.480000 1 1.000000 14 0.000000
347 3 242.841000 -214.618000 262.081000 1 1.000000 14 0.000000
348 2 277.557000 -229.424000 226.220000 1 1.000000 14 -3.000000
349 2 276.175000 -234.584000 234.579000 1 1.000000 1 -3.000000
350 2 275.252000 -240.748000 242.106000 1 1.000000 1 -3.000000
351 2 272.755000 -246.477000 249.778000 1 1.000000 1 -3.000000
352 2 269.196000 -251.566000 257.559000 1 1.000000 1 -3.000000
353 2 264.020000 -254.546000 265.361000 1 1.000000 1 -3.000000
354 2 257.184000 -256.928000 272.201000 1 1.000000 1 -3.000000
355 2 254.016000 -262.037000 280.073000 1 1.000000 1 -3.000000
356 2 251.796000 -267.394000 288.115000 1 1.000000 1 -3.000000
357 2 252.170000 -272.541000 296.579000 1 1.000000 1 -3.000000
358 2 250.818000 -277.763000 304.904000 1 1.000000 1 -3.000000
359 2 246.392000 -283.536000 311.581000 1 1.000000 1 -3.000000
360 2 241.378000 -289.493000 317.696000 1 1.000000 1 -3.000000
361 2 235.498000 -295.280000 323.099000 1 1.000000 1 -3.000000
362 2 230.640000 -302.507000 327.801000 1 1.000000 1 -3.000000
363 2 225.666000 -310.417000 330.975000 1 1.000000 1 -3.000000
364 2 219.023000 -317.699000 332.058000 1 1.000000 1 -3.000000
365 2 213.314000 -325.636000 333.398000 1 1.000000 1 -3.000000
366 2 206.658000 -332.906000 333.168000 1 1.000000 1 -3.000000
367 2 198.972000 -339.158000 332.656000 1 1.000000 1 -3.000000
368 2 192.060000 -345.604000 329.709000 1 1.000000 1 -3.000000
369 2 186.730000 -351.871000 324.276000 1 1.000000 1 -3.000000
370 2 182.796000 -358.282000 317.810000 1 1.000000 1 -3.000000
371 2 178.624000 -364.299000 311.130000 1 1.000000 1 -3.000000
372 2 174.581000 -371.671000 305.888000 1 1.000000 15 -3.000000
373 1 204.686000 -368.539000 269.676000 1 1.000000 15 0.000000
374 3 220.988000 -350.849000 295.147000 1 1.000000 15 0.000000
375 2 244.449000 -353.854000 248.971000 1 1.000000 15 -3.000000
376 2 249.623000 -351.958000 257.242000 1 1.000000 1 -3.000000
377 2 254.907000 -351.388000 265.688000 1 1.000000 1 -3.000000
378 2 259.673000 -352.246000 274.263000 1 1.000000 1 -3.000000
379 2 262.946000 -352.801000 283.568000 1 1.000000 1 -3.000000
380 2 265.730000 -351.522000 293.003000 1 1.000000 1 -3.000000
381 2 265.716000 -349.689000 302.641000 1 1.000000 1 -3.000000
382 2 263.260000 -347.100000 311.813000 1 1.000000 1 -3.000000
383 2 259.959000 -345.448000 321.013000 1 1.000000 1 -3.000000
384 2 256.854000 -342.288000 329.857000 1 1.000000 1 -3.000000
385 2 253.243000 -339.426000 338.594000 1 1.000000 1 -3.000000
386 2 252.006000 -338.140000 348.221000 1 1.000000 1 -3.000000
387 2 249.963000 -338.488000 357.951000 1 1.000000 1 -3.000000
388 2 248.296000 -338.495000 367.727000 1 1.000000 1 -3.000000
389 2 245.778000 -336.170000 376.998000 1 1.000000 1 -3.000000
390 2 243.535000 -333.775000 386.444000 1 1.000000 1 -3.000000
391 2 241.357000 -332.635000 396.092000 1 1.000000 1 -3.000000
392 2 237.105000 -332.527000 405.038000 1 1.000000 1 -3.000000
393 2 233.655000 -331.143000 414.228000 1 1.000000 1 -3.000000
394 2 229.126000 -330.198000 423.013000 1 1.000000 1 -3.000000
395 2 225.390000 -328.965000 432.129000 1 1.000000 1 -3.000000
396 2 222.200000 -324.413000 440.451000 1 1.000000 1 -3.000000
397 2 221.875000 -320.584000 449.669000 1 1.000000 1 -3.000000
398 2 222.100000 -317.562000 459.142000 1 1.000000 1 -3.000000
399 2 222.607000 -315.659000 468.838000 1 1.000000 16 -3.000000
400 1 269.350000 -312.505000 474.842000 1 1.000000 16 0.000000
401 3 265.497000 -309.320000 440.176000 1 1.000000 16 0.000000
402 2 313.139000 -303.391000 459.655000 1 1.000000 16 -3.000000
403 2 310.019000 -307.388000 451.202000 1 1.000000 1 -3.000000
404 2 307.774000 -312.556000 443.099000 1 1.000000 1 -3.000000
405 2 305.440000 -319.314000 436.137000 1 1.000000 1 -3.000000
406 2 303.942000 -326.181000 429.257000 1 1.000000 1 -3.000000
407 2 301.590000 -333.116000 422.591000 1 1.000000 1 -3.000000
408 2 299.695000 -339.890000 415.661000 1 1.000000 1 -3.000000
409 2 297.271000 -345.402000 407.793000 1 1.000000 1 -3.000000
410 2 295.533000 -350.864000 399.618000 1 1.000000 1 -3.000000
411 2 295.050000 -358.028000 392.804000 1 1.000000 1 -3.000000
412 2 294.290000 -363.751000 384.729000 1 1.000000 1 -3.000000
413 2 294.600000 -370.344000 377.448000 1 1.000000 1 -3.000000
414 2 295.162000 -378.271000 371.597000 1 1.000000 1 -3.000000
415 2 295.704000 -386.166000 365.709000 1 1.000000 1 -3.000000
416 2 297.661000 -392.751000 358.624000 1 1.000000 1 -3.000000
417 2 301.174000 -399.110000 351.881000 1 1.000000 1 -3.000000
418 2 306.481000 -404.394000 345.423000 1 1.000000 1 -3.000000
419 2 312.732000 -408.975000 339.224000 1 1.000000 1 -3.000000
420 2 318.085000 -414.575000 332.987000 1 1.000000 1 -3.000000
421 2 323.650000 -420.271000 327.120000 1 1.000000 1 -3.000000
422 2 330.377000 -424.222000 321.028000 1 1.000000 1 -3.000000
423 2 337.249000 -427.523000 314.610000 1 1.000000 1 -3.000000
424 2 343.180000 -432.653000 308.622000 1 1.000000 1 -3.000000
425 2 348.987000 -437.394000 302.117000 1 1.000000 1 -3.000000
426 2 353.253000 -443.590000 295.754000 1 1.000000 17 -3.000000
427 1 349.255000 -482.783000 321.650000 1 1.000000 17 0.000000
428 3 319.470000 -465.666000 328.273000 1 1.000000 17 0.000000
429 2 325.435000 -512.785000 349.278000 1 1.000000 17 -3.000000
430 2 317.094000 -507.806000 347.454000 1 1.000000 1 -3.000000
431 2 308.002000 -505.354000 344.504000 1 1.000000 1 -3.000000
432 2 299.587000 -500.768000 342.284000 1 1.000000 1 -3.000000
433 2 290.864000 -496.836000 339.654000 1 1.000000 1 -3.000000
434 2 283.423000 -491.873000 335.358000 1 1.000000 1 -3.000000
435 2 276.926000 -485.906000 330.962000 1 1.000000 1 -3.000000
436 2 271.913000 -480.069000 324.702000 1 1.000000 1 -3.000000
437 2 266.590000 -475.558000 317.658000 1 1.000000 1 -3.000000
438 2 263.413000 -473.717000 308.533000 1 1.000000 1 -3.000000
439 2 259.945000 -473.659000 299.290000 1 1.000000 1 -3.000000
440 2 255.480000 -475.243000 290.595000 1 1.000000 1 -3.000000
441 2 249.744000 -473.927000 282.663000 1 1.000000 1 -3.000000
442 2 244.934000 -472.583000 274.181000 1 1.000000 1 -3.000000
443 2 241.076000 -471.431000 265.100000 1 1.000000 1 -3.000000
444 2 236.951000 -472.431000 256.173000 1 1.000000 1 -3.000000
445 2 230.560000 -472.271000 248.689000 1 1.000000 1 -3.000000
446 2 223.664000 -473.396000 241.678000 1 1.000000 1 -3.000000
447 2 216.529000 -473.680000 234.840000 1 1.000000 1 -3.000000
448 2 207.858000 -472.785000 230.163000 1 1.000000 1 -3.000000
449 2 199.267000 -472.693000 225.098000 1 1.000000 1 -3.000000
450 2 192.154000 -470.647000 218.456000 1 1.000000 1 -3.000000
451 2 186.475000 -467.430000 210.985000 1 1.000000 1 -3.000000
452 2 181.911000 -466.534000 202.137000 1 1.000000 1 -3.000000
453 2 176.428000 -464.980000 194.077000 1 1.000000 18 -3.000000
454 1 212.186000 -458.063000 163.997000 1 1.000000 18 0.000000
455 3 226.926000 -476.673000 189.851000 1 1.000000 18 0.000000
456 2 255.986000 -465.767000 148.224000 1 1.000000 18 -3.000000
457 2 256.265000 -474.866000 152.022000 1 1.000000 1 -3.000000
458 2 258.084000 -483.618000 156.099000 1 1.000000 1 -3.000000
459 2 258.580000 -490.767000 162.916000 1 1.000000 1 -3.000000
460 2 259.392000 -498.715000 168.809000 1 1.000000 1 -3.000000
461 2 259.279000 -503.341000 177.541000 1 1.000000 1 -3.000000
462 2 259.817000 -507.739000 186.457000 1 1.000000 1 -3.000000
463 2 260.949000 -514.951000 193.177000 1 1.000000 1 -3.000000
464 2 261.516000 -522.325000 199.699000 1 1.000000 1 -3.000000
465 2 261.457000 -529.419000 206.583000 1 1.000000 1 -3.000000
466 2 262.366000 -537.363000 212.364000 1 1.000000 1 -3.000000
467 2 264.018000 -544.703000 218.824000 1 1.000000 1 -3.000000
468 2 264.271000 -550.388000 226.948000 1 1.000000 1 -3.000000
469 2 263.780000 -556.418000 234.763000 1 1.000000 1 -3.000000
470 2 264.968000 -562.285000 242.619000 1 1.000000 1 -3.000000
471 2 266.914000 -568.870000 249.742000 1 1.000000 1 -3.000000
472 2 269.388000 -574.574000 257.323000 1 1.000000 1 -3.000000
473 2 271.509000 -580.981000 264.533000 1 1.000000 1 -3.000000