LAMMPS data file

4067 atoms
4067 ellipsoids
4516 bonds
8882 angles
0 dihedrals

3 atom types
5 bond types
12 angle types
0 dihedral types

-4631.092947 4670.465898 xlo xhi
-4631.092947 4670.465898 ylo yhi
-4631.092947 4670.465898 zlo zhi

Masses

1 196016.000000
2 1950.000000
3 19500.000000

Atoms

1 2 316.869000 -481.675000 -78.132200 1 1.000000 1 -3.000000
2 2 319.759000 -480.350000 -87.521700 1 1.000000 1 -3.000000
3 2 324.209000 -475.933000 -95.226500 1 1.000000 1 -3.000000
4 2 328.553000 -473.317000 -103.767000 1 1.000000 1 -3.000000
5 2 334.876000 -472.330000 -111.250000 1 1.000000 1 -3.000000
6 2 340.262000 -470.217000 -119.243000 1 1.000000 1 -3.000000
7 2 345.937000 -467.922000 -127.143000 1 1.000000 1 -3.000000
8 2 351.917000 -466.456000 -134.896000 1 1.000000 1 -3.000000
9 2 358.710000 -465.237000 -141.986000 1 1.000000 1 -3.000000
10 2 363.820000 -461.873000 -149.762000 1 1.000000 1 -3.000000
11 2 368.997000 -459.494000 -157.961000 1 1.000000 1 -3.000000
12 2 371.797000 -457.335000 -167.156000 1 1.000000 1 -3.000000
13 2 374.294000 -457.147000 -176.753000 1 1.000000 1 -3.000000
14 2 378.288000 -456.331000 -185.712000 1 1.000000 1 -3.000000
15 2 382.712000 -455.675000 -194.509000 1 1.000000 1 -3.000000
16 2 387.257000 -455.304000 -203.331000 1 1.000000 1 -3.000000
17 2 391.436000 -453.148000 -212.075000 1 1.000000 1 -3.000000
18 2 396.628000 -450.917000 -220.270000 1 1.000000 1 -3.000000
19 2 399.474000 -446.970000 -228.912000 1 1.000000 1 -3.000000
20 2 403.590000 -440.666000 -235.357000 1 1.000000 1 -3.000000
21 2 407.251000 -434.960000 -242.583000 1 1.000000 2 -3.000000
22 1 441.384000 -466.143000 -251.903000 1 1.000000 2 0.000000
23 3 444.077000 -461.528000 -217.297000 1 1.000000 2 0.000000
24 2 479.124000 -492.022000 -240.389000 1 1.000000 2 -3.000000
25 2 475.619000 -494.834000 -231.571000 1 1.000000 1 -3.000000
26 2 472.694000 -497.382000 -222.391000 1 1.000000 1 -3.000000
27 2 469.613000 -498.072000 -213.021000 1 1.000000 1 -3.000000
28 2 465.851000 -498.325000 -203.785000 1 1.000000 1 -3.000000
29 2 462.526000 -496.113000 -194.861000 1 1.000000 1 -3.000000
30 2 457.929000 -492.670000 -186.773000 1 1.000000 1 -3.000000
31 2 453.339000 -487.404000 -179.828000 1 1.000000 1 -3.000000
32 2 448.231000 -481.506000 -173.689000 1 1.000000 1 -3.000000
33 2 441.722000 -475.969000 -168.523000 1 1.000000 1 -3.000000
34 2 436.640000 -470.002000 -162.410000 1 1.000000 1 -3.000000
35 2 431.330000 -463.321000 -157.407000 1 1.000000 1 -3.000000
36 2 425.687000 -455.430000 -155.437000 1 1.000000 1 -3.000000
37 2 421.961000 -446.438000 -153.695000 1 1.000000 1 -3.000000
38 2 415.757000 -438.764000 -153.631000 1 1.000000 1 -3.000000
39 2 410.517000 -430.330000 -152.861000 1 1.000000 1 -3.000000
40 2 405.438000 -422.062000 -155.034000 1 1.000000 1 -3.000000
41 2 400.993000 -413.595000 -157.369000 1 1.000000 1 -3.000000
42 2 397.474000 -405.608000 -161.950000 1 1.000000 1 -3.000000
43 2 392.599000 -398.268000 -166.346000 1 1.000000 1 -3.000000
44 2 387.762000 -390.384000 -169.975000 1 1.000000 1 -3.000000
45 2 384.214000 -382.621000 -175.068000 1 1.000000 1 -3.000000
46 2 381.793000 -375.395000 -181.289000 1 1.000000 1 -3.000000
47 2 379.396000 -368.706000 -188.142000 1 1.000000 1 -3.000000
48 2 376.983000 -361.367000 -194.353000 1 1.000000 3 -3.000000
49 1 396.796000 -379.763000 -232.994000 1 1.000000 3 0.000000
50 3 396.108000 -406.699000 -210.759000 1 1.000000 3 0.000000
51 2 418.076000 -414.180000 -257.246000 1 1.000000 3 -3.000000
52 2 418.320000 -416.845000 -247.724000 1 1.000000 1 -3.000000
53 2 419.520000 -419.628000 -238.267000 1 1.000000 1 -3.000000
54 2 421.748000 -420.609000 -228.652000 1 1.000000 1 -3.000000
55 2 424.384000 -421.405000 -219.164000 1 1.000000 1 -3.000000
56 2 427.639000 -420.576000 -209.875000 1 1.000000 1 -3.000000
57 2 431.851000 -420.458000 -200.901000 1 1.000000 1 -3.000000
58 2 436.805000 -423.051000 -192.740000 1 1.000000 1 -3.000000
59 2 442.078000 -426.242000 -185.036000 1 1.000000 1 -3.000000
60 2 446.195000 -430.786000 -177.243000 1 1.000000 1 -3.000000
61 2 451.345000 -434.064000 -169.413000 1 1.000000 1 -3.000000
62 2 457.000000 -435.532000 -161.385000 1 1.000000 1 -3.000000
63 2 462.093000 -436.660000 -152.991000 1 1.000000 1 -3.000000
64 2 466.288000 -439.390000 -144.318000 1 1.000000 1 -3.000000
65 2 471.658000 -440.448000 -136.018000 1 1.000000 1 -3.000000
66 2 476.123000 -439.025000 -127.335000 1 1.000000 1 -3.000000
67 2 481.545000 -437.431000 -119.256000 1 1.000000 1 -3.000000
68 2 487.107000 -433.295000 -112.148000 1 1.000000 1 -3.000000
69 2 494.788000 -430.435000 -106.647000 1 1.000000 1 -3.000000
70 2 502.465000 -430.732000 -100.458000 1 1.000000 1 -3.000000
71 2 509.930000 -434.964000 -95.446100 1 1.000000 1 -3.000000
72 2 516.743000 -438.063000 -88.990900 1 1.000000 1 -3.000000
73 2 523.008000 -441.930000 -82.266200 1 1.000000 1 -3.000000
74 2 527.176000 -446.542000 -74.584500 1 1.000000 1 -3.000000
75 2 531.802000 -451.038000 -67.174300 1 1.000000 4 -3.000000
76 1 493.278000 -463.351000 -42.840000 1 1.000000 4 0.000000
77 3 481.738000 -461.961000 -75.862900 1 1.000000 4 0.000000
78 2 447.957000 -476.048000 -39.089800 1 1.000000 4 -3.000000
79 2 447.621000 -480.565000 -47.846500 1 1.000000 1 -3.000000
80 2 447.215000 -484.972000 -56.722000 1 1.000000 1 -3.000000
81 2 447.745000 -487.843000 -66.149400 1 1.000000 1 -3.000000
82 2 447.178000 -489.768000 -75.889200 1 1.000000 1 -3.000000
83 2 448.788000 -489.813000 -85.747200 1 1.000000 1 -3.000000
84 2 453.031000 -490.057000 -94.594800 1 1.000000 1 -3.000000
85 2 458.046000 -488.665000 -103.041000 1 1.000000 1 -3.000000
86 2 461.969000 -485.291000 -111.509000 1 1.000000 1 -3.000000
87 2 468.135000 -483.554000 -118.955000 1 1.000000 1 -3.000000
88 2 474.219000 -484.299000 -126.841000 1 1.000000 1 -3.000000
89 2 479.854000 -486.053000 -134.841000 1 1.000000 1 -3.000000
90 2 486.960000 -487.300000 -141.505000 1 1.000000 1 -3.000000
91 2 495.113000 -487.082000 -147.200000 1 1.000000 1 -3.000000
92 2 503.531000 -487.774000 -152.105000 1 1.000000 1 -3.000000
93 2 512.797000 -489.502000 -155.478000 1 1.000000 1 -3.000000
94 2 522.411000 -490.534000 -157.562000 1 1.000000 1 -3.000000
95 2 531.880000 -491.835000 -160.316000 1 1.000000 1 -3.000000
96 2 541.274000 -492.643000 -163.343000 1 1.000000 1 -3.000000
97 2 550.018000 -495.364000 -167.137000 1 1.000000 1 -3.000000
98 2 559.113000 -495.642000 -170.890000 1 1.000000 1 -3.000000
99 2 568.160000 -494.985000 -174.675000 1 1.000000 1 -3.000000
100 2 577.147000 -495.171000 -178.861000 1 1.000000 1 -3.000000
101 2 583.979000 -493.771000 -185.922000 1 1.000000 1 -3.000000
102 2 591.628000 -492.235000 -191.921000 1 1.000000 5 -3.000000
103 1 570.279000 -469.188000 -227.209000 1 1.000000 5 0.000000
104 3 547.078000 -467.081000 -201.088000 1 1.000000 5 0.000000
105 2 533.658000 -446.976000 -246.951000 1 1.000000 5 -3.000000
106 2 530.669000 -442.673000 -238.586000 1 1.000000 1 -3.000000
107 2 526.760000 -438.983000 -230.342000 1 1.000000 1 -3.000000
108 2 523.614000 -435.794000 -221.527000 1 1.000000 1 -3.000000
109 2 520.157000 -433.678000 -212.461000 1 1.000000 1 -3.000000
110 2 517.291000 -433.705000 -203.027000 1 1.000000 1 -3.000000
111 2 515.851000 -432.836000 -193.250000 1 1.000000 1 -3.000000
112 2 517.338000 -428.646000 -184.406000 1 1.000000 1 -3.000000
113 2 519.821000 -423.826000 -176.108000 1 1.000000 1 -3.000000
114 2 520.896000 -418.986000 -167.586000 1 1.000000 1 -3.000000
115 2 521.110000 -413.052000 -159.722000 1 1.000000 1 -3.000000
116 2 522.178000 -408.197000 -151.185000 1 1.000000 1 -3.000000
117 2 524.206000 -402.645000 -143.170000 1 1.000000 1 -3.000000
118 2 527.135000 -397.155000 -135.441000 1 1.000000 1 -3.000000
119 2 530.092000 -391.659000 -127.737000 1 1.000000 1 -3.000000
120 2 532.633000 -387.107000 -119.225000 1 1.000000 1 -3.000000
121 2 535.662000 -381.318000 -111.740000 1 1.000000 1 -3.000000
122 2 537.886000 -377.173000 -103.049000 1 1.000000 1 -3.000000
123 2 539.390000 -372.736000 -94.336200 1 1.000000 1 -3.000000
124 2 539.896000 -368.274000 -85.466600 1 1.000000 1 -3.000000
125 2 542.292000 -362.472000 -77.688900 1 1.000000 1 -3.000000
126 2 546.438000 -355.986000 -71.440900 1 1.000000 1 -3.000000
127 2 549.450000 -347.516000 -67.095100 1 1.000000 1 -3.000000
128 2 551.879000 -339.303000 -62.156800 1 1.000000 1 -3.000000
129 2 554.737000 -330.988000 -57.575200 1 1.000000 6 -3.000000
130 1 565.396000 -305.054000 -95.502100 1 1.000000 6 0.000000
131 3 547.234000 -331.676000 -109.068000 1 1.000000 6 0.000000
132 2 564.091000 -295.000000 -141.571000 1 1.000000 6 -3.000000
133 2 555.990000 -299.010000 -145.655000 1 1.000000 1 -3.000000
134 2 549.965000 -305.888000 -149.533000 1 1.000000 1 -3.000000
135 2 545.299000 -314.296000 -151.822000 1 1.000000 1 -3.000000
136 2 538.630000 -321.579000 -151.622000 1 1.000000 1 -3.000000
137 2 532.223000 -329.107000 -151.036000 1 1.000000 1 -3.000000
138 2 523.862000 -333.378000 -147.845000 1 1.000000 1 -3.000000
139 2 516.588000 -334.050000 -141.040000 1 1.000000 1 -3.000000
140 2 510.363000 -335.170000 -133.445000 1 1.000000 1 -3.000000
141 2 503.383000 -337.352000 -126.693000 1 1.000000 1 -3.000000
142 2 495.393000 -339.422000 -121.210000 1 1.000000 1 -3.000000
143 2 488.292000 -343.250000 -115.484000 1 1.000000 1 -3.000000
144 2 481.121000 -347.663000 -110.282000 1 1.000000 1 -3.000000
145 2 474.450000 -350.046000 -103.381000 1 1.000000 1 -3.000000
146 2 468.320000 -351.687000 -95.706400 1 1.000000 1 -3.000000
147 2 462.610000 -355.721000 -88.638600 1 1.000000 1 -3.000000
148 2 457.839000 -357.490000 -80.215800 1 1.000000 1 -3.000000
149 2 452.541000 -359.257000 -72.122600 1 1.000000 1 -3.000000
150 2 448.344000 -361.450000 -63.403900 1 1.000000 1 -3.000000
151 2 443.018000 -362.013000 -55.024800 1 1.000000 1 -3.000000
152 2 439.059000 -359.031000 -46.481200 1 1.000000 1 -3.000000
153 2 436.436000 -358.705000 -36.911400 1 1.000000 1 -3.000000
154 2 433.786000 -361.228000 -27.688600 1 1.000000 1 -3.000000
155 2 429.161000 -365.461000 -20.100200 1 1.000000 1 -3.000000
156 2 424.658000 -368.670000 -11.869300 1 1.000000 7 -3.000000
157 1 441.889000 -412.538000 -14.460700 1 1.000000 7 0.000000
158 3 466.260000 -393.410000 -30.681300 1 1.000000 7 0.000000
159 2 474.737000 -444.419000 -26.013900 1 1.000000 7 -3.000000
160 2 482.499000 -438.229000 -25.696400 1 1.000000 1 -3.000000
161 2 490.386000 -432.514000 -23.573700 1 1.000000 1 -3.000000
162 2 496.574000 -424.806000 -23.298200 1 1.000000 1 -3.000000
163 2 502.999000 -417.342000 -23.092200 1 1.000000 1 -3.000000
164 2 508.083000 -409.033000 -22.302600 1 1.000000 1 -3.000000
165 2 515.042000 -401.931000 -21.806000 1 1.000000 1 -3.000000
166 2 521.366000 -394.304000 -21.675000 1 1.000000 1 -3.000000
167 2 528.758000 -387.618000 -21.474600 1 1.000000 1 -3.000000
168 2 535.350000 -380.701000 -18.594300 1 1.000000 1 -3.000000
169 2 541.871000 -373.557000 -16.408000 1 1.000000 1 -3.000000
170 2 549.413000 -367.671000 -13.664300 1 1.000000 1 -3.000000
171 2 555.466000 -361.096000 -9.366950 1 1.000000 1 -3.000000
172 2 561.856000 -354.107000 -6.615120 1 1.000000 1 -3.000000
173 2 568.419000 -347.142000 -4.246810 1 1.000000 1 -3.000000
174 2 574.929000 -340.033000 -2.122890 1 1.000000 1 -3.000000
175 2 580.650000 -332.360000 0.279127 1 1.000000 1 -3.000000
176 2 585.152000 -323.697000 1.959640 1 1.000000 1 -3.000000
177 2 589.912000 -315.665000 5.321740 1 1.000000 1 -3.000000
178 2 594.441000 -308.331000 10.193900 1 1.000000 1 -3.000000
179 2 596.869000 -299.195000 13.255900 1 1.000000 1 -3.000000
180 2 598.451000 -290.370000 17.601300 1 1.000000 1 -3.000000
181 2 599.031000 -282.139000 23.105900 1 1.000000 1 -3.000000
182 2 599.719000 -273.411000 27.751900 1 1.000000 1 -3.000000
183 2 600.046000 -264.572000 32.281800 1 1.000000 8 -3.000000
184 1 562.235000 -269.333000 60.152000 1 1.000000 8 0.000000
185 3 562.277000 -299.015000 41.471100 1 1.000000 8 0.000000
186 2 525.748000 -293.331000 77.943100 1 1.000000 8 -3.000000
187 2 527.167000 -302.035000 73.364200 1 1.000000 1 -3.000000
188 2 526.970000 -310.816000 68.565200 1 1.000000 1 -3.000000
189 2 529.461000 -318.976000 63.501400 1 1.000000 1 -3.000000
190 2 532.499000 -327.579000 59.582500 1 1.000000 1 -3.000000
191 2 537.423000 -334.746000 55.026700 1 1.000000 1 -3.000000
192 2 544.169000 -339.836000 49.897600 1 1.000000 1 -3.000000
193 2 552.146000 -343.517000 45.312500 1 1.000000 1 -3.000000
194 2 560.663000 -346.938000 41.579800 1 1.000000 1 -3.000000
195 2 569.306000 -349.743000 37.809200 1 1.000000 1 -3.000000
196 2 577.889000 -354.386000 36.668500 1 1.000000 1 -3.000000
197 2 586.307000 -359.049000 35.169500 1 1.000000 1 -3.000000
198 2 595.099000 -363.527000 35.942400 1 1.000000 1 -3.000000
199 2 604.731000 -365.637000 35.903100 1 1.000000 1 -3.000000
200 2 614.651000 -365.395000 36.274100 1 1.000000 1 -3.000000
201 2 624.503000 -364.554000 36.356400 1 1.000000 1 -3.000000
202 2 634.169000 -363.520000 38.438700 1 1.000000 1 -3.000000
203 2 643.841000 -364.190000 40.239400 1 1.000000 1 -3.000000
204 2 653.556000 -364.352000 42.080500 1 1.000000 1 -3.000000
205 2 663.188000 -365.473000 44.046700 1 1.000000 1 -3.000000
206 2 672.307000 -365.395000 47.700100 1 1.000000 1 -3.000000
207 2 681.318000 -364.159000 51.618300 1 1.000000 1 -3.000000
208 2 689.259000 -363.351000 57.412700 1 1.000000 1 -3.000000
209 2 697.243000 -360.381000 62.567500 1 1.000000 1 -3.000000
210 2 704.500000 -355.860000 67.580000 1 1.000000 9 -3.000000
211 1 681.672000 -326.417000 96.566500 1 1.000000 9 0.000000
212 3 655.657000 -343.000000 80.127000 1 1.000000 9 0.000000
213 2 643.048000 -304.917000 112.990000 1 1.000000 9 -3.000000
214 2 635.161000 -308.954000 108.609000 1 1.000000 1 -3.000000
215 2 627.663000 -313.340000 103.892000 1 1.000000 1 -3.000000
216 2 621.341000 -319.558000 99.459100 1 1.000000 1 -3.000000
217 2 617.047000 -327.811000 96.304800 1 1.000000 1 -3.000000
218 2 613.774000 -336.844000 93.679700 1 1.000000 1 -3.000000
219 2 612.253000 -346.178000 90.665100 1 1.000000 1 -3.000000
220 2 612.681000 -355.707000 88.504100 1 1.000000 1 -3.000000
221 2 614.705000 -365.132000 86.479200 1 1.000000 1 -3.000000
222 2 615.585000 -374.556000 83.622300 1 1.000000 1 -3.000000
223 2 618.494000 -383.483000 80.520400 1 1.000000 1 -3.000000
224 2 621.743000 -392.222000 77.098500 1 1.000000 1 -3.000000
225 2 623.291000 -401.314000 73.723400 1 1.000000 1 -3.000000
226 2 624.976000 -410.640000 71.049200 1 1.000000 1 -3.000000
227 2 628.256000 -419.827000 69.447900 1 1.000000 1 -3.000000
228 2 634.359000 -427.406000 68.016800 1 1.000000 1 -3.000000
229 2 639.020000 -435.858000 65.791000 1 1.000000 1 -3.000000
230 2 644.968000 -442.695000 61.713300 1 1.000000 1 -3.000000
231 2 652.480000 -447.732000 57.745200 1 1.000000 1 -3.000000
232 2 659.523000 -454.406000 55.697000 1 1.000000 1 -3.000000
233 2 666.941000 -460.786000 54.139200 1 1.000000 1 -3.000000
234 2 673.518000 -468.197000 54.058800 1 1.000000 1 -3.000000
235 2 680.222000 -475.213000 55.894000 1 1.000000 1 -3.000000
236 2 684.986000 -483.644000 58.169000 1 1.000000 1 -3.000000
237 2 690.920000 -491.519000 58.934300 1 1.000000 10 -3.000000
238 1 682.483000 -494.644000 105.257000 1 1.000000 10 0.000000
239 3 654.640000 -477.306000 93.010500 1 1.000000 10 0.000000
240 2 656.003000 -488.415000 143.828000 1 1.000000 10 -3.000000
241 2 647.307000 -485.108000 140.369000 1 1.000000 1 -3.000000
242 2 638.935000 -483.137000 135.320000 1 1.000000 1 -3.000000
243 2 630.593000 -480.295000 130.861000 1 1.000000 1 -3.000000
244 2 622.529000 -477.078000 126.087000 1 1.000000 1 -3.000000
245 2 616.788000 -475.755000 118.116000 1 1.000000 1 -3.000000
246 2 613.564000 -476.011000 108.748000 1 1.000000 1 -3.000000
247 2 612.681000 -475.661000 98.918100 1 1.000000 1 -3.000000
248 2 610.876000 -475.905000 89.227700 1 1.000000 1 -3.000000
249 2 608.579000 -475.109000 79.635000 1 1.000000 1 -3.000000
250 2 606.865000 -476.080000 70.005000 1 1.000000 1 -3.000000
251 2 604.934000 -476.655000 60.312600 1 1.000000 1 -3.000000
252 2 601.539000 -476.107000 51.059100 1 1.000000 1 -3.000000
253 2 597.890000 -474.687000 42.018600 1 1.000000 1 -3.000000
254 2 593.563000 -474.160000 33.082900 1 1.000000 1 -3.000000
255 2 588.557000 -474.768000 24.569500 1 1.000000 1 -3.000000
256 2 582.003000 -475.171000 17.175900 1 1.000000 1 -3.000000
257 2 575.587000 -474.692000 9.616070 1 1.000000 1 -3.000000
258 2 570.841000 -472.562000 1.114520 1 1.000000 1 -3.000000
259 2 568.463000 -469.599000 -7.975700 1 1.000000 1 -3.000000
260 2 567.148000 -464.896000 -16.572500 1 1.000000 1 -3.000000
261 2 565.434000 -461.065000 -25.540000 1 1.000000 1 -3.000000
262 2 563.597000 -458.373000 -34.909300 1 1.000000 1 -3.000000
263 2 563.063000 -456.489000 -44.583700 1 1.000000 1 -3.000000
264 2 563.993000 -454.465000 -54.267900 1 1.000000 11 -3.000000
265 1 547.576000 -497.289000 -65.511600 1 1.000000 11 0.000000
266 3 537.773000 -493.438000 -32.127000 1 1.000000 11 0.000000
267 2 524.386000 -537.326000 -56.286200 1 1.000000 11 -3.000000
268 2 518.686000 -535.974000 -48.388100 1 1.000000 1 -3.000000
269 2 513.678000 -533.189000 -40.273500 1 1.000000 1 -3.000000
270 2 509.844000 -528.373000 -32.540500 1 1.000000 1 -3.000000
271 2 504.880000 -524.738000 -24.743200 1 1.000000 1 -3.000000
272 2 503.205000 -518.367000 -17.347500 1 1.000000 1 -3.000000
273 2 502.575000 -511.225000 -10.476000 1 1.000000 1 -3.000000
274 2 504.170000 -504.757000 -3.056410 1 1.000000 1 -3.000000
275 2 505.554000 -498.263000 4.229260 1 1.000000 1 -3.000000
276 2 507.732000 -491.092000 10.833600 1 1.000000 1 -3.000000
277 2 509.645000 -484.260000 17.644600 1 1.000000 1 -3.000000
278 2 510.611000 -477.645000 24.856700 1 1.000000 1 -3.000000
279 2 514.054000 -471.611000 31.864400 1 1.000000 1 -3.000000
280 2 515.587000 -464.157000 38.117200 1 1.000000 1 -3.000000
281 2 517.480000 -456.545000 44.062600 1 1.000000 1 -3.000000
282 2 520.049000 -449.150000 50.087300 1 1.000000 1 -3.000000
283 2 523.977000 -441.325000 54.585200 1 1.000000 1 -3.000000
284 2 528.539000 -434.245000 59.874700 1 1.000000 1 -3.000000
285 2 532.990000 -428.744000 66.763700 1 1.000000 1 -3.000000
286 2 534.472000 -423.403000 75.017400 1 1.000000 1 -3.000000
287 2 536.389000 -417.438000 82.623200 1 1.000000 1 -3.000000
288 2 537.687000 -408.999000 87.542500 1 1.000000 1 -3.000000
289 2 539.343000 -399.803000 90.635000 1 1.000000 1 -3.000000
290 2 539.874000 -389.887000 91.256400 1 1.000000 1 -3.000000
291 2 542.963000 -380.823000 93.680100 1 1.000000 12 -3.000000
292 1 506.371000 -361.193000 71.311600 1 1.000000 12 0.000000
293 3 503.328000 -395.207000 63.571000 1 1.000000 12 0.000000
294 2 469.044000 -362.206000 42.462000 1 1.000000 12 -3.000000
295 2 466.353000 -371.726000 42.231400 1 1.000000 1 -3.000000
296 2 464.511000 -381.428000 42.004700 1 1.000000 1 -3.000000
297 2 463.251000 -391.158000 43.323500 1 1.000000 1 -3.000000
298 2 462.599000 -400.787000 45.712200 1 1.000000 1 -3.000000
299 2 463.620000 -410.360000 47.885900 1 1.000000 1 -3.000000
300 2 466.308000 -419.864000 48.368000 1 1.000000 1 -3.000000
301 2 467.947000 -429.463000 46.356800 1 1.000000 1 -3.000000
302 2 467.267000 -439.193000 44.703100 1 1.000000 1 -3.000000
303 2 465.865000 -448.683000 42.328000 1 1.000000 1 -3.000000
304 2 466.243000 -458.574000 42.226400 1 1.000000 1 -3.000000
305 2 467.514000 -467.919000 39.348600 1 1.000000 1 -3.000000
306 2 470.826000 -476.964000 37.185700 1 1.000000 1 -3.000000
307 2 473.877000 -485.874000 34.133700 1 1.000000 1 -3.000000
308 2 476.546000 -494.523000 29.987200 1 1.000000 1 -3.000000
309 2 478.522000 -503.535000 26.223100 1 1.000000 1 -3.000000
310 2 482.713000 -511.263000 21.704700 1 1.000000 1 -3.000000
311 2 488.276000 -517.231000 16.208400 1 1.000000 1 -3.000000
312 2 494.412000 -521.965000 10.106900 1 1.000000 1 -3.000000
313 2 499.070000 -527.486000 3.413200 1 1.000000 1 -3.000000
314 2 503.326000 -532.709000 -3.801350 1 1.000000 1 -3.000000
315 2 508.768000 -537.682000 -10.512200 1 1.000000 1 -3.000000
316 2 512.901000 -544.041000 -16.963800 1 1.000000 1 -3.000000
317 2 513.748000 -551.676000 -23.264400 1 1.000000 1 -3.000000
318 2 513.484000 -558.220000 -30.702600 1 1.000000 13 -3.000000
319 1 558.123000 -551.739000 -16.706100 1 1.000000 13 0.000000
320 3 540.305000 -528.754000 2.747650 1 1.000000 13 0.000000
321 2 591.290000 -532.959000 11.108300 1 1.000000 13 -3.000000
322 2 584.474000 -531.883000 18.135400 1 1.000000 1 -3.000000
323 2 578.231000 -530.210000 25.664000 1 1.000000 1 -3.000000
324 2 572.640000 -528.419000 33.692800 1 1.000000 1 -3.000000
325 2 565.749000 -528.588000 40.781500 1 1.000000 1 -3.000000
326 2 559.778000 -530.565000 48.500700 1 1.000000 1 -3.000000
327 2 554.576000 -531.764000 56.871900 1 1.000000 1 -3.000000
328 2 552.169000 -533.103000 66.346600 1 1.000000 1 -3.000000
329 2 550.417000 -531.756000 75.945400 1 1.000000 1 -3.000000
330 2 550.024000 -530.701000 85.887300 1 1.000000 1 -3.000000
331 2 549.689000 -531.562000 95.725500 1 1.000000 1 -3.000000
332 2 549.869000 -532.124000 105.610000 1 1.000000 1 -3.000000
333 2 552.570000 -532.291000 115.089000 1 1.000000 1 -3.000000
334 2 556.995000 -534.889000 123.489000 1 1.000000 1 -3.000000
335 2 562.459000 -536.840000 131.556000 1 1.000000 1 -3.000000
336 2 568.883000 -538.754000 138.961000 1 1.000000 1 -3.000000
337 2 575.539000 -541.139000 145.873000 1 1.000000 1 -3.000000
338 2 582.151000 -545.318000 151.861000 1 1.000000 1 -3.000000
339 2 589.860000 -547.716000 157.757000 1 1.000000 1 -3.000000
340 2 597.768000 -551.634000 162.317000 1 1.000000 1 -3.000000
341 2 606.726000 -552.186000 166.516000 1 1.000000 1 -3.000000
342 2 616.030000 -552.174000 169.955000 1 1.000000 1 -3.000000
343 2 624.762000 -550.596000 174.471000 1 1.000000 1 -3.000000
344 2 633.508000 -549.055000 178.798000 1 1.000000 1 -3.000000
345 2 642.329000 -546.172000 182.279000 1 1.000000 14 -3.000000
346 1 634.522000 -500.886000 192.846000 1 1.000000 14 0.000000
347 3 602.222000 -513.790000 189.018000 1 1.000000 14 0.000000
348 2 606.879000 -463.290000 199.670000 1 1.000000 14 -3.000000
349 2 598.458000 -468.449000 199.124000 1 1.000000 1 -3.000000
350 2 589.585000 -472.498000 200.561000 1 1.000000 1 -3.000000
351 2 581.215000 -477.799000 201.411000 1 1.000000 1 -3.000000
352 2 573.378000 -483.956000 202.030000 1 1.000000 1 -3.000000
353 2 566.426000 -491.019000 201.777000 1 1.000000 1 -3.000000
354 2 561.505000 -499.419000 203.499000 1 1.000000 1 -3.000000
355 2 558.333000 -508.281000 206.688000 1 1.000000 1 -3.000000
356 2 556.936000 -518.027000 208.104000 1 1.000000 1 -3.000000
357 2 556.158000 -527.831000 209.101000 1 1.000000 1 -3.000000
358 2 553.978000 -537.409000 210.046000 1 1.000000 1 -3.000000
359 2 551.174000 -546.894000 211.210000 1 1.000000 1 -3.000000
360 2 548.543000 -556.191000 213.503000 1 1.000000 1 -3.000000
361 2 544.659000 -564.620000 216.895000 1 1.000000 1 -3.000000
362 2 542.493000 -573.297000 221.146000 1 1.000000 1 -3.000000
363 2 541.470000 -582.901000 223.116000 1 1.000000 1 -3.000000
364 2 542.563000 -592.300000 225.987000 1 1.000000 1 -3.000000
365 2 543.269000 -600.722000 231.010000 1 1.000000 1 -3.000000
366 2 543.248000 -609.444000 235.615000 1 1.000000 1 -3.000000
367 2 542.821000 -617.935000 240.560000 1 1.000000 1 -3.000000
368 2 542.828000 -626.694000 245.230000 1 1.000000 1 -3.000000
369 2 542.609000 -636.204000 247.915000 1 1.000000 1 -3.000000
370 2 542.301000 -645.046000 252.385000 1 1.000000 1 -3.000000
371 2 541.445000 -653.661000 257.131000 1 1.000000 1 -3.000000
372 2 539.044000 -662.393000 261.148000 1 1.000000 15 -3.000000
373 1 563.669000 -652.382000 300.191000 1 1.000000 15 0.000000
374 3 559.245000 -620.975000 285.240000 1 1.000000 15 0.000000
375 2 582.454000 -622.664000 331.623000 1 1.000000 15 -3.000000
376 2 579.463000 -613.859000 328.173000 1 1.000000 1 -3.000000
377 2 576.095000 -605.108000 325.140000 1 1.000000 1 -3.000000
378 2 573.275000 -596.060000 322.182000 1 1.000000 1 -3.000000
379 2 570.720000 -588.597000 316.175000 1 1.000000 1 -3.000000
380 2 567.316000 -582.690000 309.108000 1 1.000000 1 -3.000000
381 2 563.567000 -576.647000 302.264000 1 1.000000 1 -3.000000
382 2 559.919000 -570.047000 295.869000 1 1.000000 1 -3.000000
383 2 556.703000 -566.666000 287.109000 1 1.000000 1 -3.000000
384 2 556.814000 -563.957000 277.513000 1 1.000000 1 -3.000000
385 2 558.431000 -560.747000 268.298000 1 1.000000 1 -3.000000
386 2 559.839000 -555.084000 260.330000 1 1.000000 1 -3.000000
387 2 558.069000 -546.679000 255.288000 1 1.000000 1 -3.000000
388 2 558.400000 -537.319000 252.025000 1 1.000000 1 -3.000000
389 2 559.335000 -528.075000 248.534000 1 1.000000 1 -3.000000
390 2 560.609000 -518.299000 247.548000 1 1.000000 1 -3.000000
391 2 560.677000 -508.369000 247.242000 1 1.000000 1 -3.000000
392 2 560.835000 -498.860000 244.687000 1 1.000000 1 -3.000000
393 2 559.544000 -489.289000 242.661000 1 1.000000 1 -3.000000
394 2 561.091000 -480.008000 239.511000 1 1.000000 1 -3.000000
395 2 561.632000 -471.063000 235.163000 1 1.000000 1 -3.000000
396 2 564.022000 -462.001000 231.828000 1 1.000000 1 -3.000000
397 2 569.522000 -454.196000 229.316000 1 1.000000 1 -3.000000
398 2 574.809000 -446.530000 226.275000 1 1.000000 1 -3.000000
399 2 578.225000 -437.798000 223.255000 1 1.000000 16 -3.000000
400 1 610.880000 -437.009000 257.351000 1 1.000000 16 0.000000
401 3 602.873000 -470.985000 254.537000 1 1.000000 16 0.000000
402 2 639.873000 -457.493000 288.494000 1 1.000000 16 -3.000000
403 2 639.899000 -466.789000 285.448000 1 1.000000 1 -3.000000
404 2 637.865000 -476.367000 283.489000 1 1.000000 1 -3.000000
405 2 635.795000 -485.693000 280.948000 1 1.000000 1 -3.000000
406 2 633.281000 -494.878000 277.982000 1 1.000000 1 -3.000000
407 2 626.870000 -501.419000 274.222000 1 1.000000 1 -3.000000
408 2 621.510000 -508.484000 269.898000 1 1.000000 1 -3.000000
409 2 614.913000 -513.437000 264.377000 1 1.000000 1 -3.000000
410 2 608.173000 -519.651000 260.659000 1 1.000000 1 -3.000000
411 2 601.787000 -523.905000 254.320000 1 1.000000 1 -3.000000
412 2 597.672000 -530.760000 248.437000 1 1.000000 1 -3.000000
413 2 591.549000 -536.124000 242.764000 1 1.000000 1 -3.000000
414 2 585.751000 -541.955000 237.091000 1 1.000000 1 -3.000000
415 2 581.503000 -550.097000 233.497000 1 1.000000 1 -3.000000
416 2 577.970000 -558.334000 229.127000 1 1.000000 1 -3.000000
417 2 576.060000 -566.001000 223.143000 1 1.000000 1 -3.000000
418 2 573.995000 -573.620000 217.266000 1 1.000000 1 -3.000000
419 2 571.697000 -581.721000 212.200000 1 1.000000 1 -3.000000
420 2 570.253000 -590.100000 207.109000 1 1.000000 1 -3.000000
421 2 569.918000 -597.980000 201.044000 1 1.000000 1 -3.000000
422 2 570.943000 -606.148000 195.449000 1 1.000000 1 -3.000000
423 2 571.948000 -615.322000 192.007000 1 1.000000 1 -3.000000
424 2 573.870000 -624.005000 187.595000 1 1.000000 1 -3.000000
425 2 578.110000 -631.571000 182.701000 1 1.000000 1 -3.000000
426 2 583.754000 -637.879000 177.585000 1 1.000000 17 -3.000000
427 1 612.641000 -650.340000 212.726000 1 1.000000 17 0.000000
428 3 592.453000 -625.817000 227.363000 1 1.000000 17 0.000000
429 2 629.230000 -647.598000 256.822000 1 1.000000 17 -3.000000
430 2 621.839000 -641.410000 258.912000 1 1.000000 1 -3.000000
431 2 615.396000 -635.076000 262.983000 1 1.000000 1 -3.000000
432 2 608.194000 -629.751000 267.148000 1 1.000000 1 -3.000000
433 2 599.379000 -627.080000 270.876000 1 1.000000 1 -3.000000
434 2 590.007000 -624.565000 272.813000 1 1.000000 1 -3.000000
435 2 580.326000 -622.608000 274.055000 1 1.000000 1 -3.000000
436 2 570.922000 -620.025000 275.957000 1 1.000000 1 -3.000000
437 2 561.365000 -620.182000 278.568000 1 1.000000 1 -3.000000
438 2 552.228000 -621.810000 281.781000 1 1.000000 1 -3.000000
439 2 542.771000 -624.446000 283.160000 1 1.000000 1 -3.000000
440 2 533.111000 -626.233000 284.269000 1 1.000000 1 -3.000000
441 2 523.421000 -628.406000 283.184000 1 1.000000 1 -3.000000
442 2 513.971000 -631.299000 281.957000 1 1.000000 1 -3.000000
443 2 505.079000 -635.133000 279.823000 1 1.000000 1 -3.000000
444 2 496.844000 -639.906000 277.021000 1 1.000000 1 -3.000000
445 2 490.384000 -646.711000 274.076000 1 1.000000 1 -3.000000
446 2 483.227000 -653.349000 272.492000 1 1.000000 1 -3.000000
447 2 476.310000 -660.491000 272.456000 1 1.000000 1 -3.000000
448 2 469.674000 -667.528000 274.744000 1 1.000000 1 -3.000000
449 2 464.570000 -675.619000 277.618000 1 1.000000 1 -3.000000
450 2 461.291000 -684.517000 280.668000 1 1.000000 1 -3.000000
451 2 460.129000 -692.917000 285.697000 1 1.000000 1 -3.000000
452 2 460.424000 -702.499000 288.215000 1 1.000000 1 -3.000000
453 2 460.977000 -712.070000 290.508000 1 1.000000 18 -3.000000
454 1 500.767000 -712.837000 315.853000 1 1.000000 18 0.000000
455 3 497.301000 -679.158000 307.128000 1 1.000000 18 0.000000
456 2 538.375000 -692.748000 336.045000 1 1.000000 18 -3.000000
457 2 536.817000 -683.245000 333.743000 1 1.000000 1 -3.000000
458 2 535.233000 -673.783000 331.200000 1 1.000000 1 -3.000000
459 2 532.646000 -664.343000 329.668000 1 1.000000 1 -3.000000
460 2 528.489000 -655.584000 327.515000 1 1.000000 1 -3.000000
461 2 522.741000 -647.625000 326.065000 1 1.000000 1 -3.000000
462 2 514.856000 -642.023000 324.123000 1 1.000000 1 -3.000000
463 2 506.078000 -637.420000 323.696000 1 1.000000 1 -3.000000
464 2 496.796000 -634.020000 323.050000 1 1.000000 1 -3.000000
465 2 487.575000 -630.837000 321.467000 1 1.000000 1 -3.000000
466 2 478.038000 -628.573000 319.738000 1 1.000000 1 -3.000000
467 2 468.497000 -626.408000 318.027000 1 1.000000 1 -3.000000
468 2 458.673000 -625.944000 316.828000 1 1.000000 1 -3.000000
469 2 448.837000 -625.127000 316.422000 1 1.000000 1 -3.000000
470 2 439.017000 -624.663000 314.707000 1 1.000000 1 -3.000000
471 2 429.428000 -622.279000 315.310000 1 1.000000 1 -3.000000
472 2 419.561000 -622.299000 315.939000 1 1.000000 1 -3.000000
473 2 409.988000 -621.477000 318.073000 1 1.000000 1 -3.000000