LAMMPS data file

4067 atoms
4067 ellipsoids
4516 bonds
8882 angles
0 dihedrals

3 atom types
5 bond types
12 angle types
0 dihedral types

-4631.092947 4670.465898 xlo xhi
-4631.092947 4670.465898 ylo yhi
-4631.092947 4670.465898 zlo zhi

Masses

1 196016.000000
2 1950.000000
3 19500.000000

Atoms

1 2 299.393000 -664.823000 -17.765700 1 1.000000 1 -3.000000
2 2 306.928000 -658.305000 -17.569000 1 1.000000 1 -3.000000
3 2 313.892000 -651.546000 -15.653300 1 1.000000 1 -3.000000
4 2 321.085000 -645.064000 -13.574500 1 1.000000 1 -3.000000
5 2 327.524000 -637.580000 -14.541300 1 1.000000 1 -3.000000
6 2 336.284000 -633.181000 -15.052800 1 1.000000 1 -3.000000
7 2 345.138000 -629.576000 -17.929600 1 1.000000 1 -3.000000
8 2 354.076000 -628.835000 -22.194000 1 1.000000 1 -3.000000
9 2 363.548000 -628.048000 -25.041400 1 1.000000 1 -3.000000
10 2 373.333000 -629.264000 -25.830800 1 1.000000 1 -3.000000
11 2 383.083000 -629.256000 -27.573400 1 1.000000 1 -3.000000
12 2 392.595000 -627.228000 -29.199100 1 1.000000 1 -3.000000
13 2 402.126000 -625.347000 -30.966700 1 1.000000 1 -3.000000
14 2 411.373000 -621.933000 -32.167600 1 1.000000 1 -3.000000
15 2 420.604000 -618.436000 -32.189200 1 1.000000 1 -3.000000
16 2 430.000000 -615.228000 -32.051100 1 1.000000 1 -3.000000
17 2 439.228000 -611.638000 -32.530100 1 1.000000 1 -3.000000
18 2 448.275000 -607.769000 -33.559600 1 1.000000 1 -3.000000
19 2 454.575000 -601.971000 -38.386300 1 1.000000 1 -3.000000
20 2 460.779000 -596.642000 -43.932200 1 1.000000 1 -3.000000
21 2 467.909000 -592.139000 -49.119500 1 1.000000 2 -3.000000
22 1 481.850000 -627.949000 -76.531300 1 1.000000 2 0.000000
23 3 453.888000 -640.999000 -60.109700 1 1.000000 2 0.000000
24 2 476.670000 -670.580000 -96.065600 1 1.000000 2 -3.000000
25 2 467.438000 -672.725000 -93.109700 1 1.000000 1 -3.000000
26 2 458.821000 -675.331000 -88.835000 1 1.000000 1 -3.000000
27 2 450.066000 -677.407000 -84.703800 1 1.000000 1 -3.000000
28 2 442.058000 -679.781000 -79.327300 1 1.000000 1 -3.000000
29 2 435.734000 -681.106000 -71.813000 1 1.000000 1 -3.000000
30 2 430.304000 -680.677000 -63.545900 1 1.000000 1 -3.000000
31 2 425.598000 -678.337000 -55.081200 1 1.000000 1 -3.000000
32 2 421.547000 -673.178000 -47.648400 1 1.000000 1 -3.000000
33 2 417.912000 -667.357000 -40.371000 1 1.000000 1 -3.000000
34 2 414.955000 -662.578000 -32.208100 1 1.000000 1 -3.000000
35 2 412.091000 -658.478000 -23.655400 1 1.000000 1 -3.000000
36 2 407.818000 -653.016000 -16.732000 1 1.000000 1 -3.000000
37 2 406.032000 -645.860000 -10.005300 1 1.000000 1 -3.000000
38 2 404.291000 -637.778000 -4.579970 1 1.000000 1 -3.000000
39 2 399.954000 -630.320000 0.280526 1 1.000000 1 -3.000000
40 2 398.150000 -623.401000 7.138980 1 1.000000 1 -3.000000
41 2 397.264000 -616.708000 14.425000 1 1.000000 1 -3.000000
42 2 394.385000 -612.635000 22.978200 1 1.000000 1 -3.000000
43 2 390.971000 -607.498000 30.752400 1 1.000000 1 -3.000000
44 2 388.179000 -601.389000 38.107700 1 1.000000 1 -3.000000
45 2 385.063000 -592.878000 41.800100 1 1.000000 1 -3.000000
46 2 380.737000 -584.320000 44.021900 1 1.000000 1 -3.000000
47 2 374.614000 -577.007000 46.530000 1 1.000000 1 -3.000000
48 2 369.478000 -569.317000 50.134600 1 1.000000 3 -3.000000
49 1 333.238000 -574.704000 20.425100 1 1.000000 3 0.000000
50 3 348.774000 -606.050000 19.922300 1 1.000000 3 0.000000
51 2 306.580000 -599.443000 -9.673230 1 1.000000 3 -3.000000
52 2 306.499000 -608.837000 -6.652770 1 1.000000 1 -3.000000
53 2 307.765000 -616.522000 -0.669990 1 1.000000 1 -3.000000
54 2 309.539000 -623.988000 5.698110 1 1.000000 1 -3.000000
55 2 313.216000 -631.212000 11.379600 1 1.000000 1 -3.000000
56 2 318.191000 -637.707000 16.966600 1 1.000000 1 -3.000000
57 2 324.356000 -644.233000 20.952900 1 1.000000 1 -3.000000
58 2 331.545000 -650.439000 23.737200 1 1.000000 1 -3.000000
59 2 339.280000 -656.508000 24.922000 1 1.000000 1 -3.000000
60 2 347.180000 -662.504000 25.432900 1 1.000000 1 -3.000000
61 2 355.239000 -668.175000 25.808400 1 1.000000 1 -3.000000
62 2 363.593000 -673.356000 25.881600 1 1.000000 1 -3.000000
63 2 372.298000 -678.151000 26.030800 1 1.000000 1 -3.000000
64 2 380.330000 -683.879000 25.669700 1 1.000000 1 -3.000000
65 2 388.527000 -689.415000 25.040900 1 1.000000 1 -3.000000
66 2 396.440000 -695.072000 23.193100 1 1.000000 1 -3.000000
67 2 404.783000 -700.326000 22.962200 1 1.000000 1 -3.000000
68 2 412.133000 -706.672000 21.348500 1 1.000000 1 -3.000000
69 2 420.502000 -712.048000 21.363500 1 1.000000 1 -3.000000
70 2 428.255000 -718.163000 21.202200 1 1.000000 1 -3.000000
71 2 436.226000 -723.946000 21.381000 1 1.000000 1 -3.000000
72 2 444.495000 -729.091000 20.303000 1 1.000000 1 -3.000000
73 2 452.771000 -733.308000 16.721100 1 1.000000 1 -3.000000
74 2 460.066000 -737.885000 11.926000 1 1.000000 1 -3.000000
75 2 467.555000 -742.549000 7.503250 1 1.000000 4 -3.000000
76 1 477.020000 -711.499000 -26.738400 1 1.000000 4 0.000000
77 3 455.993000 -693.491000 -5.288000 1 1.000000 4 0.000000
78 2 474.732000 -668.952000 -46.976200 1 1.000000 4 -3.000000
79 2 469.926000 -664.679000 -39.424300 1 1.000000 1 -3.000000
80 2 464.449000 -659.688000 -32.808800 1 1.000000 1 -3.000000
81 2 460.242000 -655.181000 -25.014300 1 1.000000 1 -3.000000
82 2 455.947000 -651.752000 -16.756400 1 1.000000 1 -3.000000
83 2 451.460000 -649.064000 -8.420700 1 1.000000 1 -3.000000
84 2 447.494000 -648.870000 0.596039 1 1.000000 1 -3.000000
85 2 442.410000 -648.649000 9.045890 1 1.000000 1 -3.000000
86 2 435.889000 -648.751000 16.488000 1 1.000000 1 -3.000000
87 2 429.621000 -648.024000 24.180900 1 1.000000 1 -3.000000
88 2 423.718000 -648.863000 32.088500 1 1.000000 1 -3.000000
89 2 418.437000 -648.807000 40.379600 1 1.000000 1 -3.000000
90 2 413.769000 -648.590000 49.101800 1 1.000000 1 -3.000000
91 2 410.113000 -645.947000 57.882400 1 1.000000 1 -3.000000
92 2 406.352000 -643.519000 66.715400 1 1.000000 1 -3.000000
93 2 403.747000 -639.670000 75.465400 1 1.000000 1 -3.000000
94 2 399.562000 -635.458000 83.429000 1 1.000000 1 -3.000000
95 2 394.095000 -631.543000 90.549900 1 1.000000 1 -3.000000
96 2 389.316000 -627.632000 98.335800 1 1.000000 1 -3.000000
97 2 385.343000 -622.442000 105.889000 1 1.000000 1 -3.000000
98 2 381.119000 -616.206000 112.294000 1 1.000000 1 -3.000000
99 2 377.340000 -609.671000 118.653000 1 1.000000 1 -3.000000
100 2 373.368000 -605.229000 126.608000 1 1.000000 1 -3.000000
101 2 372.052000 -599.814000 134.790000 1 1.000000 1 -3.000000
102 2 370.141000 -593.788000 142.518000 1 1.000000 5 -3.000000
103 1 407.396000 -605.248000 169.090000 1 1.000000 5 0.000000
104 3 416.370000 -616.798000 137.274000 1 1.000000 5 0.000000
105 2 449.345000 -625.450000 176.551000 1 1.000000 5 -3.000000
106 2 452.568000 -625.729000 167.146000 1 1.000000 1 -3.000000
107 2 456.444000 -627.641000 158.132000 1 1.000000 1 -3.000000
108 2 458.303000 -630.711000 148.789000 1 1.000000 1 -3.000000
109 2 458.647000 -632.824000 139.111000 1 1.000000 1 -3.000000
110 2 456.744000 -630.931000 129.575000 1 1.000000 1 -3.000000
111 2 454.267000 -630.411000 119.953000 1 1.000000 1 -3.000000
112 2 450.532000 -628.450000 110.995000 1 1.000000 1 -3.000000
113 2 446.587000 -626.507000 102.222000 1 1.000000 1 -3.000000
114 2 443.665000 -624.132000 93.085400 1 1.000000 1 -3.000000
115 2 441.827000 -619.952000 84.351200 1 1.000000 1 -3.000000
116 2 442.354000 -614.960000 75.816200 1 1.000000 1 -3.000000
117 2 444.337000 -609.692000 67.719200 1 1.000000 1 -3.000000
118 2 445.375000 -604.132000 59.671900 1 1.000000 1 -3.000000
119 2 447.408000 -598.733000 51.652000 1 1.000000 1 -3.000000
120 2 449.176000 -594.509000 42.936400 1 1.000000 1 -3.000000
121 2 451.931000 -592.528000 33.610800 1 1.000000 1 -3.000000
122 2 453.988000 -589.543000 24.434300 1 1.000000 1 -3.000000
123 2 455.069000 -584.508000 15.908700 1 1.000000 1 -3.000000
124 2 455.005000 -581.214000 6.564470 1 1.000000 1 -3.000000
125 2 453.603000 -576.780000 -2.257560 1 1.000000 1 -3.000000
126 2 452.464000 -569.762000 -9.078790 1 1.000000 1 -3.000000
127 2 451.524000 -561.546000 -14.474300 1 1.000000 1 -3.000000
128 2 449.582000 -553.201000 -19.403300 1 1.000000 1 -3.000000
129 2 448.401000 -545.575000 -25.758600 1 1.000000 6 -3.000000
130 1 424.315000 -519.017000 4.945020 1 1.000000 6 0.000000
131 3 439.347000 -543.145000 25.300600 1 1.000000 6 0.000000
132 2 409.841000 -507.036000 48.180900 1 1.000000 6 -3.000000
133 2 416.409000 -512.480000 53.220400 1 1.000000 1 -3.000000
134 2 422.274000 -518.453000 58.413200 1 1.000000 1 -3.000000
135 2 429.105000 -523.178000 63.971600 1 1.000000 1 -3.000000
136 2 436.401000 -528.920000 67.441800 1 1.000000 1 -3.000000
137 2 442.789000 -536.169000 69.782200 1 1.000000 1 -3.000000
138 2 449.575000 -543.326000 69.658900 1 1.000000 1 -3.000000
139 2 456.026000 -550.888000 70.236900 1 1.000000 1 -3.000000
140 2 462.890000 -557.914000 68.950400 1 1.000000 1 -3.000000
141 2 469.192000 -565.488000 68.392400 1 1.000000 1 -3.000000
142 2 474.958000 -573.386000 66.830200 1 1.000000 1 -3.000000
143 2 478.373000 -582.523000 67.913700 1 1.000000 1 -3.000000
144 2 478.959000 -592.384000 68.809100 1 1.000000 1 -3.000000
145 2 482.858000 -600.900000 71.876400 1 1.000000 1 -3.000000
146 2 484.935000 -609.947000 75.385200 1 1.000000 1 -3.000000
147 2 488.540000 -617.295000 80.966600 1 1.000000 1 -3.000000
148 2 490.958000 -625.095000 86.592200 1 1.000000 1 -3.000000
149 2 493.910000 -632.655000 92.347900 1 1.000000 1 -3.000000
150 2 496.515000 -638.533000 99.902400 1 1.000000 1 -3.000000
151 2 500.226000 -645.646000 105.726000 1 1.000000 1 -3.000000
152 2 504.598000 -652.485000 111.378000 1 1.000000 1 -3.000000
153 2 507.409000 -659.962000 117.395000 1 1.000000 1 -3.000000
154 2 508.677000 -668.054000 122.963000 1 1.000000 1 -3.000000
155 2 508.767000 -676.300000 128.409000 1 1.000000 1 -3.000000
156 2 510.200000 -684.875000 133.155000 1 1.000000 7 -3.000000
157 1 479.466000 -711.281000 108.925000 1 1.000000 7 0.000000
158 3 481.242000 -681.753000 90.205600 1 1.000000 7 0.000000
159 2 450.818000 -720.044000 72.548700 1 1.000000 7 -3.000000
160 2 454.814000 -713.384000 66.339700 1 1.000000 1 -3.000000
161 2 459.263000 -707.199000 60.010300 1 1.000000 1 -3.000000
162 2 462.770000 -700.667000 53.433000 1 1.000000 1 -3.000000
163 2 466.463000 -693.578000 47.612100 1 1.000000 1 -3.000000
164 2 470.904000 -684.871000 46.374900 1 1.000000 1 -3.000000
165 2 473.995000 -675.383000 45.952200 1 1.000000 1 -3.000000
166 2 478.761000 -666.745000 45.273900 1 1.000000 1 -3.000000
167 2 482.225000 -657.573000 46.965600 1 1.000000 1 -3.000000
168 2 485.412000 -648.220000 46.518500 1 1.000000 1 -3.000000
169 2 489.278000 -639.070000 45.567400 1 1.000000 1 -3.000000
170 2 492.202000 -629.719000 46.633600 1 1.000000 1 -3.000000
171 2 494.806000 -620.187000 47.631900 1 1.000000 1 -3.000000
172 2 498.370000 -610.993000 48.273500 1 1.000000 1 -3.000000
173 2 501.223000 -601.587000 47.333100 1 1.000000 1 -3.000000
174 2 504.986000 -592.533000 46.720900 1 1.000000 1 -3.000000
175 2 508.650000 -583.376000 47.382600 1 1.000000 1 -3.000000
176 2 510.248000 -573.594000 46.814000 1 1.000000 1 -3.000000
177 2 512.285000 -563.994000 46.132700 1 1.000000 1 -3.000000
178 2 515.033000 -554.516000 44.982400 1 1.000000 1 -3.000000
179 2 517.691000 -545.714000 41.382400 1 1.000000 1 -3.000000
180 2 521.061000 -537.413000 37.255600 1 1.000000 1 -3.000000
181 2 522.635000 -529.657000 31.307400 1 1.000000 1 -3.000000
182 2 524.738000 -523.903000 23.443100 1 1.000000 1 -3.000000
183 2 527.783000 -516.893000 17.119700 1 1.000000 8 -3.000000
184 1 503.656000 -536.063000 -18.579000 1 1.000000 8 0.000000
185 3 488.443000 -549.794000 9.670140 1 1.000000 8 0.000000
186 2 469.577000 -563.065000 -36.922100 1 1.000000 8 -3.000000
187 2 471.322000 -570.512000 -30.681300 1 1.000000 1 -3.000000
188 2 476.387000 -576.796000 -24.999500 1 1.000000 1 -3.000000
189 2 481.437000 -582.612000 -18.855500 1 1.000000 1 -3.000000
190 2 487.643000 -588.829000 -14.102900 1 1.000000 1 -3.000000
191 2 492.756000 -596.173000 -9.861310 1 1.000000 1 -3.000000
192 2 497.782000 -602.981000 -4.705630 1 1.000000 1 -3.000000
193 2 504.099000 -609.304000 -0.479099 1 1.000000 1 -3.000000
194 2 510.748000 -614.757000 4.500500 1 1.000000 1 -3.000000
195 2 515.859000 -621.648000 9.384880 1 1.000000 1 -3.000000
196 2 521.972000 -629.170000 11.300600 1 1.000000 1 -3.000000
197 2 528.447000 -635.732000 15.086500 1 1.000000 1 -3.000000
198 2 533.924000 -642.852000 19.033500 1 1.000000 1 -3.000000
199 2 539.383000 -650.839000 21.116500 1 1.000000 1 -3.000000
200 2 543.173000 -659.778000 22.626200 1 1.000000 1 -3.000000
201 2 547.607000 -668.582000 21.533200 1 1.000000 1 -3.000000
202 2 553.015000 -676.495000 19.117800 1 1.000000 1 -3.000000
203 2 557.399000 -685.037000 16.937700 1 1.000000 1 -3.000000
204 2 560.629000 -694.037000 14.392200 1 1.000000 1 -3.000000
205 2 563.783000 -702.156000 9.663750 1 1.000000 1 -3.000000
206 2 565.666000 -710.812000 5.357340 1 1.000000 1 -3.000000
207 2 567.330000 -719.957000 2.076610 1 1.000000 1 -3.000000
208 2 568.657000 -729.202000 -1.289840 1 1.000000 1 -3.000000
209 2 569.835000 -738.577000 -4.115950 1 1.000000 1 -3.000000
210 2 571.167000 -747.021000 -9.094890 1 1.000000 9 -3.000000
211 1 596.612000 -728.137000 -43.987500 1 1.000000 9 0.000000
212 3 602.824000 -706.697000 -17.091200 1 1.000000 9 0.000000
213 2 625.987000 -696.065000 -62.294300 1 1.000000 9 -3.000000
214 2 632.179000 -696.138000 -54.654700 1 1.000000 1 -3.000000
215 2 637.093000 -696.615000 -46.103900 1 1.000000 1 -3.000000
216 2 641.303000 -694.167000 -37.425400 1 1.000000 1 -3.000000
217 2 643.370000 -692.021000 -28.010300 1 1.000000 1 -3.000000
218 2 644.075000 -692.274000 -18.159300 1 1.000000 1 -3.000000
219 2 643.071000 -692.917000 -8.348080 1 1.000000 1 -3.000000
220 2 641.521000 -692.751000 1.506010 1 1.000000 1 -3.000000
221 2 640.268000 -693.631000 11.248900 1 1.000000 1 -3.000000
222 2 637.622000 -692.228000 20.669400 1 1.000000 1 -3.000000
223 2 633.654000 -691.152000 29.660900 1 1.000000 1 -3.000000
224 2 628.820000 -690.936000 38.202200 1 1.000000 1 -3.000000
225 2 622.443000 -690.606000 45.668300 1 1.000000 1 -3.000000
226 2 614.520000 -689.607000 51.497900 1 1.000000 1 -3.000000
227 2 606.292000 -686.732000 56.210000 1 1.000000 1 -3.000000
228 2 598.838000 -685.325000 62.506600 1 1.000000 1 -3.000000
229 2 590.257000 -684.684000 67.429600 1 1.000000 1 -3.000000
230 2 581.730000 -683.061000 72.283900 1 1.000000 1 -3.000000
231 2 573.318000 -683.812000 77.302700 1 1.000000 1 -3.000000
232 2 565.143000 -686.348000 82.401000 1 1.000000 1 -3.000000
233 2 556.637000 -690.075000 85.802500 1 1.000000 1 -3.000000
234 2 548.662000 -695.458000 88.232200 1 1.000000 1 -3.000000
235 2 541.516000 -702.264000 88.918700 1 1.000000 1 -3.000000
236 2 535.152000 -709.891000 88.407800 1 1.000000 1 -3.000000
237 2 528.218000 -716.836000 89.940400 1 1.000000 10 -3.000000
238 1 549.241000 -751.452000 65.762100 1 1.000000 10 0.000000
239 3 574.412000 -727.408000 68.774900 1 1.000000 10 0.000000
240 2 585.798000 -771.398000 43.610100 1 1.000000 10 -3.000000
241 2 593.659000 -766.717000 47.386700 1 1.000000 1 -3.000000
242 2 601.717000 -761.306000 49.366600 1 1.000000 1 -3.000000
243 2 608.673000 -755.783000 53.824100 1 1.000000 1 -3.000000
244 2 613.665000 -748.796000 58.816500 1 1.000000 1 -3.000000
245 2 616.953000 -740.980000 63.873400 1 1.000000 1 -3.000000
246 2 618.908000 -734.091000 70.700500 1 1.000000 1 -3.000000
247 2 619.575000 -726.517000 76.957400 1 1.000000 1 -3.000000
248 2 621.124000 -718.791000 82.857100 1 1.000000 1 -3.000000
249 2 623.476000 -711.458000 89.043100 1 1.000000 1 -3.000000
250 2 626.283000 -705.653000 96.559300 1 1.000000 1 -3.000000
251 2 629.722000 -700.076000 104.003000 1 1.000000 1 -3.000000
252 2 634.099000 -695.058000 111.384000 1 1.000000 1 -3.000000
253 2 637.220000 -689.515000 118.963000 1 1.000000 1 -3.000000
254 2 638.850000 -682.897000 126.274000 1 1.000000 1 -3.000000
255 2 640.336000 -676.153000 133.365000 1 1.000000 1 -3.000000
256 2 643.287000 -669.691000 140.259000 1 1.000000 1 -3.000000
257 2 645.339000 -662.445000 146.577000 1 1.000000 1 -3.000000
258 2 646.190000 -655.328000 153.422000 1 1.000000 1 -3.000000
259 2 646.493000 -647.656000 159.687000 1 1.000000 1 -3.000000
260 2 646.631000 -639.230000 164.821000 1 1.000000 1 -3.000000
261 2 644.004000 -632.551000 171.554000 1 1.000000 1 -3.000000
262 2 642.346000 -626.287000 179.024000 1 1.000000 1 -3.000000
263 2 640.259000 -618.737000 185.006000 1 1.000000 1 -3.000000
264 2 637.687000 -610.163000 189.337000 1 1.000000 11 -3.000000
265 1 619.802000 -639.616000 221.570000 1 1.000000 11 0.000000
266 3 641.540000 -660.006000 203.313000 1 1.000000 11 0.000000
267 2 616.324000 -681.316000 243.389000 1 1.000000 11 -3.000000
268 2 625.357000 -684.932000 241.520000 1 1.000000 1 -3.000000
269 2 634.158000 -688.337000 238.524000 1 1.000000 1 -3.000000
270 2 643.172000 -691.509000 236.065000 1 1.000000 1 -3.000000
271 2 651.939000 -693.446000 231.832000 1 1.000000 1 -3.000000
272 2 660.657000 -693.446000 227.271000 1 1.000000 1 -3.000000
273 2 669.220000 -692.975000 222.359000 1 1.000000 1 -3.000000
274 2 678.292000 -690.794000 218.784000 1 1.000000 1 -3.000000
275 2 688.102000 -690.188000 217.880000 1 1.000000 1 -3.000000
276 2 697.824000 -689.499000 219.732000 1 1.000000 1 -3.000000
277 2 707.412000 -690.073000 222.100000 1 1.000000 1 -3.000000
278 2 717.145000 -690.992000 223.651000 1 1.000000 1 -3.000000
279 2 726.706000 -692.603000 225.894000 1 1.000000 1 -3.000000
280 2 736.421000 -692.943000 227.652000 1 1.000000 1 -3.000000
281 2 745.880000 -693.751000 230.326000 1 1.000000 1 -3.000000
282 2 754.287000 -693.223000 235.500000 1 1.000000 1 -3.000000
283 2 763.480000 -692.717000 239.166000 1 1.000000 1 -3.000000
284 2 771.691000 -690.918000 244.327000 1 1.000000 1 -3.000000
285 2 778.019000 -688.403000 251.435000 1 1.000000 1 -3.000000
286 2 781.779000 -686.110000 260.393000 1 1.000000 1 -3.000000
287 2 783.985000 -682.666000 269.381000 1 1.000000 1 -3.000000
288 2 786.321000 -682.595000 279.091000 1 1.000000 1 -3.000000
289 2 791.078000 -683.925000 287.694000 1 1.000000 1 -3.000000
290 2 794.886000 -685.590000 296.650000 1 1.000000 1 -3.000000
291 2 797.276000 -687.650000 306.014000 1 1.000000 12 -3.000000
292 1 772.314000 -726.971000 313.557000 1 1.000000 12 0.000000
293 3 772.081000 -723.832000 278.677000 1 1.000000 12 0.000000
294 2 748.594000 -765.270000 299.487000 1 1.000000 12 -3.000000
295 2 752.335000 -765.156000 290.306000 1 1.000000 1 -3.000000
296 2 756.303000 -766.089000 281.323000 1 1.000000 1 -3.000000
297 2 761.281000 -766.017000 272.774000 1 1.000000 1 -3.000000
298 2 766.259000 -764.605000 264.301000 1 1.000000 1 -3.000000
299 2 770.708000 -761.109000 256.202000 1 1.000000 1 -3.000000
300 2 776.151000 -756.980000 248.983000 1 1.000000 1 -3.000000
301 2 782.069000 -755.146000 241.270000 1 1.000000 1 -3.000000
302 2 788.641000 -752.093000 234.505000 1 1.000000 1 -3.000000
303 2 796.003000 -749.178000 228.577000 1 1.000000 1 -3.000000
304 2 800.727000 -749.377000 219.761000 1 1.000000 1 -3.000000
305 2 805.282000 -747.576000 211.167000 1 1.000000 1 -3.000000
306 2 812.481000 -747.808000 204.308000 1 1.000000 1 -3.000000
307 2 820.459000 -745.992000 198.630000 1 1.000000 1 -3.000000
308 2 828.719000 -745.447000 193.179000 1 1.000000 1 -3.000000
309 2 837.645000 -746.002000 188.899000 1 1.000000 1 -3.000000
310 2 846.992000 -746.668000 185.867000 1 1.000000 1 -3.000000
311 2 856.625000 -746.409000 183.766000 1 1.000000 1 -3.000000
312 2 866.301000 -744.624000 183.180000 1 1.000000 1 -3.000000
313 2 875.828000 -743.398000 185.598000 1 1.000000 1 -3.000000
314 2 885.296000 -741.770000 187.808000 1 1.000000 1 -3.000000
315 2 894.466000 -743.471000 191.252000 1 1.000000 1 -3.000000
316 2 903.789000 -746.044000 193.430000 1 1.000000 1 -3.000000
317 2 912.356000 -748.721000 197.541000 1 1.000000 1 -3.000000
318 2 919.569000 -750.031000 204.125000 1 1.000000 13 -3.000000
319 1 907.610000 -792.883000 219.904000 1 1.000000 13 0.000000
320 3 883.249000 -786.131000 195.722000 1 1.000000 13 0.000000
321 2 878.760000 -830.129000 223.024000 1 1.000000 13 -3.000000
322 2 872.109000 -828.357000 215.870000 1 1.000000 1 -3.000000
323 2 866.334000 -824.969000 208.572000 1 1.000000 1 -3.000000
324 2 860.741000 -823.795000 200.533000 1 1.000000 1 -3.000000
325 2 857.481000 -822.108000 191.219000 1 1.000000 1 -3.000000
326 2 855.999000 -817.265000 182.781000 1 1.000000 1 -3.000000
327 2 853.755000 -810.472000 175.851000 1 1.000000 1 -3.000000
328 2 849.208000 -803.571000 170.468000 1 1.000000 1 -3.000000
329 2 845.249000 -797.024000 164.166000 1 1.000000 1 -3.000000
330 2 841.965000 -792.579000 155.923000 1 1.000000 1 -3.000000
331 2 839.245000 -788.527000 147.246000 1 1.000000 1 -3.000000
332 2 836.250000 -782.677000 139.741000 1 1.000000 1 -3.000000
333 2 832.691000 -776.511000 132.706000 1 1.000000 1 -3.000000
334 2 828.441000 -770.563000 125.963000 1 1.000000 1 -3.000000
335 2 824.499000 -765.231000 118.669000 1 1.000000 1 -3.000000
336 2 820.680000 -761.555000 110.360000 1 1.000000 1 -3.000000
337 2 816.467000 -756.321000 103.059000 1 1.000000 1 -3.000000
338 2 813.084000 -749.949000 96.299900 1 1.000000 1 -3.000000
339 2 808.530000 -742.896000 91.017600 1 1.000000 1 -3.000000
340 2 802.768000 -736.121000 86.517300 1 1.000000 1 -3.000000
341 2 796.490000 -729.522000 82.681300 1 1.000000 1 -3.000000
342 2 788.707000 -724.630000 79.088700 1 1.000000 1 -3.000000
343 2 779.997000 -720.369000 77.497900 1 1.000000 1 -3.000000
344 2 771.268000 -715.581000 77.064700 1 1.000000 1 -3.000000
345 2 761.916000 -712.766000 75.740000 1 1.000000 14 -3.000000
346 1 739.244000 -739.020000 107.707000 1 1.000000 14 0.000000
347 3 772.658000 -741.143000 117.799000 1 1.000000 14 0.000000
348 2 737.310000 -767.676000 145.123000 1 1.000000 14 -3.000000
349 2 745.621000 -763.654000 148.746000 1 1.000000 1 -3.000000
350 2 753.002000 -759.259000 153.749000 1 1.000000 1 -3.000000
351 2 761.082000 -755.367000 157.919000 1 1.000000 1 -3.000000
352 2 769.693000 -751.311000 160.510000 1 1.000000 1 -3.000000
353 2 778.343000 -746.531000 161.654000 1 1.000000 1 -3.000000
354 2 786.595000 -741.619000 158.981000 1 1.000000 1 -3.000000
355 2 795.989000 -738.598000 158.998000 1 1.000000 1 -3.000000
356 2 805.497000 -736.500000 157.123000 1 1.000000 1 -3.000000
357 2 813.427000 -731.847000 153.496000 1 1.000000 1 -3.000000
358 2 822.126000 -727.015000 152.843000 1 1.000000 1 -3.000000
359 2 830.844000 -722.605000 154.279000 1 1.000000 1 -3.000000
360 2 840.120000 -719.459000 154.135000 1 1.000000 1 -3.000000
361 2 848.342000 -714.128000 155.235000 1 1.000000 1 -3.000000
362 2 857.146000 -709.471000 155.660000 1 1.000000 1 -3.000000
363 2 866.389000 -707.297000 158.410000 1 1.000000 1 -3.000000
364 2 873.676000 -703.584000 164.040000 1 1.000000 1 -3.000000
365 2 880.840000 -702.402000 170.818000 1 1.000000 1 -3.000000
366 2 888.150000 -702.888000 177.591000 1 1.000000 1 -3.000000
367 2 895.819000 -704.301000 183.630000 1 1.000000 1 -3.000000
368 2 904.123000 -705.332000 189.005000 1 1.000000 1 -3.000000
369 2 913.284000 -707.006000 192.568000 1 1.000000 1 -3.000000
370 2 922.509000 -710.146000 194.230000 1 1.000000 1 -3.000000
371 2 931.449000 -713.761000 196.362000 1 1.000000 1 -3.000000
372 2 941.329000 -714.588000 196.609000 1 1.000000 15 -3.000000
373 1 943.907000 -753.952000 170.698000 1 1.000000 15 0.000000
374 3 913.557000 -739.740000 160.509000 1 1.000000 15 0.000000
375 2 926.881000 -785.393000 139.909000 1 1.000000 15 -3.000000
376 2 920.454000 -779.028000 136.138000 1 1.000000 1 -3.000000
377 2 912.284000 -774.295000 133.230000 1 1.000000 1 -3.000000
378 2 903.919000 -769.680000 130.637000 1 1.000000 1 -3.000000
379 2 895.687000 -764.505000 129.017000 1 1.000000 1 -3.000000
380 2 889.825000 -756.829000 126.954000 1 1.000000 1 -3.000000
381 2 883.298000 -749.439000 125.915000 1 1.000000 1 -3.000000
382 2 876.921000 -742.150000 123.697000 1 1.000000 1 -3.000000
383 2 871.607000 -734.093000 121.278000 1 1.000000 1 -3.000000
384 2 866.452000 -725.720000 120.121000 1 1.000000 1 -3.000000
385 2 861.788000 -717.850000 116.330000 1 1.000000 1 -3.000000
386 2 856.954000 -710.361000 112.074000 1 1.000000 1 -3.000000
387 2 851.072000 -703.784000 107.668000 1 1.000000 1 -3.000000
388 2 845.294000 -698.304000 101.663000 1 1.000000 1 -3.000000
389 2 840.549000 -692.138000 95.361300 1 1.000000 1 -3.000000
390 2 836.889000 -685.743000 88.817200 1 1.000000 1 -3.000000
391 2 834.273000 -678.334000 82.877300 1 1.000000 1 -3.000000
392 2 831.934000 -670.916000 76.678600 1 1.000000 1 -3.000000
393 2 830.106000 -663.223000 70.708800 1 1.000000 1 -3.000000
394 2 827.534000 -655.519000 65.010400 1 1.000000 1 -3.000000
395 2 826.155000 -648.138000 58.560800 1 1.000000 1 -3.000000
396 2 823.030000 -642.474000 51.195600 1 1.000000 1 -3.000000
397 2 820.426000 -637.407000 43.129300 1 1.000000 1 -3.000000
398 2 817.364000 -632.961000 34.855100 1 1.000000 1 -3.000000
399 2 813.739000 -628.942000 26.550900 1 1.000000 16 -3.000000
400 1 769.460000 -644.924000 29.701600 1 1.000000 16 0.000000
401 3 782.307000 -650.500000 61.768600 1 1.000000 16 0.000000
402 2 732.532000 -662.639000 53.095300 1 1.000000 16 -3.000000
403 2 736.577000 -660.130000 61.764500 1 1.000000 1 -3.000000
404 2 739.340000 -655.534000 70.155900 1 1.000000 1 -3.000000
405 2 742.042000 -651.004000 78.566300 1 1.000000 1 -3.000000
406 2 744.054000 -646.814000 87.242000 1 1.000000 1 -3.000000
407 2 747.148000 -641.951000 95.282700 1 1.000000 1 -3.000000
408 2 749.272000 -636.498000 103.278000 1 1.000000 1 -3.000000
409 2 751.663000 -629.808000 110.246000 1 1.000000 1 -3.000000
410 2 751.795000 -621.790000 115.922000 1 1.000000 1 -3.000000
411 2 750.440000 -613.221000 120.757000 1 1.000000 1 -3.000000
412 2 748.153000 -605.985000 127.070000 1 1.000000 1 -3.000000
413 2 745.014000 -597.709000 131.395000 1 1.000000 1 -3.000000
414 2 743.623000 -588.217000 133.943000 1 1.000000 1 -3.000000
415 2 740.959000 -579.037000 136.583000 1 1.000000 1 -3.000000
416 2 738.458000 -570.684000 141.211000 1 1.000000 1 -3.000000
417 2 735.810000 -561.215000 142.726000 1 1.000000 1 -3.000000
418 2 733.594000 -551.508000 142.259000 1 1.000000 1 -3.000000
419 2 731.112000 -542.287000 139.463000 1 1.000000 1 -3.000000
420 2 729.861000 -532.811000 137.153000 1 1.000000 1 -3.000000
421 2 730.228000 -523.252000 134.692000 1 1.000000 1 -3.000000
422 2 731.099000 -514.062000 131.036000 1 1.000000 1 -3.000000
423 2 733.921000 -505.708000 126.528000 1 1.000000 1 -3.000000
424 2 738.833000 -498.855000 121.614000 1 1.000000 1 -3.000000
425 2 742.578000 -492.164000 115.225000 1 1.000000 1 -3.000000
426 2 746.417000 -485.493000 108.970000 1 1.000000 17 -3.000000
427 1 758.536000 -513.617000 73.148200 1 1.000000 17 0.000000
428 3 736.809000 -533.625000 91.976100 1 1.000000 17 0.000000
429 2 758.566000 -554.547000 49.674400 1 1.000000 17 -3.000000
430 2 749.749000 -558.322000 52.233100 1 1.000000 1 -3.000000
431 2 741.079000 -562.324000 54.688800 1 1.000000 1 -3.000000
432 2 731.484000 -562.831000 56.997200 1 1.000000 1 -3.000000
433 2 722.245000 -560.366000 59.653700 1 1.000000 1 -3.000000
434 2 714.760000 -556.272000 64.596700 1 1.000000 1 -3.000000
435 2 706.890000 -555.457000 70.553600 1 1.000000 1 -3.000000
436 2 699.404000 -556.861000 76.829600 1 1.000000 1 -3.000000
437 2 691.130000 -558.635000 81.991300 1 1.000000 1 -3.000000
438 2 681.970000 -558.417000 85.807300 1 1.000000 1 -3.000000
439 2 673.759000 -559.279000 91.182400 1 1.000000 1 -3.000000
440 2 665.032000 -560.090000 95.701500 1 1.000000 1 -3.000000
441 2 655.913000 -559.702000 99.418000 1 1.000000 1 -3.000000
442 2 647.426000 -558.230000 104.355000 1 1.000000 1 -3.000000
443 2 638.218000 -555.929000 107.008000 1 1.000000 1 -3.000000
444 2 629.159000 -552.358000 109.139000 1 1.000000 1 -3.000000
445 2 620.006000 -550.310000 112.039000 1 1.000000 1 -3.000000
446 2 611.185000 -548.159000 115.926000 1 1.000000 1 -3.000000
447 2 601.710000 -545.638000 117.616000 1 1.000000 1 -3.000000
448 2 592.300000 -543.592000 120.145000 1 1.000000 1 -3.000000
449 2 582.744000 -541.766000 121.711000 1 1.000000 1 -3.000000
450 2 574.136000 -540.365000 126.585000 1 1.000000 1 -3.000000
451 2 565.815000 -540.098000 131.959000 1 1.000000 1 -3.000000
452 2 559.716000 -541.014000 139.639000 1 1.000000 1 -3.000000
453 2 554.548000 -542.974000 147.818000 1 1.000000 18 -3.000000
454 1 556.946000 -589.907000 152.038000 1 1.000000 18 0.000000
455 3 589.457000 -581.150000 142.900000 1 1.000000 18 0.000000
456 2 579.772000 -631.206000 152.083000 1 1.000000 18 -3.000000
457 2 588.357000 -627.222000 155.081000 1 1.000000 1 -3.000000
458 2 596.954000 -623.174000 157.728000 1 1.000000 1 -3.000000
459 2 606.214000 -619.704000 158.184000 1 1.000000 1 -3.000000
460 2 614.524000 -614.398000 157.788000 1 1.000000 1 -3.000000
461 2 621.600000 -607.549000 158.224000 1 1.000000 1 -3.000000
462 2 627.037000 -599.361000 159.425000 1 1.000000 1 -3.000000
463 2 632.245000 -591.315000 156.805000 1 1.000000 1 -3.000000
464 2 638.773000 -584.311000 154.357000 1 1.000000 1 -3.000000
465 2 644.295000 -576.028000 153.816000 1 1.000000 1 -3.000000
466 2 649.197000 -567.375000 153.562000 1 1.000000 1 -3.000000
467 2 651.871000 -557.841000 154.324000 1 1.000000 1 -3.000000
468 2 655.714000 -549.083000 152.045000 1 1.000000 1 -3.000000
469 2 660.755000 -541.067000 149.262000 1 1.000000 1 -3.000000
470 2 664.109000 -532.034000 146.946000 1 1.000000 1 -3.000000
471 2 669.031000 -524.014000 143.943000 1 1.000000 1 -3.000000
472 2 675.159000 -516.563000 141.780000 1 1.000000 1 -3.000000
473 2 681.424000 -509.157000 139.931000 1 1.000000 1 -3.000000
474 2 687.936000 -501.630000 138.852000 1 1.000000 1 -3.000000
475 2 694.916000 -494.749000 137.170000 1 1.000000 1 -3.000000
476 2 700.312000 -487.734000 132.723000 1 1.000000 1 -3.000000