LAMMPS data file

4067 atoms
4067 ellipsoids
4516 bonds
8882 angles
0 dihedrals

3 atom types
5 bond types
12 angle types
0 dihedral types

-4631.092947 4670.465898 xlo xhi
-4631.092947 4670.465898 ylo yhi
-4631.092947 4670.465898 zlo zhi

Masses

1 196016.000000
2 1950.000000
3 19500.000000

Atoms

1 2 541.017000 -1388.320000 726.118000 1 1.000000 1 -3.000000
2 2 534.982000 -1381.260000 722.674000 1 1.000000 1 -3.000000
3 2 530.197000 -1374.580000 717.147000 1 1.000000 1 -3.000000
4 2 524.767000 -1367.150000 713.562000 1 1.000000 1 -3.000000
5 2 520.799000 -1359.950000 708.126000 1 1.000000 1 -3.000000
6 2 516.496000 -1355.190000 700.659000 1 1.000000 1 -3.000000
7 2 510.174000 -1353.020000 693.361000 1 1.000000 1 -3.000000
8 2 503.064000 -1350.260000 686.963000 1 1.000000 1 -3.000000
9 2 496.659000 -1344.680000 681.751000 1 1.000000 1 -3.000000
10 2 489.585000 -1339.330000 677.293000 1 1.000000 1 -3.000000
11 2 481.911000 -1335.390000 672.484000 1 1.000000 1 -3.000000
12 2 475.018000 -1331.060000 666.978000 1 1.000000 1 -3.000000
13 2 466.798000 -1329.120000 661.815000 1 1.000000 1 -3.000000
14 2 457.902000 -1326.880000 657.990000 1 1.000000 1 -3.000000
15 2 448.821000 -1325.740000 653.879000 1 1.000000 1 -3.000000
16 2 439.643000 -1326.290000 650.165000 1 1.000000 1 -3.000000
17 2 430.996000 -1328.550000 645.956000 1 1.000000 1 -3.000000
18 2 423.793000 -1332.940000 640.784000 1 1.000000 1 -3.000000
19 2 418.107000 -1339.270000 635.604000 1 1.000000 1 -3.000000
20 2 411.448000 -1345.190000 631.215000 1 1.000000 1 -3.000000
21 2 405.662000 -1350.310000 624.931000 1 1.000000 2 -3.000000
22 1 421.187000 -1392.120000 640.234000 1 1.000000 2 0.000000
23 3 437.830000 -1369.410000 661.043000 1 1.000000 2 0.000000
24 2 445.416000 -1420.010000 669.571000 1 1.000000 2 -3.000000
25 2 448.626000 -1413.220000 675.980000 1 1.000000 1 -3.000000
26 2 449.908000 -1406.490000 683.229000 1 1.000000 1 -3.000000
27 2 453.778000 -1400.330000 689.873000 1 1.000000 1 -3.000000
28 2 455.389000 -1392.030000 694.924000 1 1.000000 1 -3.000000
29 2 454.879000 -1383.090000 699.216000 1 1.000000 1 -3.000000
30 2 452.974000 -1374.130000 702.824000 1 1.000000 1 -3.000000
31 2 449.547000 -1365.100000 704.767000 1 1.000000 1 -3.000000
32 2 446.381000 -1355.830000 705.916000 1 1.000000 1 -3.000000
33 2 442.452000 -1346.810000 707.231000 1 1.000000 1 -3.000000
34 2 438.437000 -1338.090000 709.327000 1 1.000000 1 -3.000000
35 2 435.068000 -1329.320000 712.515000 1 1.000000 1 -3.000000
36 2 431.791000 -1320.420000 715.464000 1 1.000000 1 -3.000000
37 2 427.967000 -1311.320000 716.377000 1 1.000000 1 -3.000000
38 2 424.462000 -1302.390000 718.800000 1 1.000000 1 -3.000000
39 2 420.365000 -1293.700000 721.095000 1 1.000000 1 -3.000000
40 2 417.904000 -1284.160000 722.620000 1 1.000000 1 -3.000000
41 2 414.583000 -1275.730000 726.716000 1 1.000000 1 -3.000000
42 2 410.267000 -1267.680000 730.356000 1 1.000000 1 -3.000000
43 2 405.802000 -1260.170000 734.949000 1 1.000000 1 -3.000000
44 2 400.601000 -1254.200000 740.905000 1 1.000000 1 -3.000000
45 2 396.048000 -1249.300000 748.159000 1 1.000000 1 -3.000000
46 2 392.797000 -1243.880000 755.782000 1 1.000000 1 -3.000000
47 2 392.055000 -1238.850000 764.380000 1 1.000000 1 -3.000000
48 2 389.345000 -1233.950000 772.436000 1 1.000000 3 -3.000000
49 1 402.468000 -1266.800000 803.592000 1 1.000000 3 0.000000
50 3 420.300000 -1275.530000 774.800000 1 1.000000 3 0.000000
51 2 428.107000 -1303.840000 817.666000 1 1.000000 3 -3.000000
52 2 434.330000 -1301.640000 810.156000 1 1.000000 1 -3.000000
53 2 442.860000 -1302.100000 805.094000 1 1.000000 1 -3.000000
54 2 449.430000 -1299.120000 798.296000 1 1.000000 1 -3.000000
55 2 455.148000 -1296.680000 790.590000 1 1.000000 1 -3.000000
56 2 459.434000 -1294.800000 781.881000 1 1.000000 1 -3.000000
57 2 463.129000 -1291.390000 773.334000 1 1.000000 1 -3.000000
58 2 464.875000 -1289.380000 763.784000 1 1.000000 1 -3.000000
59 2 465.454000 -1286.850000 754.219000 1 1.000000 1 -3.000000
60 2 466.228000 -1281.910000 745.641000 1 1.000000 1 -3.000000
61 2 467.080000 -1277.630000 736.745000 1 1.000000 1 -3.000000
62 2 466.899000 -1274.080000 727.461000 1 1.000000 1 -3.000000
63 2 468.331000 -1268.110000 719.736000 1 1.000000 1 -3.000000
64 2 470.092000 -1261.940000 712.169000 1 1.000000 1 -3.000000
65 2 471.969000 -1256.480000 704.149000 1 1.000000 1 -3.000000
66 2 475.251000 -1251.180000 696.534000 1 1.000000 1 -3.000000
67 2 477.659000 -1243.940000 690.225000 1 1.000000 1 -3.000000
68 2 479.907000 -1237.280000 683.226000 1 1.000000 1 -3.000000
69 2 482.829000 -1230.490000 676.669000 1 1.000000 1 -3.000000
70 2 486.413000 -1224.300000 669.745000 1 1.000000 1 -3.000000
71 2 487.641000 -1217.560000 662.518000 1 1.000000 1 -3.000000
72 2 485.896000 -1211.640000 654.779000 1 1.000000 1 -3.000000
73 2 483.899000 -1207.930000 645.750000 1 1.000000 1 -3.000000
74 2 480.305000 -1203.740000 637.646000 1 1.000000 1 -3.000000
75 2 477.197000 -1199.810000 629.134000 1 1.000000 4 -3.000000
76 1 441.441000 -1228.470000 618.009000 1 1.000000 4 0.000000
77 3 448.422000 -1236.860000 651.216000 1 1.000000 4 0.000000
78 2 410.360000 -1262.740000 627.204000 1 1.000000 4 -3.000000
79 2 410.591000 -1263.400000 637.075000 1 1.000000 1 -3.000000
80 2 412.251000 -1263.940000 646.827000 1 1.000000 1 -3.000000
81 2 413.694000 -1263.270000 656.557000 1 1.000000 1 -3.000000
82 2 413.636000 -1260.680000 666.269000 1 1.000000 1 -3.000000
83 2 414.663000 -1256.400000 675.081000 1 1.000000 1 -3.000000
84 2 418.986000 -1252.160000 682.895000 1 1.000000 1 -3.000000
85 2 423.585000 -1247.870000 690.616000 1 1.000000 1 -3.000000
86 2 429.243000 -1243.960000 697.767000 1 1.000000 1 -3.000000
87 2 434.963000 -1240.840000 705.282000 1 1.000000 1 -3.000000
88 2 440.625000 -1237.300000 712.610000 1 1.000000 1 -3.000000
89 2 443.783000 -1232.920000 720.860000 1 1.000000 1 -3.000000
90 2 449.938000 -1230.640000 728.262000 1 1.000000 1 -3.000000
91 2 456.145000 -1226.230000 734.693000 1 1.000000 1 -3.000000
92 2 464.300000 -1222.950000 739.263000 1 1.000000 1 -3.000000
93 2 472.501000 -1219.300000 743.395000 1 1.000000 1 -3.000000
94 2 480.186000 -1216.160000 748.647000 1 1.000000 1 -3.000000
95 2 485.951000 -1212.640000 755.863000 1 1.000000 1 -3.000000
96 2 492.210000 -1210.370000 763.125000 1 1.000000 1 -3.000000
97 2 498.892000 -1207.860000 769.927000 1 1.000000 1 -3.000000
98 2 506.362000 -1205.730000 776.098000 1 1.000000 1 -3.000000
99 2 515.010000 -1203.280000 780.242000 1 1.000000 1 -3.000000
100 2 523.712000 -1200.620000 784.225000 1 1.000000 1 -3.000000
101 2 532.817000 -1197.360000 786.142000 1 1.000000 1 -3.000000
102 2 541.729000 -1193.090000 785.529000 1 1.000000 5 -3.000000
103 1 554.843000 -1181.480000 741.778000 1 1.000000 5 0.000000
104 3 520.298000 -1186.320000 738.786000 1 1.000000 5 0.000000
105 2 547.180000 -1176.450000 695.434000 1 1.000000 5 -3.000000
106 2 537.637000 -1173.880000 696.400000 1 1.000000 1 -3.000000
107 2 528.010000 -1171.610000 695.746000 1 1.000000 1 -3.000000
108 2 518.280000 -1169.780000 696.441000 1 1.000000 1 -3.000000
109 2 508.618000 -1167.770000 697.060000 1 1.000000 1 -3.000000
110 2 499.164000 -1168.070000 699.958000 1 1.000000 1 -3.000000
111 2 492.209000 -1168.810000 706.903000 1 1.000000 1 -3.000000
112 2 485.826000 -1170.350000 714.335000 1 1.000000 1 -3.000000
113 2 479.336000 -1172.370000 721.549000 1 1.000000 1 -3.000000
114 2 471.725000 -1174.590000 727.632000 1 1.000000 1 -3.000000
115 2 463.962000 -1174.760000 733.789000 1 1.000000 1 -3.000000
116 2 456.032000 -1173.840000 739.527000 1 1.000000 1 -3.000000
117 2 448.599000 -1171.490000 745.713000 1 1.000000 1 -3.000000
118 2 442.616000 -1169.580000 753.240000 1 1.000000 1 -3.000000
119 2 437.096000 -1169.380000 761.455000 1 1.000000 1 -3.000000
120 2 430.360000 -1168.080000 768.652000 1 1.000000 1 -3.000000
121 2 422.679000 -1167.810000 774.842000 1 1.000000 1 -3.000000
122 2 415.505000 -1168.160000 781.751000 1 1.000000 1 -3.000000
123 2 409.121000 -1169.800000 789.167000 1 1.000000 1 -3.000000
124 2 404.845000 -1169.520000 798.044000 1 1.000000 1 -3.000000
125 2 400.778000 -1167.340000 806.882000 1 1.000000 1 -3.000000
126 2 397.903000 -1162.630000 815.107000 1 1.000000 1 -3.000000
127 2 396.474000 -1156.070000 822.375000 1 1.000000 1 -3.000000
128 2 392.895000 -1149.600000 828.994000 1 1.000000 1 -3.000000
129 2 388.779000 -1143.640000 835.676000 1 1.000000 6 -3.000000
130 1 373.186000 -1107.470000 809.648000 1 1.000000 6 0.000000
131 3 384.700000 -1130.160000 785.687000 1 1.000000 6 0.000000
132 2 362.947000 -1086.400000 768.591000 1 1.000000 6 -3.000000
133 2 364.289000 -1094.130000 762.653000 1 1.000000 1 -3.000000
134 2 364.984000 -1102.480000 757.428000 1 1.000000 1 -3.000000
135 2 365.298000 -1110.930000 752.251000 1 1.000000 1 -3.000000
136 2 364.824000 -1119.650000 747.608000 1 1.000000 1 -3.000000
137 2 364.751000 -1128.770000 743.734000 1 1.000000 1 -3.000000
138 2 365.541000 -1138.340000 741.190000 1 1.000000 1 -3.000000
139 2 366.460000 -1148.070000 739.226000 1 1.000000 1 -3.000000
140 2 368.511000 -1157.600000 737.938000 1 1.000000 1 -3.000000
141 2 370.582000 -1166.920000 735.362000 1 1.000000 1 -3.000000
142 2 375.164000 -1175.040000 732.104000 1 1.000000 1 -3.000000
143 2 379.637000 -1182.530000 727.577000 1 1.000000 1 -3.000000
144 2 382.627000 -1191.220000 723.917000 1 1.000000 1 -3.000000
145 2 385.725000 -1198.790000 718.368000 1 1.000000 1 -3.000000
146 2 388.528000 -1207.520000 714.703000 1 1.000000 1 -3.000000
147 2 391.559000 -1215.840000 710.270000 1 1.000000 1 -3.000000
148 2 391.042000 -1224.700000 705.770000 1 1.000000 1 -3.000000
149 2 391.631000 -1234.290000 703.470000 1 1.000000 1 -3.000000
150 2 392.869000 -1244.010000 702.690000 1 1.000000 1 -3.000000
151 2 394.228000 -1253.630000 704.676000 1 1.000000 1 -3.000000
152 2 394.749000 -1263.280000 707.037000 1 1.000000 1 -3.000000
153 2 397.369000 -1272.730000 708.083000 1 1.000000 1 -3.000000
154 2 397.848000 -1282.660000 707.520000 1 1.000000 1 -3.000000
155 2 398.385000 -1292.370000 705.708000 1 1.000000 1 -3.000000
156 2 399.298000 -1301.900000 703.372000 1 1.000000 7 -3.000000
157 1 382.248000 -1326.440000 739.856000 1 1.000000 7 0.000000
158 3 380.729000 -1293.320000 751.080000 1 1.000000 7 0.000000
159 2 364.233000 -1330.530000 783.316000 1 1.000000 7 -3.000000
160 2 359.914000 -1321.690000 782.461000 1 1.000000 1 -3.000000
161 2 354.830000 -1313.200000 782.840000 1 1.000000 1 -3.000000
162 2 350.207000 -1304.480000 781.483000 1 1.000000 1 -3.000000
163 2 346.526000 -1295.310000 780.791000 1 1.000000 1 -3.000000
164 2 342.918000 -1286.610000 778.056000 1 1.000000 1 -3.000000
165 2 338.016000 -1278.220000 776.193000 1 1.000000 1 -3.000000
166 2 331.453000 -1270.760000 776.108000 1 1.000000 1 -3.000000
167 2 323.774000 -1264.460000 774.945000 1 1.000000 1 -3.000000
168 2 316.241000 -1258.250000 773.316000 1 1.000000 1 -3.000000
169 2 309.127000 -1252.110000 770.146000 1 1.000000 1 -3.000000
170 2 302.021000 -1245.490000 768.157000 1 1.000000 1 -3.000000
171 2 295.596000 -1237.860000 767.789000 1 1.000000 1 -3.000000
172 2 290.223000 -1229.970000 770.452000 1 1.000000 1 -3.000000
173 2 283.351000 -1223.520000 773.439000 1 1.000000 1 -3.000000
174 2 275.015000 -1220.350000 777.805000 1 1.000000 1 -3.000000
175 2 267.355000 -1216.850000 783.038000 1 1.000000 1 -3.000000
176 2 259.893000 -1213.770000 788.887000 1 1.000000 1 -3.000000
177 2 251.350000 -1210.730000 792.764000 1 1.000000 1 -3.000000
178 2 243.206000 -1207.300000 797.283000 1 1.000000 1 -3.000000
179 2 236.031000 -1203.020000 802.641000 1 1.000000 1 -3.000000
180 2 229.202000 -1197.270000 806.910000 1 1.000000 1 -3.000000
181 2 223.369000 -1190.110000 810.493000 1 1.000000 1 -3.000000
182 2 218.381000 -1182.890000 814.941000 1 1.000000 1 -3.000000
183 2 214.460000 -1176.000000 820.922000 1 1.000000 8 -3.000000
184 1 245.306000 -1140.850000 814.560000 1 1.000000 8 0.000000
185 3 257.372000 -1165.860000 793.263000 1 1.000000 8 0.000000
186 2 281.707000 -1120.070000 792.939000 1 1.000000 8 -3.000000
187 2 283.057000 -1126.930000 785.932000 1 1.000000 1 -3.000000
188 2 284.954000 -1134.200000 779.509000 1 1.000000 1 -3.000000
189 2 287.204000 -1141.010000 772.791000 1 1.000000 1 -3.000000
190 2 288.569000 -1149.050000 767.172000 1 1.000000 1 -3.000000
191 2 287.566000 -1157.290000 761.768000 1 1.000000 1 -3.000000
192 2 284.548000 -1165.240000 756.753000 1 1.000000 1 -3.000000
193 2 280.856000 -1171.130000 749.743000 1 1.000000 1 -3.000000
194 2 277.818000 -1179.530000 745.403000 1 1.000000 1 -3.000000
195 2 272.746000 -1186.460000 740.430000 1 1.000000 1 -3.000000
196 2 268.589000 -1194.490000 736.470000 1 1.000000 1 -3.000000
197 2 262.138000 -1200.730000 732.270000 1 1.000000 1 -3.000000
198 2 258.495000 -1207.670000 726.135000 1 1.000000 1 -3.000000
199 2 256.060000 -1215.770000 720.743000 1 1.000000 1 -3.000000
200 2 252.965000 -1224.210000 716.590000 1 1.000000 1 -3.000000
201 2 251.485000 -1232.880000 712.232000 1 1.000000 1 -3.000000
202 2 248.506000 -1242.210000 710.395000 1 1.000000 1 -3.000000
203 2 245.729000 -1251.750000 710.366000 1 1.000000 1 -3.000000
204 2 243.853000 -1261.410000 709.489000 1 1.000000 1 -3.000000
205 2 243.304000 -1271.260000 710.246000 1 1.000000 1 -3.000000
206 2 242.778000 -1280.130000 714.615000 1 1.000000 1 -3.000000
207 2 241.435000 -1289.010000 718.632000 1 1.000000 1 -3.000000
208 2 239.868000 -1296.950000 724.293000 1 1.000000 1 -3.000000
209 2 236.370000 -1303.560000 730.819000 1 1.000000 1 -3.000000
210 2 230.861000 -1308.290000 737.461000 1 1.000000 9 -3.000000
211 1 268.487000 -1332.960000 751.707000 1 1.000000 9 0.000000
212 3 277.011000 -1323.420000 719.121000 1 1.000000 9 0.000000
213 2 311.913000 -1350.660000 746.280000 1 1.000000 9 -3.000000
214 2 314.932000 -1344.870000 738.882000 1 1.000000 1 -3.000000
215 2 316.916000 -1339.550000 730.808000 1 1.000000 1 -3.000000
216 2 319.882000 -1334.390000 722.895000 1 1.000000 1 -3.000000
217 2 321.657000 -1326.760000 716.754000 1 1.000000 1 -3.000000
218 2 320.580000 -1320.690000 709.083000 1 1.000000 1 -3.000000
219 2 316.991000 -1314.040000 702.611000 1 1.000000 1 -3.000000
220 2 311.730000 -1307.990000 696.748000 1 1.000000 1 -3.000000
221 2 305.147000 -1302.080000 692.391000 1 1.000000 1 -3.000000
222 2 297.511000 -1298.220000 687.425000 1 1.000000 1 -3.000000
223 2 288.939000 -1294.430000 684.252000 1 1.000000 1 -3.000000
224 2 279.276000 -1293.280000 682.260000 1 1.000000 1 -3.000000
225 2 269.475000 -1294.340000 682.347000 1 1.000000 1 -3.000000
226 2 260.710000 -1298.740000 683.150000 1 1.000000 1 -3.000000
227 2 252.890000 -1304.520000 685.090000 1 1.000000 1 -3.000000
228 2 245.338000 -1309.940000 688.436000 1 1.000000 1 -3.000000
229 2 240.582000 -1316.680000 693.807000 1 1.000000 1 -3.000000
230 2 237.140000 -1323.250000 700.310000 1 1.000000 1 -3.000000
231 2 233.231000 -1327.320000 708.449000 1 1.000000 1 -3.000000
232 2 228.773000 -1332.700000 715.478000 1 1.000000 1 -3.000000
233 2 225.123000 -1339.310000 721.884000 1 1.000000 1 -3.000000
234 2 220.175000 -1344.320000 728.787000 1 1.000000 1 -3.000000
235 2 213.630000 -1350.820000 732.457000 1 1.000000 1 -3.000000
236 2 206.693000 -1356.660000 736.350000 1 1.000000 1 -3.000000
237 2 197.786000 -1360.020000 739.147000 1 1.000000 10 -3.000000
238 1 161.545000 -1340.970000 715.696000 1 1.000000 10 0.000000
239 3 189.430000 -1328.970000 698.316000 1 1.000000 10 0.000000
240 2 142.592000 -1312.230000 683.435000 1 1.000000 10 -3.000000
241 2 150.604000 -1312.300000 677.543000 1 1.000000 1 -3.000000
242 2 157.802000 -1310.700000 670.935000 1 1.000000 1 -3.000000
243 2 165.035000 -1308.130000 664.692000 1 1.000000 1 -3.000000
244 2 174.576000 -1307.580000 662.046000 1 1.000000 1 -3.000000
245 2 184.474000 -1307.390000 660.719000 1 1.000000 1 -3.000000
246 2 194.140000 -1307.730000 658.815000 1 1.000000 1 -3.000000
247 2 203.889000 -1306.370000 659.026000 1 1.000000 1 -3.000000
248 2 213.496000 -1304.510000 660.468000 1 1.000000 1 -3.000000
249 2 223.070000 -1302.230000 659.822000 1 1.000000 1 -3.000000
250 2 232.591000 -1299.420000 659.291000 1 1.000000 1 -3.000000
251 2 242.049000 -1297.980000 656.724000 1 1.000000 1 -3.000000
252 2 251.429000 -1295.540000 654.388000 1 1.000000 1 -3.000000
253 2 260.514000 -1292.440000 652.271000 1 1.000000 1 -3.000000
254 2 268.620000 -1288.060000 648.807000 1 1.000000 1 -3.000000
255 2 275.425000 -1280.930000 647.641000 1 1.000000 1 -3.000000
256 2 283.536000 -1275.320000 648.339000 1 1.000000 1 -3.000000
257 2 290.622000 -1268.830000 650.856000 1 1.000000 1 -3.000000
258 2 296.076000 -1262.290000 655.965000 1 1.000000 1 -3.000000
259 2 300.688000 -1256.440000 662.416000 1 1.000000 1 -3.000000
260 2 305.684000 -1249.740000 667.660000 1 1.000000 1 -3.000000
261 2 310.713000 -1242.590000 672.108000 1 1.000000 1 -3.000000
262 2 316.822000 -1235.500000 675.343000 1 1.000000 1 -3.000000
263 2 323.491000 -1228.920000 678.465000 1 1.000000 1 -3.000000
264 2 330.264000 -1223.010000 682.450000 1 1.000000 11 -3.000000
265 1 347.973000 -1213.680000 639.700000 1 1.000000 11 0.000000
266 3 316.265000 -1226.560000 632.618000 1 1.000000 11 0.000000
267 2 346.820000 -1214.150000 592.531000 1 1.000000 11 -3.000000
268 2 336.959000 -1214.120000 591.999000 1 1.000000 1 -3.000000
269 2 327.144000 -1215.450000 591.605000 1 1.000000 1 -3.000000
270 2 317.915000 -1216.370000 588.241000 1 1.000000 1 -3.000000
271 2 309.027000 -1217.240000 583.958000 1 1.000000 1 -3.000000
272 2 300.508000 -1218.290000 578.963000 1 1.000000 1 -3.000000
273 2 291.247000 -1220.280000 576.307000 1 1.000000 1 -3.000000
274 2 282.267000 -1220.790000 572.040000 1 1.000000 1 -3.000000
275 2 273.013000 -1221.360000 568.491000 1 1.000000 1 -3.000000
276 2 264.348000 -1224.430000 564.955000 1 1.000000 1 -3.000000
277 2 255.094000 -1226.230000 561.851000 1 1.000000 1 -3.000000
278 2 245.540000 -1227.790000 560.043000 1 1.000000 1 -3.000000
279 2 235.860000 -1228.940000 558.390000 1 1.000000 1 -3.000000
280 2 225.983000 -1229.380000 557.865000 1 1.000000 1 -3.000000
281 2 216.320000 -1231.500000 558.259000 1 1.000000 1 -3.000000
282 2 206.530000 -1233.260000 557.485000 1 1.000000 1 -3.000000
283 2 197.134000 -1235.890000 559.348000 1 1.000000 1 -3.000000
284 2 187.661000 -1237.960000 560.813000 1 1.000000 1 -3.000000
285 2 178.022000 -1237.560000 563.021000 1 1.000000 1 -3.000000
286 2 168.428000 -1239.860000 563.740000 1 1.000000 1 -3.000000
287 2 159.428000 -1244.020000 565.060000 1 1.000000 1 -3.000000
288 2 151.123000 -1248.810000 567.148000 1 1.000000 1 -3.000000
289 2 143.779000 -1255.360000 567.662000 1 1.000000 1 -3.000000
290 2 137.292000 -1262.230000 570.544000 1 1.000000 1 -3.000000
291 2 131.313000 -1268.490000 575.144000 1 1.000000 12 -3.000000
292 1 160.066000 -1304.360000 585.705000 1 1.000000 12 0.000000
293 3 181.405000 -1276.650000 585.963000 1 1.000000 12 0.000000
294 2 201.957000 -1323.060000 596.694000 1 1.000000 12 -3.000000
295 2 206.677000 -1314.790000 599.455000 1 1.000000 1 -3.000000
296 2 211.049000 -1306.430000 602.202000 1 1.000000 1 -3.000000
297 2 215.850000 -1298.240000 604.953000 1 1.000000 1 -3.000000
298 2 218.019000 -1288.770000 606.847000 1 1.000000 1 -3.000000
299 2 217.837000 -1279.560000 610.404000 1 1.000000 1 -3.000000
300 2 215.256000 -1271.480000 615.492000 1 1.000000 1 -3.000000
301 2 211.646000 -1265.110000 622.139000 1 1.000000 1 -3.000000
302 2 208.575000 -1258.710000 629.130000 1 1.000000 1 -3.000000
303 2 204.944000 -1252.230000 635.638000 1 1.000000 1 -3.000000
304 2 201.020000 -1245.210000 641.379000 1 1.000000 1 -3.000000
305 2 196.813000 -1238.350000 647.124000 1 1.000000 1 -3.000000
306 2 193.171000 -1230.980000 652.575000 1 1.000000 1 -3.000000
307 2 188.800000 -1224.150000 658.213000 1 1.000000 1 -3.000000
308 2 183.290000 -1219.650000 665.000000 1 1.000000 1 -3.000000
309 2 178.688000 -1216.290000 673.146000 1 1.000000 1 -3.000000
310 2 173.197000 -1213.090000 680.763000 1 1.000000 1 -3.000000
311 2 167.658000 -1212.150000 688.905000 1 1.000000 1 -3.000000
312 2 161.681000 -1211.970000 696.882000 1 1.000000 1 -3.000000
313 2 155.332000 -1213.670000 704.391000 1 1.000000 1 -3.000000
314 2 149.341000 -1216.920000 711.653000 1 1.000000 1 -3.000000
315 2 145.043000 -1222.560000 718.511000 1 1.000000 1 -3.000000
316 2 140.086000 -1227.870000 725.089000 1 1.000000 1 -3.000000
317 2 135.972000 -1234.720000 730.935000 1 1.000000 1 -3.000000
318 2 132.383000 -1241.400000 737.265000 1 1.000000 13 -3.000000
319 1 105.481000 -1264.780000 706.340000 1 1.000000 13 0.000000
320 3 126.181000 -1245.460000 685.865000 1 1.000000 13 0.000000
321 2 88.999100 -1273.590000 663.010000 1 1.000000 13 -3.000000
322 2 97.923100 -1272.860000 658.831000 1 1.000000 1 -3.000000
323 2 107.123000 -1272.500000 655.304000 1 1.000000 1 -3.000000
324 2 115.854000 -1270.140000 651.328000 1 1.000000 1 -3.000000
325 2 123.847000 -1266.330000 646.988000 1 1.000000 1 -3.000000
326 2 131.471000 -1260.670000 644.168000 1 1.000000 1 -3.000000
327 2 138.952000 -1254.730000 641.782000 1 1.000000 1 -3.000000
328 2 145.423000 -1247.620000 639.218000 1 1.000000 1 -3.000000
329 2 152.528000 -1240.900000 637.605000 1 1.000000 1 -3.000000
330 2 160.672000 -1235.590000 635.973000 1 1.000000 1 -3.000000
331 2 168.504000 -1230.330000 632.914000 1 1.000000 1 -3.000000
332 2 176.676000 -1226.440000 628.934000 1 1.000000 1 -3.000000
333 2 183.984000 -1221.110000 624.907000 1 1.000000 1 -3.000000
334 2 192.430000 -1216.670000 622.409000 1 1.000000 1 -3.000000
335 2 201.348000 -1216.450000 617.976000 1 1.000000 1 -3.000000
336 2 210.306000 -1216.100000 613.746000 1 1.000000 1 -3.000000
337 2 219.426000 -1215.310000 610.064000 1 1.000000 1 -3.000000
338 2 228.693000 -1215.190000 606.476000 1 1.000000 1 -3.000000
339 2 236.853000 -1215.960000 600.793000 1 1.000000 1 -3.000000
340 2 246.278000 -1215.250000 597.842000 1 1.000000 1 -3.000000
341 2 255.943000 -1213.180000 597.091000 1 1.000000 1 -3.000000
342 2 265.605000 -1211.000000 597.214000 1 1.000000 1 -3.000000
343 2 274.813000 -1208.710000 599.841000 1 1.000000 1 -3.000000
344 2 283.984000 -1206.700000 603.102000 1 1.000000 1 -3.000000
345 2 292.998000 -1204.620000 606.646000 1 1.000000 14 -3.000000
346 1 287.748000 -1158.000000 611.992000 1 1.000000 14 0.000000
347 3 254.731000 -1169.600000 610.581000 1 1.000000 14 0.000000
348 2 262.149000 -1118.460000 614.502000 1 1.000000 14 -3.000000
349 2 253.760000 -1123.330000 615.892000 1 1.000000 1 -3.000000
350 2 245.090000 -1128.180000 616.015000 1 1.000000 1 -3.000000
351 2 236.660000 -1133.260000 617.067000 1 1.000000 1 -3.000000
352 2 227.305000 -1136.510000 617.275000 1 1.000000 1 -3.000000
353 2 218.857000 -1141.510000 616.607000 1 1.000000 1 -3.000000
354 2 209.870000 -1145.630000 617.010000 1 1.000000 1 -3.000000
355 2 201.496000 -1151.010000 617.309000 1 1.000000 1 -3.000000
356 2 192.485000 -1155.170000 617.673000 1 1.000000 1 -3.000000
357 2 183.019000 -1157.900000 617.903000 1 1.000000 1 -3.000000
358 2 174.087000 -1162.040000 617.870000 1 1.000000 1 -3.000000
359 2 165.926000 -1167.430000 616.479000 1 1.000000 1 -3.000000
360 2 157.522000 -1172.770000 616.115000 1 1.000000 1 -3.000000
361 2 148.965000 -1177.560000 614.762000 1 1.000000 1 -3.000000
362 2 140.663000 -1183.130000 614.361000 1 1.000000 1 -3.000000
363 2 132.554000 -1188.760000 614.657000 1 1.000000 1 -3.000000
364 2 124.936000 -1194.990000 614.683000 1 1.000000 1 -3.000000
365 2 118.633000 -1202.590000 614.657000 1 1.000000 1 -3.000000
366 2 113.056000 -1210.830000 614.213000 1 1.000000 1 -3.000000
367 2 108.467000 -1219.650000 615.164000 1 1.000000 1 -3.000000
368 2 103.536000 -1228.220000 615.008000 1 1.000000 1 -3.000000
369 2 98.485700 -1236.720000 614.583000 1 1.000000 1 -3.000000
370 2 93.312000 -1245.000000 612.590000 1 1.000000 1 -3.000000
371 2 88.797400 -1253.750000 611.409000 1 1.000000 1 -3.000000
372 2 83.990600 -1262.310000 612.940000 1 1.000000 15 -3.000000
373 1 40.420100 -1245.770000 605.585000 1 1.000000 15 0.000000
374 3 60.816000 -1219.670000 594.349000 1 1.000000 15 0.000000
375 2 9.529470 -1212.510000 592.630000 1 1.000000 15 -3.000000
376 2 17.078200 -1207.730000 588.299000 1 1.000000 1 -3.000000
377 2 23.760300 -1203.260000 582.506000 1 1.000000 1 -3.000000
378 2 28.113000 -1198.410000 575.040000 1 1.000000 1 -3.000000
379 2 34.264100 -1195.630000 567.771000 1 1.000000 1 -3.000000
380 2 42.475700 -1192.910000 562.910000 1 1.000000 1 -3.000000
381 2 51.204500 -1189.360000 559.763000 1 1.000000 1 -3.000000
382 2 58.222300 -1186.320000 553.423000 1 1.000000 1 -3.000000
383 2 65.973700 -1182.640000 548.411000 1 1.000000 1 -3.000000
384 2 72.649300 -1180.800000 541.312000 1 1.000000 1 -3.000000
385 2 80.949000 -1179.340000 536.260000 1 1.000000 1 -3.000000
386 2 89.284500 -1177.670000 531.245000 1 1.000000 1 -3.000000
387 2 98.651500 -1176.670000 528.257000 1 1.000000 1 -3.000000
388 2 106.784000 -1173.090000 523.907000 1 1.000000 1 -3.000000
389 2 114.114000 -1167.860000 519.722000 1 1.000000 1 -3.000000
390 2 120.921000 -1161.580000 516.445000 1 1.000000 1 -3.000000
391 2 128.225000 -1155.610000 513.535000 1 1.000000 1 -3.000000
392 2 136.653000 -1150.930000 511.028000 1 1.000000 1 -3.000000
393 2 144.288000 -1145.060000 508.923000 1 1.000000 1 -3.000000
394 2 152.253000 -1139.240000 508.652000 1 1.000000 1 -3.000000
395 2 161.364000 -1135.410000 509.444000 1 1.000000 1 -3.000000
396 2 170.628000 -1131.720000 509.820000 1 1.000000 1 -3.000000
397 2 180.314000 -1129.920000 511.011000 1 1.000000 1 -3.000000
398 2 190.000000 -1129.310000 513.070000 1 1.000000 1 -3.000000
399 2 199.655000 -1128.240000 515.100000 1 1.000000 16 -3.000000
400 1 207.696000 -1174.500000 519.711000 1 1.000000 16 0.000000
401 3 179.163000 -1173.360000 499.714000 1 1.000000 16 0.000000
402 2 199.980000 -1219.910000 509.210000 1 1.000000 16 -3.000000
403 2 195.436000 -1218.020000 500.625000 1 1.000000 1 -3.000000
404 2 191.439000 -1215.610000 491.873000 1 1.000000 1 -3.000000
405 2 189.170000 -1212.380000 482.808000 1 1.000000 1 -3.000000
406 2 188.505000 -1207.300000 474.288000 1 1.000000 1 -3.000000
407 2 191.735000 -1204.280000 465.460000 1 1.000000 1 -3.000000
408 2 194.739000 -1201.270000 456.438000 1 1.000000 1 -3.000000
409 2 197.690000 -1198.860000 447.330000 1 1.000000 1 -3.000000
410 2 199.943000 -1195.860000 438.133000 1 1.000000 1 -3.000000
411 2 202.493000 -1192.510000 429.192000 1 1.000000 1 -3.000000
412 2 205.464000 -1189.820000 420.008000 1 1.000000 1 -3.000000
413 2 207.785000 -1187.940000 410.620000 1 1.000000 1 -3.000000
414 2 209.537000 -1185.380000 401.325000 1 1.000000 1 -3.000000
415 2 211.122000 -1183.950000 391.655000 1 1.000000 1 -3.000000
416 2 214.253000 -1182.230000 382.469000 1 1.000000 1 -3.000000
417 2 216.848000 -1179.110000 373.483000 1 1.000000 1 -3.000000
418 2 216.653000 -1181.340000 363.877000 1 1.000000 1 -3.000000
419 2 217.669000 -1184.050000 354.413000 1 1.000000 1 -3.000000
420 2 217.894000 -1187.000000 344.935000 1 1.000000 1 -3.000000
421 2 216.149000 -1190.550000 335.805000 1 1.000000 1 -3.000000
422 2 213.314000 -1195.890000 327.911000 1 1.000000 1 -3.000000
423 2 207.890000 -1201.970000 322.226000 1 1.000000 1 -3.000000
424 2 203.914000 -1209.390000 316.994000 1 1.000000 1 -3.000000
425 2 199.228000 -1216.000000 311.203000 1 1.000000 1 -3.000000
426 2 196.499000 -1224.080000 306.163000 1 1.000000 17 -3.000000
427 1 209.990000 -1260.060000 333.553000 1 1.000000 17 0.000000
428 3 217.148000 -1231.910000 353.078000 1 1.000000 17 0.000000
429 2 226.550000 -1278.660000 373.650000 1 1.000000 17 -3.000000
430 2 226.064000 -1271.330000 380.271000 1 1.000000 1 -3.000000
431 2 225.822000 -1263.740000 386.558000 1 1.000000 1 -3.000000
432 2 227.543000 -1254.510000 389.890000 1 1.000000 1 -3.000000
433 2 229.947000 -1245.550000 393.219000 1 1.000000 1 -3.000000
434 2 233.185000 -1236.560000 395.831000 1 1.000000 1 -3.000000
435 2 236.059000 -1227.120000 396.295000 1 1.000000 1 -3.000000
436 2 238.816000 -1217.600000 395.994000 1 1.000000 1 -3.000000
437 2 243.067000 -1208.800000 394.558000 1 1.000000 1 -3.000000
438 2 246.431000 -1199.750000 392.512000 1 1.000000 1 -3.000000
439 2 250.705000 -1191.200000 389.707000 1 1.000000 1 -3.000000
440 2 255.868000 -1183.780000 385.627000 1 1.000000 1 -3.000000
441 2 262.876000 -1178.160000 381.374000 1 1.000000 1 -3.000000
442 2 269.363000 -1173.290000 375.769000 1 1.000000 1 -3.000000
443 2 277.146000 -1169.420000 371.081000 1 1.000000 1 -3.000000
444 2 285.170000 -1166.530000 366.145000 1 1.000000 1 -3.000000
445 2 293.510000 -1164.470000 361.224000 1 1.000000 1 -3.000000
446 2 301.575000 -1161.680000 356.328000 1 1.000000 1 -3.000000
447 2 309.765000 -1160.120000 350.878000 1 1.000000 1 -3.000000
448 2 317.501000 -1157.550000 345.222000 1 1.000000 1 -3.000000
449 2 324.494000 -1155.660000 338.582000 1 1.000000 1 -3.000000
450 2 332.345000 -1153.760000 332.843000 1 1.000000 1 -3.000000
451 2 340.072000 -1153.730000 326.694000 1 1.000000 1 -3.000000
452 2 347.845000 -1151.970000 320.804000 1 1.000000 1 -3.000000
453 2 357.023000 -1151.120000 317.306000 1 1.000000 18 -3.000000
454 1 376.320000 -1192.320000 329.842000 1 1.000000 18 0.000000
455 3 343.212000 -1195.420000 340.463000 1 1.000000 18 0.000000
456 2 375.213000 -1235.400000 348.983000 1 1.000000 18 -3.000000
457 2 365.638000 -1236.490000 351.310000 1 1.000000 1 -3.000000
458 2 356.235000 -1237.260000 354.314000 1 1.000000 1 -3.000000
459 2 346.460000 -1237.950000 355.778000 1 1.000000 1 -3.000000
460 2 336.632000 -1237.190000 355.194000 1 1.000000 1 -3.000000
461 2 327.448000 -1234.240000 352.889000 1 1.000000 1 -3.000000
462 2 318.573000 -1230.720000 350.362000 1 1.000000 1 -3.000000
463 2 311.459000 -1225.830000 345.536000 1 1.000000 1 -3.000000
464 2 304.768000 -1220.720000 340.330000 1 1.000000 1 -3.000000
465 2 298.649000 -1214.820000 335.234000 1 1.000000 1 -3.000000
466 2 291.631000 -1210.150000 330.143000 1 1.000000 1 -3.000000