LAMMPS data file

4067 atoms
4067 ellipsoids
4516 bonds
8882 angles
0 dihedrals

3 atom types
5 bond types
12 angle types
0 dihedral types

-4631.092947 4670.465898 xlo xhi
-4631.092947 4670.465898 ylo yhi
-4631.092947 4670.465898 zlo zhi

Masses

1 196016.000000
2 1950.000000
3 19500.000000

Atoms

1 2 792.137000 -106.971000 -117.208000 1 1.000000 1 -3.000000
2 2 792.265000 -98.824800 -111.686000 1 1.000000 1 -3.000000
3 2 789.523000 -91.683500 -105.446000 1 1.000000 1 -3.000000
4 2 787.720000 -84.885100 -98.436400 1 1.000000 1 -3.000000
5 2 787.011000 -78.775300 -90.648800 1 1.000000 1 -3.000000
6 2 784.034000 -71.892400 -84.292000 1 1.000000 1 -3.000000
7 2 777.088000 -66.397900 -79.825200 1 1.000000 1 -3.000000
8 2 769.212000 -60.624800 -78.593900 1 1.000000 1 -3.000000
9 2 760.991000 -55.398400 -77.679300 1 1.000000 1 -3.000000
10 2 753.191000 -49.387000 -76.813900 1 1.000000 1 -3.000000
11 2 745.246000 -43.630600 -75.404100 1 1.000000 1 -3.000000
12 2 736.143000 -39.895000 -74.461600 1 1.000000 1 -3.000000
13 2 727.517000 -35.439200 -72.288800 1 1.000000 1 -3.000000
14 2 718.979000 -32.156800 -68.538100 1 1.000000 1 -3.000000
15 2 710.173000 -28.264800 -65.933800 1 1.000000 1 -3.000000
16 2 701.825000 -23.178200 -64.226500 1 1.000000 1 -3.000000
17 2 693.759000 -17.860100 -61.976500 1 1.000000 1 -3.000000
18 2 685.640000 -13.972700 -57.935300 1 1.000000 1 -3.000000
19 2 678.399000 -10.993900 -51.944600 1 1.000000 1 -3.000000
20 2 671.639000 -10.517400 -44.751400 1 1.000000 1 -3.000000
21 2 664.417000 -10.663300 -37.965100 1 1.000000 2 -3.000000
22 1 629.241000 -23.911700 -66.466900 1 1.000000 2 0.000000
23 3 646.090000 0.325955 -85.259400 1 1.000000 2 0.000000
24 2 604.544000 -22.209600 -106.578000 1 1.000000 2 -3.000000
25 2 609.377000 -16.727100 -113.269000 1 1.000000 1 -3.000000
26 2 614.463000 -10.392700 -118.859000 1 1.000000 1 -3.000000
27 2 620.532000 -3.481910 -122.474000 1 1.000000 1 -3.000000
28 2 627.686000 2.714390 -125.322000 1 1.000000 1 -3.000000
29 2 635.342000 8.066630 -128.455000 1 1.000000 1 -3.000000
30 2 644.243000 11.919900 -129.724000 1 1.000000 1 -3.000000
31 2 653.660000 15.024500 -130.405000 1 1.000000 1 -3.000000
32 2 662.946000 18.071000 -131.462000 1 1.000000 1 -3.000000
33 2 672.689000 19.994400 -131.894000 1 1.000000 1 -3.000000
34 2 682.266000 22.215200 -131.939000 1 1.000000 1 -3.000000
35 2 691.822000 23.911800 -130.180000 1 1.000000 1 -3.000000
36 2 701.619000 22.601500 -129.366000 1 1.000000 1 -3.000000
37 2 710.680000 18.878800 -128.447000 1 1.000000 1 -3.000000
38 2 719.688000 15.945500 -125.622000 1 1.000000 1 -3.000000
39 2 728.703000 15.259900 -121.633000 1 1.000000 1 -3.000000
40 2 737.513000 13.796600 -117.363000 1 1.000000 1 -3.000000
41 2 747.126000 11.944600 -115.971000 1 1.000000 1 -3.000000
42 2 756.558000 9.112880 -114.462000 1 1.000000 1 -3.000000
43 2 764.839000 5.851930 -110.155000 1 1.000000 1 -3.000000
44 2 773.460000 3.847810 -105.674000 1 1.000000 1 -3.000000
45 2 782.026000 6.264660 -101.244000 1 1.000000 1 -3.000000
46 2 790.622000 6.308110 -96.319900 1 1.000000 1 -3.000000
47 2 798.839000 8.163510 -91.160000 1 1.000000 1 -3.000000
48 2 807.192000 10.431300 -86.171900 1 1.000000 3 -3.000000
49 1 809.019000 55.169300 -101.068000 1 1.000000 3 0.000000
50 3 774.793000 47.626700 -102.347000 1 1.000000 3 0.000000
51 2 789.689000 95.731200 -115.298000 1 1.000000 3 -3.000000
52 2 780.548000 91.997300 -113.765000 1 1.000000 1 -3.000000
53 2 771.184000 89.413100 -111.841000 1 1.000000 1 -3.000000
54 2 761.705000 88.732500 -108.817000 1 1.000000 1 -3.000000
55 2 752.693000 85.689400 -106.255000 1 1.000000 1 -3.000000
56 2 744.866000 80.286600 -103.858000 1 1.000000 1 -3.000000
57 2 737.487000 74.393200 -100.916000 1 1.000000 1 -3.000000
58 2 730.522000 67.801300 -98.066200 1 1.000000 1 -3.000000
59 2 722.752000 62.166500 -95.588000 1 1.000000 1 -3.000000
60 2 714.623000 57.380000 -92.679500 1 1.000000 1 -3.000000
61 2 706.245000 52.875400 -89.600100 1 1.000000 1 -3.000000
62 2 699.095000 47.467700 -85.513400 1 1.000000 1 -3.000000
63 2 693.845000 41.769800 -79.312200 1 1.000000 1 -3.000000
64 2 687.724000 35.562100 -74.624700 1 1.000000 1 -3.000000
65 2 681.364000 31.238000 -68.430800 1 1.000000 1 -3.000000
66 2 675.009000 27.553700 -61.785800 1 1.000000 1 -3.000000
67 2 668.743000 24.467700 -54.803700 1 1.000000 1 -3.000000
68 2 662.713000 19.629400 -48.638800 1 1.000000 1 -3.000000
69 2 655.058000 14.523800 -45.020800 1 1.000000 1 -3.000000
70 2 647.600000 9.111920 -41.393600 1 1.000000 1 -3.000000
71 2 639.735000 4.739200 -37.167600 1 1.000000 1 -3.000000
72 2 631.978000 0.291116 -33.152900 1 1.000000 1 -3.000000
73 2 624.305000 -3.412800 -28.210600 1 1.000000 1 -3.000000
74 2 615.887000 -7.041070 -24.308500 1 1.000000 1 -3.000000
75 2 606.863000 -10.517100 -21.938600 1 1.000000 4 -3.000000
76 1 586.765000 31.955400 -25.494700 1 1.000000 4 0.000000
77 3 606.911000 30.243300 -54.121100 1 1.000000 4 0.000000
78 2 579.914000 73.895300 -45.967600 1 1.000000 4 -3.000000
79 2 584.835000 69.866400 -53.632300 1 1.000000 1 -3.000000
80 2 587.891000 67.224800 -62.699400 1 1.000000 1 -3.000000
81 2 589.587000 64.612900 -72.092500 1 1.000000 1 -3.000000
82 2 590.807000 61.209900 -81.274200 1 1.000000 1 -3.000000
83 2 592.630000 54.641900 -88.515900 1 1.000000 1 -3.000000
84 2 592.612000 48.723300 -96.518400 1 1.000000 1 -3.000000
85 2 590.825000 41.523000 -103.069000 1 1.000000 1 -3.000000
86 2 590.505000 35.337400 -110.809000 1 1.000000 1 -3.000000
87 2 590.008000 31.215700 -119.720000 1 1.000000 1 -3.000000
88 2 587.694000 26.709400 -128.201000 1 1.000000 1 -3.000000
89 2 583.538000 21.285900 -135.331000 1 1.000000 1 -3.000000
90 2 580.160000 14.138600 -141.243000 1 1.000000 1 -3.000000
91 2 576.470000 6.219040 -146.047000 1 1.000000 1 -3.000000
92 2 571.030000 -0.202833 -151.007000 1 1.000000 1 -3.000000
93 2 565.294000 -6.808160 -155.510000 1 1.000000 1 -3.000000
94 2 556.417000 -10.312200 -158.089000 1 1.000000 1 -3.000000
95 2 547.309000 -13.565100 -159.930000 1 1.000000 1 -3.000000
96 2 538.565000 -13.850900 -164.535000 1 1.000000 1 -3.000000
97 2 530.225000 -15.621100 -169.614000 1 1.000000 1 -3.000000
98 2 520.651000 -17.456900 -170.964000 1 1.000000 1 -3.000000
99 2 511.299000 -20.363100 -172.322000 1 1.000000 1 -3.000000
100 2 502.091000 -22.341200 -175.367000 1 1.000000 1 -3.000000
101 2 492.918000 -24.234900 -178.807000 1 1.000000 1 -3.000000
102 2 484.288000 -27.525200 -182.505000 1 1.000000 5 -3.000000
103 1 489.597000 -3.704400 -222.936000 1 1.000000 5 0.000000
104 3 522.406000 -12.330200 -214.447000 1 1.000000 5 0.000000
105 2 515.071000 14.650200 -258.123000 1 1.000000 5 -3.000000
106 2 523.781000 10.518500 -256.264000 1 1.000000 1 -3.000000
107 2 531.519000 4.410600 -255.869000 1 1.000000 1 -3.000000
108 2 538.903000 -2.150450 -254.618000 1 1.000000 1 -3.000000
109 2 546.163000 -7.991310 -251.281000 1 1.000000 1 -3.000000
110 2 553.527000 -13.450300 -247.291000 1 1.000000 1 -3.000000
111 2 560.289000 -17.737600 -241.400000 1 1.000000 1 -3.000000
112 2 566.982000 -20.502800 -234.640000 1 1.000000 1 -3.000000
113 2 575.198000 -22.119500 -229.289000 1 1.000000 1 -3.000000
114 2 583.720000 -23.973100 -224.640000 1 1.000000 1 -3.000000
115 2 592.414000 -27.188800 -221.111000 1 1.000000 1 -3.000000
116 2 600.972000 -30.008800 -217.124000 1 1.000000 1 -3.000000
117 2 609.408000 -34.010800 -213.684000 1 1.000000 1 -3.000000
118 2 618.295000 -37.660600 -211.495000 1 1.000000 1 -3.000000
119 2 626.173000 -43.536000 -210.667000 1 1.000000 1 -3.000000
120 2 635.338000 -47.025000 -211.796000 1 1.000000 1 -3.000000
121 2 645.126000 -48.864300 -212.208000 1 1.000000 1 -3.000000
122 2 654.743000 -50.851900 -213.238000 1 1.000000 1 -3.000000
123 2 664.171000 -53.829200 -213.321000 1 1.000000 1 -3.000000
124 2 673.685000 -56.378100 -213.185000 1 1.000000 1 -3.000000
125 2 683.530000 -56.140600 -213.867000 1 1.000000 1 -3.000000
126 2 693.027000 -56.034300 -216.612000 1 1.000000 1 -3.000000
127 2 702.319000 -54.102200 -219.318000 1 1.000000 1 -3.000000
128 2 711.620000 -52.377900 -222.215000 1 1.000000 1 -3.000000
129 2 720.357000 -52.781600 -226.740000 1 1.000000 6 -3.000000
130 1 733.558000 -20.043200 -195.388000 1 1.000000 6 0.000000
131 3 705.034000 -34.000800 -180.807000 1 1.000000 6 0.000000
132 2 728.863000 4.587070 -155.462000 1 1.000000 6 -3.000000
133 2 724.909000 -2.692050 -150.073000 1 1.000000 1 -3.000000
134 2 720.304000 -9.769870 -144.988000 1 1.000000 1 -3.000000
135 2 715.010000 -17.590500 -141.858000 1 1.000000 1 -3.000000
136 2 711.433000 -26.026000 -138.191000 1 1.000000 1 -3.000000
137 2 706.531000 -34.540200 -136.937000 1 1.000000 1 -3.000000
138 2 700.977000 -42.197700 -134.040000 1 1.000000 1 -3.000000
139 2 695.357000 -50.117800 -131.861000 1 1.000000 1 -3.000000
140 2 688.901000 -57.389100 -129.792000 1 1.000000 1 -3.000000
141 2 682.530000 -64.751500 -128.545000 1 1.000000 1 -3.000000
142 2 674.854000 -70.839100 -129.044000 1 1.000000 1 -3.000000
143 2 665.734000 -74.493900 -130.632000 1 1.000000 1 -3.000000
144 2 657.439000 -79.900000 -131.583000 1 1.000000 1 -3.000000
145 2 649.100000 -85.092700 -131.393000 1 1.000000 1 -3.000000
146 2 641.205000 -90.673700 -133.186000 1 1.000000 1 -3.000000
147 2 632.788000 -94.837000 -136.252000 1 1.000000 1 -3.000000
148 2 625.727000 -100.754000 -139.838000 1 1.000000 1 -3.000000
149 2 618.567000 -105.880000 -144.419000 1 1.000000 1 -3.000000
150 2 613.908000 -111.730000 -150.960000 1 1.000000 1 -3.000000
151 2 609.675000 -115.826000 -158.761000 1 1.000000 1 -3.000000
152 2 606.184000 -120.484000 -166.654000 1 1.000000 1 -3.000000
153 2 604.755000 -124.884000 -175.342000 1 1.000000 1 -3.000000
154 2 604.423000 -128.654000 -184.490000 1 1.000000 1 -3.000000
155 2 605.981000 -131.647000 -193.814000 1 1.000000 1 -3.000000
156 2 607.809000 -134.988000 -202.929000 1 1.000000 7 -3.000000
157 1 645.310000 -108.620000 -214.266000 1 1.000000 7 0.000000
158 3 647.740000 -111.599000 -179.496000 1 1.000000 7 0.000000
159 2 686.090000 -86.947100 -204.473000 1 1.000000 7 -3.000000
160 2 687.442000 -89.635000 -195.031000 1 1.000000 1 -3.000000
161 2 689.995000 -94.297300 -186.725000 1 1.000000 1 -3.000000
162 2 690.899000 -100.148000 -178.804000 1 1.000000 1 -3.000000
163 2 690.134000 -104.275000 -169.857000 1 1.000000 1 -3.000000
164 2 686.144000 -107.689000 -161.473000 1 1.000000 1 -3.000000
165 2 682.179000 -112.507000 -153.779000 1 1.000000 1 -3.000000
166 2 679.168000 -117.719000 -145.938000 1 1.000000 1 -3.000000
167 2 676.086000 -122.182000 -137.605000 1 1.000000 1 -3.000000
168 2 674.281000 -128.238000 -129.922000 1 1.000000 1 -3.000000
169 2 672.451000 -134.864000 -122.718000 1 1.000000 1 -3.000000
170 2 671.883000 -141.315000 -115.308000 1 1.000000 1 -3.000000
171 2 671.674000 -148.644000 -108.554000 1 1.000000 1 -3.000000
172 2 671.610000 -157.631000 -104.278000 1 1.000000 1 -3.000000
173 2 670.042000 -165.807000 -98.757700 1 1.000000 1 -3.000000
174 2 669.501000 -174.728000 -94.423900 1 1.000000 1 -3.000000
175 2 667.033000 -183.430000 -90.399100 1 1.000000 1 -3.000000
176 2 662.114000 -191.080000 -86.567800 1 1.000000 1 -3.000000
177 2 657.821000 -198.563000 -81.806600 1 1.000000 1 -3.000000
178 2 654.389000 -204.630000 -74.780100 1 1.000000 1 -3.000000
179 2 651.906000 -209.801000 -66.664000 1 1.000000 1 -3.000000
180 2 652.102000 -215.924000 -58.911400 1 1.000000 1 -3.000000
181 2 652.121000 -222.690000 -51.583400 1 1.000000 1 -3.000000
182 2 652.378000 -229.206000 -44.100500 1 1.000000 1 -3.000000
183 2 652.888000 -235.260000 -36.267100 1 1.000000 8 -3.000000
184 1 671.041000 -271.272000 -60.789000 1 1.000000 8 0.000000
185 3 678.345000 -243.386000 -80.696100 1 1.000000 8 0.000000
186 2 693.712000 -290.168000 -97.608400 1 1.000000 8 -3.000000
187 2 697.218000 -281.231000 -99.767200 1 1.000000 1 -3.000000
188 2 702.241000 -273.390000 -103.238000 1 1.000000 1 -3.000000
189 2 706.686000 -265.189000 -106.618000 1 1.000000 1 -3.000000
190 2 710.049000 -256.127000 -108.802000 1 1.000000 1 -3.000000
191 2 711.956000 -246.452000 -109.609000 1 1.000000 1 -3.000000
192 2 714.043000 -236.753000 -109.746000 1 1.000000 1 -3.000000
193 2 717.137000 -227.588000 -111.715000 1 1.000000 1 -3.000000
194 2 720.353000 -218.650000 -114.323000 1 1.000000 1 -3.000000
195 2 724.324000 -210.694000 -118.660000 1 1.000000 1 -3.000000
196 2 727.884000 -202.459000 -122.721000 1 1.000000 1 -3.000000
197 2 730.505000 -193.574000 -126.254000 1 1.000000 1 -3.000000
198 2 731.883000 -184.314000 -129.617000 1 1.000000 1 -3.000000
199 2 733.643000 -174.954000 -132.255000 1 1.000000 1 -3.000000
200 2 736.805000 -165.830000 -134.279000 1 1.000000 1 -3.000000
201 2 739.735000 -156.417000 -134.778000 1 1.000000 1 -3.000000
202 2 742.960000 -147.503000 -137.496000 1 1.000000 1 -3.000000
203 2 745.513000 -138.790000 -141.673000 1 1.000000 1 -3.000000
204 2 749.175000 -130.820000 -146.197000 1 1.000000 1 -3.000000
205 2 751.683000 -122.000000 -150.035000 1 1.000000 1 -3.000000
206 2 752.418000 -113.414000 -154.975000 1 1.000000 1 -3.000000
207 2 754.681000 -105.517000 -160.456000 1 1.000000 1 -3.000000
208 2 758.291000 -97.920700 -165.827000 1 1.000000 1 -3.000000
209 2 760.991000 -90.039000 -171.039000 1 1.000000 1 -3.000000
210 2 764.690000 -82.342400 -176.107000 1 1.000000 9 -3.000000
211 1 744.886000 -95.147700 -217.001000 1 1.000000 9 0.000000
212 3 732.249000 -118.569000 -194.387000 1 1.000000 9 0.000000
213 2 720.939000 -124.957000 -244.627000 1 1.000000 9 -3.000000
214 2 715.361000 -129.513000 -237.708000 1 1.000000 1 -3.000000
215 2 709.961000 -134.455000 -231.076000 1 1.000000 1 -3.000000
216 2 705.154000 -139.403000 -224.056000 1 1.000000 1 -3.000000
217 2 700.868000 -143.369000 -215.987000 1 1.000000 1 -3.000000
218 2 697.060000 -147.358000 -207.729000 1 1.000000 1 -3.000000
219 2 693.130000 -151.370000 -199.508000 1 1.000000 1 -3.000000
220 2 690.404000 -155.103000 -190.729000 1 1.000000 1 -3.000000
221 2 689.998000 -160.906000 -182.884000 1 1.000000 1 -3.000000
222 2 689.157000 -166.854000 -174.970000 1 1.000000 1 -3.000000
223 2 687.203000 -171.416000 -166.396000 1 1.000000 1 -3.000000
224 2 683.875000 -175.739000 -158.132000 1 1.000000 1 -3.000000
225 2 679.653000 -182.533000 -152.213000 1 1.000000 1 -3.000000
226 2 675.748000 -187.547000 -144.682000 1 1.000000 1 -3.000000
227 2 671.142000 -191.023000 -136.606000 1 1.000000 1 -3.000000
228 2 667.511000 -194.834000 -128.206000 1 1.000000 1 -3.000000
229 2 663.619000 -198.438000 -119.729000 1 1.000000 1 -3.000000
230 2 659.070000 -200.481000 -111.166000 1 1.000000 1 -3.000000
231 2 655.647000 -202.784000 -102.158000 1 1.000000 1 -3.000000
232 2 653.961000 -206.259000 -93.051100 1 1.000000 1 -3.000000
233 2 650.816000 -209.670000 -84.332200 1 1.000000 1 -3.000000
234 2 646.326000 -214.024000 -76.496000 1 1.000000 1 -3.000000
235 2 640.872000 -218.770000 -69.604700 1 1.000000 1 -3.000000
236 2 637.376000 -224.180000 -62.187000 1 1.000000 1 -3.000000
237 2 634.559000 -230.885000 -55.424000 1 1.000000 10 -3.000000
238 1 596.363000 -203.110000 -55.052200 1 1.000000 10 0.000000
239 3 612.722000 -193.639000 -84.410900 1 1.000000 10 0.000000
240 2 569.865000 -167.676000 -71.406000 1 1.000000 10 -3.000000
241 2 571.922000 -168.082000 -81.019000 1 1.000000 1 -3.000000
242 2 574.731000 -168.791000 -90.456100 1 1.000000 1 -3.000000
243 2 578.302000 -169.247000 -99.670700 1 1.000000 1 -3.000000
244 2 582.063000 -172.108000 -108.466000 1 1.000000 1 -3.000000
245 2 586.944000 -175.185000 -116.531000 1 1.000000 1 -3.000000
246 2 593.461000 -177.936000 -123.420000 1 1.000000 1 -3.000000
247 2 600.670000 -181.467000 -129.267000 1 1.000000 1 -3.000000
248 2 606.468000 -185.955000 -135.950000 1 1.000000 1 -3.000000
249 2 610.308000 -190.699000 -143.715000 1 1.000000 1 -3.000000
250 2 614.111000 -194.116000 -152.154000 1 1.000000 1 -3.000000
251 2 617.954000 -198.069000 -160.366000 1 1.000000 1 -3.000000
252 2 620.508000 -201.831000 -169.102000 1 1.000000 1 -3.000000
253 2 623.938000 -205.739000 -177.503000 1 1.000000 1 -3.000000
254 2 625.987000 -208.486000 -186.770000 1 1.000000 1 -3.000000
255 2 626.079000 -212.443000 -195.826000 1 1.000000 1 -3.000000
256 2 625.445000 -217.091000 -204.545000 1 1.000000 1 -3.000000
257 2 625.872000 -219.928000 -214.022000 1 1.000000 1 -3.000000
258 2 625.560000 -222.263000 -223.631000 1 1.000000 1 -3.000000
259 2 624.225000 -223.776000 -233.348000 1 1.000000 1 -3.000000
260 2 620.635000 -225.676000 -242.333000 1 1.000000 1 -3.000000
261 2 619.513000 -228.650000 -251.677000 1 1.000000 1 -3.000000
262 2 619.309000 -233.913000 -260.043000 1 1.000000 1 -3.000000
263 2 619.637000 -237.673000 -269.214000 1 1.000000 1 -3.000000
264 2 620.449000 -240.166000 -278.707000 1 1.000000 11 -3.000000
265 1 661.638000 -262.650000 -273.590000 1 1.000000 11 0.000000
266 3 650.924000 -257.739000 -240.682000 1 1.000000 11 0.000000
267 2 696.020000 -282.502000 -248.077000 1 1.000000 11 -3.000000
268 2 690.415000 -284.139000 -240.031000 1 1.000000 1 -3.000000
269 2 685.158000 -286.454000 -232.040000 1 1.000000 1 -3.000000
270 2 679.841000 -286.723000 -223.675000 1 1.000000 1 -3.000000
271 2 672.936000 -287.429000 -216.633000 1 1.000000 1 -3.000000
272 2 664.820000 -287.947000 -211.054000 1 1.000000 1 -3.000000
273 2 655.989000 -289.298000 -206.882000 1 1.000000 1 -3.000000
274 2 647.202000 -289.858000 -202.434000 1 1.000000 1 -3.000000
275 2 637.922000 -291.905000 -199.658000 1 1.000000 1 -3.000000
276 2 628.404000 -294.763000 -198.581000 1 1.000000 1 -3.000000
277 2 619.318000 -298.421000 -196.863000 1 1.000000 1 -3.000000
278 2 610.594000 -302.998000 -196.129000 1 1.000000 1 -3.000000
279 2 601.252000 -305.978000 -197.749000 1 1.000000 1 -3.000000
280 2 592.049000 -308.356000 -200.517000 1 1.000000 1 -3.000000
281 2 582.199000 -309.743000 -199.483000 1 1.000000 1 -3.000000
282 2 572.382000 -310.599000 -200.195000 1 1.000000 1 -3.000000
283 2 562.600000 -311.877000 -200.974000 1 1.000000 1 -3.000000
284 2 552.813000 -311.525000 -202.513000 1 1.000000 1 -3.000000
285 2 542.948000 -311.753000 -203.719000 1 1.000000 1 -3.000000
286 2 533.253000 -310.254000 -202.164000 1 1.000000 1 -3.000000
287 2 523.829000 -307.230000 -202.658000 1 1.000000 1 -3.000000
288 2 515.394000 -302.872000 -205.665000 1 1.000000 1 -3.000000
289 2 508.923000 -298.373000 -211.641000 1 1.000000 1 -3.000000
290 2 501.665000 -294.636000 -217.210000 1 1.000000 1 -3.000000
291 2 494.838000 -290.717000 -223.250000 1 1.000000 12 -3.000000
292 1 512.256000 -247.610000 -215.494000 1 1.000000 12 0.000000
293 3 540.841000 -267.711000 -215.549000 1 1.000000 12 0.000000
294 2 547.026000 -216.828000 -207.512000 1 1.000000 12 -3.000000
295 2 554.304000 -221.273000 -212.400000 1 1.000000 1 -3.000000
296 2 561.522000 -227.395000 -215.448000 1 1.000000 1 -3.000000
297 2 567.873000 -234.465000 -217.977000 1 1.000000 1 -3.000000
298 2 574.555000 -241.696000 -219.321000 1 1.000000 1 -3.000000
299 2 578.095000 -250.880000 -220.026000 1 1.000000 1 -3.000000
300 2 582.505000 -259.502000 -221.927000 1 1.000000 1 -3.000000
301 2 587.757000 -267.065000 -225.708000 1 1.000000 1 -3.000000
302 2 593.048000 -274.761000 -228.984000 1 1.000000 1 -3.000000
303 2 597.255000 -282.142000 -234.057000 1 1.000000 1 -3.000000
304 2 601.306000 -289.144000 -239.878000 1 1.000000 1 -3.000000
305 2 604.600000 -295.008000 -247.124000 1 1.000000 1 -3.000000
306 2 607.775000 -302.944000 -252.230000 1 1.000000 1 -3.000000
307 2 610.816000 -311.622000 -256.053000 1 1.000000 1 -3.000000
308 2 613.555000 -320.819000 -258.646000 1 1.000000 1 -3.000000
309 2 618.029000 -329.180000 -261.453000 1 1.000000 1 -3.000000
310 2 621.417000 -337.633000 -265.252000 1 1.000000 1 -3.000000
311 2 624.649000 -346.695000 -267.703000 1 1.000000 1 -3.000000
312 2 630.302000 -354.561000 -269.939000 1 1.000000 1 -3.000000
313 2 634.092000 -362.745000 -274.031000 1 1.000000 1 -3.000000
314 2 635.798000 -372.485000 -274.345000 1 1.000000 1 -3.000000
315 2 636.771000 -382.044000 -272.356000 1 1.000000 1 -3.000000
316 2 637.981000 -391.011000 -268.483000 1 1.000000 1 -3.000000
317 2 638.618000 -400.736000 -266.767000 1 1.000000 1 -3.000000
318 2 639.691000 -410.544000 -265.812000 1 1.000000 13 -3.000000
319 1 615.647000 -411.512000 -225.203000 1 1.000000 13 0.000000
320 3 607.917000 -379.985000 -238.345000 1 1.000000 13 0.000000
321 2 588.570000 -392.205000 -191.721000 1 1.000000 13 -3.000000
322 2 585.193000 -385.038000 -197.760000 1 1.000000 1 -3.000000
323 2 580.669000 -378.418000 -203.531000 1 1.000000 1 -3.000000
324 2 576.266000 -371.630000 -209.186000 1 1.000000 1 -3.000000
325 2 572.291000 -365.773000 -216.064000 1 1.000000 1 -3.000000
326 2 571.506000 -359.769000 -223.802000 1 1.000000 1 -3.000000
327 2 572.021000 -353.960000 -231.719000 1 1.000000 1 -3.000000
328 2 571.730000 -347.396000 -239.049000 1 1.000000 1 -3.000000
329 2 571.642000 -340.218000 -245.879000 1 1.000000 1 -3.000000
330 2 568.395000 -332.838000 -251.576000 1 1.000000 1 -3.000000
331 2 566.436000 -324.667000 -256.974000 1 1.000000 1 -3.000000
332 2 563.871000 -316.459000 -261.867000 1 1.000000 1 -3.000000
333 2 563.243000 -307.574000 -266.146000 1 1.000000 1 -3.000000
334 2 563.755000 -299.252000 -271.547000 1 1.000000 1 -3.000000
335 2 564.516000 -290.990000 -276.874000 1 1.000000 1 -3.000000
336 2 567.517000 -282.849000 -281.557000 1 1.000000 1 -3.000000
337 2 571.495000 -275.629000 -287.058000 1 1.000000 1 -3.000000
338 2 575.770000 -269.586000 -293.723000 1 1.000000 1 -3.000000
339 2 582.262000 -262.539000 -295.747000 1 1.000000 1 -3.000000
340 2 589.404000 -256.204000 -298.112000 1 1.000000 1 -3.000000
341 2 596.489000 -249.391000 -297.916000 1 1.000000 1 -3.000000
342 2 600.791000 -240.462000 -296.907000 1 1.000000 1 -3.000000
343 2 603.052000 -232.021000 -292.238000 1 1.000000 1 -3.000000
344 2 604.423000 -224.381000 -286.049000 1 1.000000 1 -3.000000
345 2 606.163000 -215.427000 -282.077000 1 1.000000 14 -3.000000
346 1 563.674000 -195.532000 -287.245000 1 1.000000 14 0.000000
347 3 556.901000 -229.744000 -290.516000 1 1.000000 14 0.000000
348 2 516.788000 -196.992000 -292.235000 1 1.000000 14 -3.000000
349 2 514.742000 -206.598000 -291.890000 1 1.000000 1 -3.000000
350 2 514.211000 -216.375000 -290.798000 1 1.000000 1 -3.000000
351 2 514.364000 -226.284000 -290.784000 1 1.000000 1 -3.000000
352 2 515.145000 -236.091000 -290.551000 1 1.000000 1 -3.000000
353 2 514.381000 -245.944000 -290.942000 1 1.000000 1 -3.000000
354 2 513.628000 -255.652000 -289.265000 1 1.000000 1 -3.000000
355 2 514.486000 -265.470000 -289.174000 1 1.000000 1 -3.000000
356 2 514.445000 -275.248000 -287.529000 1 1.000000 1 -3.000000
357 2 515.275000 -284.939000 -286.025000 1 1.000000 1 -3.000000
358 2 516.873000 -294.011000 -282.397000 1 1.000000 1 -3.000000
359 2 518.031000 -303.587000 -280.255000 1 1.000000 1 -3.000000
360 2 518.916000 -312.466000 -275.955000 1 1.000000 1 -3.000000
361 2 520.607000 -320.983000 -271.154000 1 1.000000 1 -3.000000
362 2 522.762000 -327.649000 -264.204000 1 1.000000 1 -3.000000
363 2 524.698000 -332.736000 -255.923000 1 1.000000 1 -3.000000
364 2 529.022000 -335.187000 -247.446000 1 1.000000 1 -3.000000
365 2 533.926000 -337.326000 -239.077000 1 1.000000 1 -3.000000
366 2 536.707000 -337.676000 -229.545000 1 1.000000 1 -3.000000
367 2 537.707000 -338.131000 -219.700000 1 1.000000 1 -3.000000
368 2 539.462000 -338.596000 -209.950000 1 1.000000 1 -3.000000
369 2 540.888000 -338.892000 -200.250000 1 1.000000 1 -3.000000
370 2 538.835000 -340.235000 -190.705000 1 1.000000 1 -3.000000
371 2 536.950000 -340.935000 -181.002000 1 1.000000 1 -3.000000
372 2 533.852000 -339.472000 -171.753000 1 1.000000 15 -3.000000
373 1 502.633000 -304.227000 -174.906000 1 1.000000 15 0.000000
374 3 500.491000 -319.590000 -206.225000 1 1.000000 15 0.000000
375 2 471.945000 -277.047000 -198.202000 1 1.000000 15 -3.000000
376 2 469.735000 -283.274000 -205.486000 1 1.000000 1 -3.000000
377 2 466.818000 -289.669000 -212.463000 1 1.000000 1 -3.000000
378 2 465.984000 -296.252000 -219.841000 1 1.000000 1 -3.000000
379 2 465.398000 -303.492000 -226.574000 1 1.000000 1 -3.000000
380 2 464.410000 -311.613000 -232.312000 1 1.000000 1 -3.000000
381 2 461.509000 -320.902000 -233.937000 1 1.000000 1 -3.000000
382 2 458.397000 -330.218000 -234.717000 1 1.000000 1 -3.000000
383 2 454.369000 -338.995000 -236.903000 1 1.000000 1 -3.000000
384 2 449.037000 -346.929000 -239.360000 1 1.000000 1 -3.000000
385 2 445.667000 -354.627000 -244.521000 1 1.000000 1 -3.000000
386 2 441.772000 -362.904000 -248.315000 1 1.000000 1 -3.000000
387 2 436.712000 -370.973000 -250.828000 1 1.000000 1 -3.000000
388 2 431.543000 -379.048000 -253.358000 1 1.000000 1 -3.000000
389 2 426.375000 -387.354000 -254.702000 1 1.000000 1 -3.000000
390 2 421.781000 -396.169000 -255.125000 1 1.000000 1 -3.000000
391 2 417.381000 -404.936000 -254.218000 1 1.000000 1 -3.000000
392 2 411.324000 -412.786000 -254.557000 1 1.000000 1 -3.000000
393 2 403.497000 -418.908000 -254.377000 1 1.000000 1 -3.000000
394 2 395.478000 -424.550000 -252.790000 1 1.000000 1 -3.000000
395 2 388.455000 -431.249000 -251.030000 1 1.000000 1 -3.000000
396 2 381.850000 -438.508000 -249.388000 1 1.000000 1 -3.000000
397 2 374.819000 -444.922000 -246.501000 1 1.000000 1 -3.000000
398 2 367.520000 -450.458000 -242.527000 1 1.000000 1 -3.000000
399 2 360.725000 -456.260000 -238.367000 1 1.000000 16 -3.000000
400 1 338.822000 -417.997000 -221.556000 1 1.000000 16 0.000000
401 3 353.769000 -406.318000 -250.934000 1 1.000000 16 0.000000
402 2 323.922000 -373.285000 -224.233000 1 1.000000 16 -3.000000
403 2 325.750000 -373.128000 -234.075000 1 1.000000 1 -3.000000
404 2 325.566000 -373.869000 -243.910000 1 1.000000 1 -3.000000
405 2 324.199000 -373.073000 -253.713000 1 1.000000 1 -3.000000
406 2 326.024000 -373.376000 -263.466000 1 1.000000 1 -3.000000
407 2 330.724000 -375.347000 -271.897000 1 1.000000 1 -3.000000
408 2 335.796000 -378.443000 -279.789000 1 1.000000 1 -3.000000
409 2 341.040000 -382.519000 -287.241000 1 1.000000 1 -3.000000
410 2 345.086000 -387.296000 -294.892000 1 1.000000 1 -3.000000
411 2 350.690000 -391.838000 -301.660000 1 1.000000 1 -3.000000
412 2 356.307000 -394.273000 -309.433000 1 1.000000 1 -3.000000
413 2 359.954000 -395.419000 -318.598000 1 1.000000 1 -3.000000
414 2 363.463000 -394.370000 -327.759000 1 1.000000 1 -3.000000
415 2 365.490000 -393.714000 -337.387000 1 1.000000 1 -3.000000
416 2 364.280000 -391.217000 -346.897000 1 1.000000 1 -3.000000
417 2 364.090000 -387.839000 -356.153000 1 1.000000 1 -3.000000
418 2 361.017000 -384.644000 -364.994000 1 1.000000 1 -3.000000
419 2 358.681000 -380.233000 -373.497000 1 1.000000 1 -3.000000
420 2 359.604000 -375.183000 -381.985000 1 1.000000 1 -3.000000
421 2 358.589000 -369.242000 -389.801000 1 1.000000 1 -3.000000
422 2 355.266000 -362.556000 -396.316000 1 1.000000 1 -3.000000
423 2 350.845000 -356.430000 -402.637000 1 1.000000 1 -3.000000
424 2 344.349000 -350.587000 -407.159000 1 1.000000 1 -3.000000
425 2 337.508000 -344.952000 -411.538000 1 1.000000 1 -3.000000
426 2 329.374000 -341.450000 -415.824000 1 1.000000 17 -3.000000
427 1 299.263000 -377.146000 -422.228000 1 1.000000 17 0.000000
428 3 318.056000 -387.415000 -394.530000 1 1.000000 17 0.000000
429 2 280.089000 -418.815000 -411.209000 1 1.000000 17 -3.000000
430 2 284.583000 -418.750000 -402.407000 1 1.000000 1 -3.000000
431 2 289.466000 -420.176000 -393.960000 1 1.000000 1 -3.000000
432 2 293.534000 -422.462000 -385.141000 1 1.000000 1 -3.000000
433 2 296.429000 -421.885000 -375.660000 1 1.000000 1 -3.000000
434 2 297.754000 -418.771000 -366.370000 1 1.000000 1 -3.000000
435 2 299.524000 -415.969000 -357.084000 1 1.000000 1 -3.000000
436 2 300.872000 -413.493000 -347.650000 1 1.000000 1 -3.000000
437 2 298.999000 -412.676000 -337.939000 1 1.000000 1 -3.000000
438 2 295.753000 -415.177000 -328.928000 1 1.000000 1 -3.000000
439 2 293.629000 -414.527000 -319.260000 1 1.000000 1 -3.000000
440 2 290.003000 -414.912000 -309.982000 1 1.000000 1 -3.000000
441 2 284.821000 -416.759000 -301.732000 1 1.000000 1 -3.000000
442 2 279.509000 -418.463000 -293.543000 1 1.000000 1 -3.000000
443 2 274.339000 -420.533000 -285.254000 1 1.000000 1 -3.000000
444 2 269.525000 -422.173000 -276.810000 1 1.000000 1 -3.000000
445 2 264.545000 -424.767000 -268.620000 1 1.000000 1 -3.000000
446 2 257.938000 -426.959000 -261.606000 1 1.000000 1 -3.000000
447 2 250.496000 -428.813000 -255.296000 1 1.000000 1 -3.000000
448 2 242.555000 -432.671000 -250.868000 1 1.000000 1 -3.000000
449 2 235.583000 -437.940000 -246.305000 1 1.000000 1 -3.000000
450 2 230.757000 -444.864000 -241.197000 1 1.000000 1 -3.000000
451 2 227.792000 -452.879000 -236.183000 1 1.000000 1 -3.000000
452 2 224.591000 -460.011000 -230.102000 1 1.000000 1 -3.000000
453 2 222.678000 -465.668000 -222.145000 1 1.000000 18 -3.000000
454 1 215.609000 -436.530000 -185.716000 1 1.000000 18 0.000000
455 3 213.238000 -415.366000 -213.481000 1 1.000000 18 0.000000
456 2 210.488000 -393.882000 -166.263000 1 1.000000 18 -3.000000
457 2 204.826000 -388.981000 -172.840000 1 1.000000 1 -3.000000
458 2 199.884000 -384.845000 -180.376000 1 1.000000 1 -3.000000
459 2 197.258000 -381.340000 -189.266000 1 1.000000 1 -3.000000
460 2 194.086000 -379.402000 -198.445000 1 1.000000 1 -3.000000
461 2 191.067000 -378.813000 -207.898000 1 1.000000 1 -3.000000
462 2 187.654000 -380.547000 -217.076000 1 1.000000 1 -3.000000
463 2 185.829000 -382.486000 -226.627000 1 1.000000 1 -3.000000
464 2 183.957000 -383.172000 -236.375000 1 1.000000 1 -3.000000
465 2 180.893000 -382.451000 -245.801000 1 1.000000 1 -3.000000
466 2 177.101000 -381.037000 -254.863000 1 1.000000 1 -3.000000
467 2 174.906000 -380.704000 -264.493000 1 1.000000 1 -3.000000
468 2 175.074000 -380.952000 -274.428000 1 1.000000 1 -3.000000
469 2 174.217000 -380.227000 -284.141000 1 1.000000 1 -3.000000
470 2 175.929000 -377.277000 -293.411000 1 1.000000 1 -3.000000