LAMMPS data file

4067 atoms
4067 ellipsoids
4516 bonds
8882 angles
0 dihedrals

3 atom types
5 bond types
12 angle types
0 dihedral types

-4631.092947 4670.465898 xlo xhi
-4631.092947 4670.465898 ylo yhi
-4631.092947 4670.465898 zlo zhi

Masses

1 196016.000000
2 1950.000000
3 19500.000000

Atoms

1 2 -264.219000 -913.373000 629.606000 1 1.000000 1 -3.000000
2 2 -259.970000 -904.500000 628.367000 1 1.000000 1 -3.000000
3 2 -255.187000 -895.819000 628.011000 1 1.000000 1 -3.000000
4 2 -249.908000 -887.992000 625.252000 1 1.000000 1 -3.000000
5 2 -244.820000 -880.181000 621.821000 1 1.000000 1 -3.000000
6 2 -239.221000 -872.426000 619.015000 1 1.000000 1 -3.000000
7 2 -233.165000 -865.123000 616.037000 1 1.000000 1 -3.000000
8 2 -227.876000 -857.518000 612.408000 1 1.000000 1 -3.000000
9 2 -221.931000 -850.378000 609.074000 1 1.000000 1 -3.000000
10 2 -216.261000 -842.828000 606.153000 1 1.000000 1 -3.000000
11 2 -211.097000 -834.819000 603.459000 1 1.000000 1 -3.000000
12 2 -207.035000 -826.410000 600.416000 1 1.000000 1 -3.000000
13 2 -204.140000 -818.020000 596.024000 1 1.000000 1 -3.000000
14 2 -200.092000 -809.515000 593.023000 1 1.000000 1 -3.000000
15 2 -195.429000 -801.111000 590.685000 1 1.000000 1 -3.000000
16 2 -191.584000 -792.714000 587.233000 1 1.000000 1 -3.000000
17 2 -188.335000 -785.467000 581.272000 1 1.000000 1 -3.000000
18 2 -184.819000 -780.341000 573.613000 1 1.000000 1 -3.000000
19 2 -184.700000 -775.782000 564.774000 1 1.000000 1 -3.000000
20 2 -185.620000 -769.161000 557.485000 1 1.000000 1 -3.000000
21 2 -186.442000 -761.747000 550.951000 1 1.000000 2 -3.000000
22 1 -216.817000 -784.314000 522.763000 1 1.000000 2 0.000000
23 3 -219.770000 -801.441000 553.066000 1 1.000000 2 0.000000
24 2 -246.765000 -819.301000 512.485000 1 1.000000 2 -3.000000
25 2 -247.710000 -822.526000 521.913000 1 1.000000 1 -3.000000
26 2 -251.428000 -826.655000 530.096000 1 1.000000 1 -3.000000
27 2 -252.744000 -829.344000 539.623000 1 1.000000 1 -3.000000
28 2 -254.083000 -829.743000 549.474000 1 1.000000 1 -3.000000
29 2 -255.322000 -828.062000 559.151000 1 1.000000 1 -3.000000
30 2 -254.656000 -825.032000 568.558000 1 1.000000 1 -3.000000
31 2 -254.590000 -821.083000 577.581000 1 1.000000 1 -3.000000
32 2 -256.084000 -816.722000 586.371000 1 1.000000 1 -3.000000
33 2 -257.008000 -812.563000 595.313000 1 1.000000 1 -3.000000
34 2 -257.516000 -809.148000 604.589000 1 1.000000 1 -3.000000
35 2 -258.979000 -806.417000 614.117000 1 1.000000 1 -3.000000
36 2 -261.603000 -803.562000 623.207000 1 1.000000 1 -3.000000
37 2 -266.331000 -801.816000 631.666000 1 1.000000 1 -3.000000
38 2 -272.904000 -797.196000 637.433000 1 1.000000 1 -3.000000
39 2 -278.522000 -792.418000 643.977000 1 1.000000 1 -3.000000
40 2 -285.859000 -788.710000 649.525000 1 1.000000 1 -3.000000
41 2 -294.240000 -784.837000 653.164000 1 1.000000 1 -3.000000
42 2 -302.853000 -781.547000 656.773000 1 1.000000 1 -3.000000
43 2 -311.117000 -778.360000 661.194000 1 1.000000 1 -3.000000
44 2 -318.490000 -777.085000 667.634000 1 1.000000 1 -3.000000
45 2 -324.172000 -775.509000 675.614000 1 1.000000 1 -3.000000
46 2 -329.603000 -773.788000 683.677000 1 1.000000 1 -3.000000
47 2 -334.085000 -771.497000 692.116000 1 1.000000 1 -3.000000
48 2 -337.726000 -771.427000 701.324000 1 1.000000 3 -3.000000
49 1 -314.691000 -805.407000 724.624000 1 1.000000 3 0.000000
50 3 -293.550000 -798.550000 697.673000 1 1.000000 3 0.000000
51 2 -277.549000 -833.365000 732.494000 1 1.000000 3 -3.000000
52 2 -270.834000 -829.020000 726.665000 1 1.000000 1 -3.000000
53 2 -264.973000 -823.770000 720.709000 1 1.000000 1 -3.000000
54 2 -258.700000 -819.347000 714.557000 1 1.000000 1 -3.000000
55 2 -253.783000 -814.540000 707.429000 1 1.000000 1 -3.000000
56 2 -249.492000 -809.189000 700.324000 1 1.000000 1 -3.000000
57 2 -246.019000 -803.089000 693.264000 1 1.000000 1 -3.000000
58 2 -242.578000 -796.768000 686.474000 1 1.000000 1 -3.000000
59 2 -239.660000 -791.040000 679.013000 1 1.000000 1 -3.000000
60 2 -237.806000 -784.620000 671.642000 1 1.000000 1 -3.000000
61 2 -236.597000 -778.518000 664.020000 1 1.000000 1 -3.000000
62 2 -234.009000 -771.610000 657.419000 1 1.000000 1 -3.000000
63 2 -231.457000 -765.445000 650.107000 1 1.000000 1 -3.000000
64 2 -229.203000 -757.923000 644.126000 1 1.000000 1 -3.000000
65 2 -226.265000 -751.786000 636.932000 1 1.000000 1 -3.000000
66 2 -226.097000 -745.947000 628.964000 1 1.000000 1 -3.000000
67 2 -225.918000 -741.514000 620.101000 1 1.000000 1 -3.000000
68 2 -225.566000 -737.318000 610.984000 1 1.000000 1 -3.000000
69 2 -228.822000 -734.058000 602.218000 1 1.000000 1 -3.000000
70 2 -232.331000 -730.300000 593.814000 1 1.000000 1 -3.000000
71 2 -236.652000 -725.354000 586.439000 1 1.000000 1 -3.000000
72 2 -242.299000 -720.764000 579.773000 1 1.000000 1 -3.000000
73 2 -248.653000 -714.097000 576.270000 1 1.000000 1 -3.000000
74 2 -253.922000 -706.100000 573.871000 1 1.000000 1 -3.000000
75 2 -259.422000 -699.183000 569.304000 1 1.000000 4 -3.000000
76 1 -295.426000 -704.587000 599.316000 1 1.000000 4 0.000000
77 3 -268.323000 -718.301000 616.819000 1 1.000000 4 0.000000
78 2 -314.498000 -717.739000 640.360000 1 1.000000 4 -3.000000
79 2 -306.988000 -721.748000 645.529000 1 1.000000 1 -3.000000
80 2 -298.771000 -723.074000 650.797000 1 1.000000 1 -3.000000
81 2 -290.311000 -723.513000 656.011000 1 1.000000 1 -3.000000
82 2 -280.944000 -723.337000 659.126000 1 1.000000 1 -3.000000
83 2 -271.251000 -722.451000 660.605000 1 1.000000 1 -3.000000
84 2 -261.387000 -721.262000 660.705000 1 1.000000 1 -3.000000
85 2 -251.870000 -719.595000 658.922000 1 1.000000 1 -3.000000
86 2 -242.673000 -716.228000 658.223000 1 1.000000 1 -3.000000
87 2 -233.407000 -712.578000 657.976000 1 1.000000 1 -3.000000
88 2 -224.306000 -709.065000 657.096000 1 1.000000 1 -3.000000
89 2 -215.346000 -704.921000 656.450000 1 1.000000 1 -3.000000
90 2 -206.327000 -700.941000 657.184000 1 1.000000 1 -3.000000
91 2 -198.132000 -695.375000 657.229000 1 1.000000 1 -3.000000
92 2 -189.311000 -690.861000 657.139000 1 1.000000 1 -3.000000
93 2 -180.092000 -687.204000 657.018000 1 1.000000 1 -3.000000
94 2 -170.519000 -685.379000 655.465000 1 1.000000 1 -3.000000
95 2 -161.698000 -683.735000 651.269000 1 1.000000 1 -3.000000
96 2 -152.558000 -680.847000 648.849000 1 1.000000 1 -3.000000
97 2 -143.382000 -678.117000 646.424000 1 1.000000 1 -3.000000
98 2 -134.657000 -676.089000 642.318000 1 1.000000 1 -3.000000
99 2 -125.904000 -675.248000 637.836000 1 1.000000 1 -3.000000
100 2 -120.006000 -673.993000 629.959000 1 1.000000 1 -3.000000
101 2 -115.034000 -672.742000 621.533000 1 1.000000 1 -3.000000
102 2 -108.587000 -673.737000 614.179000 1 1.000000 5 -3.000000
103 1 -123.356000 -712.047000 590.940000 1 1.000000 5 0.000000
104 3 -150.881000 -703.679000 610.961000 1 1.000000 5 0.000000
105 2 -154.634000 -745.939000 580.925000 1 1.000000 5 -3.000000
106 2 -162.362000 -740.427000 583.755000 1 1.000000 1 -3.000000
107 2 -170.391000 -735.441000 586.584000 1 1.000000 1 -3.000000
108 2 -177.813000 -729.765000 589.704000 1 1.000000 1 -3.000000
109 2 -184.681000 -723.453000 593.033000 1 1.000000 1 -3.000000
110 2 -191.303000 -717.221000 597.037000 1 1.000000 1 -3.000000
111 2 -195.482000 -709.747000 601.841000 1 1.000000 1 -3.000000
112 2 -199.670000 -702.982000 607.800000 1 1.000000 1 -3.000000
113 2 -203.519000 -695.039000 612.344000 1 1.000000 1 -3.000000
114 2 -206.326000 -686.382000 616.014000 1 1.000000 1 -3.000000
115 2 -210.344000 -677.549000 618.276000 1 1.000000 1 -3.000000
116 2 -211.693000 -668.492000 621.840000 1 1.000000 1 -3.000000
117 2 -212.648000 -659.395000 625.783000 1 1.000000 1 -3.000000
118 2 -212.386000 -652.158000 632.351000 1 1.000000 1 -3.000000
119 2 -212.010000 -644.540000 638.756000 1 1.000000 1 -3.000000
120 2 -211.061000 -635.772000 643.095000 1 1.000000 1 -3.000000
121 2 -210.901000 -626.906000 647.328000 1 1.000000 1 -3.000000
122 2 -211.042000 -619.346000 653.855000 1 1.000000 1 -3.000000
123 2 -210.410000 -610.937000 659.145000 1 1.000000 1 -3.000000
124 2 -210.030000 -602.435000 664.327000 1 1.000000 1 -3.000000
125 2 -207.420000 -594.471000 669.574000 1 1.000000 1 -3.000000
126 2 -203.929000 -587.040000 675.089000 1 1.000000 1 -3.000000
127 2 -198.302000 -580.747000 680.289000 1 1.000000 1 -3.000000
128 2 -193.819000 -573.211000 684.954000 1 1.000000 1 -3.000000
129 2 -188.879000 -567.109000 691.067000 1 1.000000 6 -3.000000
130 1 -145.308000 -577.822000 676.626000 1 1.000000 6 0.000000
131 3 -165.633000 -597.856000 656.485000 1 1.000000 6 0.000000
132 2 -114.232000 -600.139000 648.976000 1 1.000000 6 -3.000000
133 2 -121.253000 -601.988000 642.368000 1 1.000000 1 -3.000000
134 2 -127.239000 -605.553000 635.423000 1 1.000000 1 -3.000000
135 2 -133.306000 -609.358000 628.660000 1 1.000000 1 -3.000000
136 2 -140.588000 -613.231000 623.131000 1 1.000000 1 -3.000000
137 2 -148.737000 -616.445000 618.575000 1 1.000000 1 -3.000000
138 2 -157.409000 -619.068000 614.563000 1 1.000000 1 -3.000000
139 2 -166.537000 -620.357000 610.958000 1 1.000000 1 -3.000000
140 2 -175.762000 -622.041000 607.868000 1 1.000000 1 -3.000000
141 2 -185.050000 -622.523000 604.481000 1 1.000000 1 -3.000000
142 2 -194.057000 -622.723000 600.297000 1 1.000000 1 -3.000000
143 2 -203.036000 -620.882000 596.645000 1 1.000000 1 -3.000000
144 2 -212.190000 -619.780000 593.124000 1 1.000000 1 -3.000000
145 2 -221.621000 -620.957000 590.328000 1 1.000000 1 -3.000000
146 2 -231.199000 -623.408000 589.862000 1 1.000000 1 -3.000000
147 2 -240.959000 -625.029000 590.954000 1 1.000000 1 -3.000000
148 2 -250.243000 -627.733000 593.075000 1 1.000000 1 -3.000000
149 2 -259.344000 -630.671000 595.643000 1 1.000000 1 -3.000000
150 2 -268.026000 -634.477000 598.453000 1 1.000000 1 -3.000000
151 2 -275.744000 -638.648000 603.109000 1 1.000000 1 -3.000000
152 2 -283.598000 -643.271000 607.083000 1 1.000000 1 -3.000000
153 2 -292.360000 -646.958000 609.917000 1 1.000000 1 -3.000000
154 2 -301.331000 -651.218000 610.618000 1 1.000000 1 -3.000000
155 2 -309.274000 -657.087000 611.585000 1 1.000000 1 -3.000000
156 2 -317.914000 -661.333000 613.767000 1 1.000000 7 -3.000000
157 1 -344.140000 -624.071000 601.533000 1 1.000000 7 0.000000
158 3 -312.016000 -615.067000 591.068000 1 1.000000 7 0.000000
159 2 -350.724000 -581.904000 581.427000 1 1.000000 7 -3.000000
160 2 -341.188000 -580.554000 578.806000 1 1.000000 1 -3.000000
161 2 -332.580000 -577.811000 574.748000 1 1.000000 1 -3.000000
162 2 -323.391000 -576.858000 571.175000 1 1.000000 1 -3.000000
163 2 -313.773000 -577.609000 568.988000 1 1.000000 1 -3.000000
164 2 -304.146000 -578.886000 566.839000 1 1.000000 1 -3.000000
165 2 -294.782000 -581.634000 564.799000 1 1.000000 1 -3.000000
166 2 -285.609000 -583.962000 562.052000 1 1.000000 1 -3.000000
167 2 -276.237000 -586.625000 559.984000 1 1.000000 1 -3.000000
168 2 -267.019000 -589.540000 557.897000 1 1.000000 1 -3.000000
169 2 -257.821000 -592.000000 554.930000 1 1.000000 1 -3.000000
170 2 -248.405000 -594.108000 552.931000 1 1.000000 1 -3.000000
171 2 -238.673000 -595.505000 551.807000 1 1.000000 1 -3.000000
172 2 -228.999000 -596.689000 549.994000 1 1.000000 1 -3.000000
173 2 -219.679000 -598.261000 547.341000 1 1.000000 1 -3.000000
174 2 -209.931000 -597.467000 545.697000 1 1.000000 1 -3.000000
175 2 -200.282000 -598.180000 543.978000 1 1.000000 1 -3.000000
176 2 -190.321000 -598.873000 543.542000 1 1.000000 1 -3.000000
177 2 -180.460000 -599.368000 543.514000 1 1.000000 1 -3.000000
178 2 -170.738000 -598.763000 541.845000 1 1.000000 1 -3.000000
179 2 -161.148000 -596.387000 540.844000 1 1.000000 1 -3.000000
180 2 -151.865000 -592.920000 540.031000 1 1.000000 1 -3.000000
181 2 -143.218000 -588.081000 539.003000 1 1.000000 1 -3.000000
182 2 -136.350000 -581.055000 538.203000 1 1.000000 1 -3.000000
183 2 -129.248000 -574.231000 537.707000 1 1.000000 8 -3.000000
184 1 -151.078000 -540.914000 512.400000 1 1.000000 8 0.000000
185 3 -177.528000 -559.939000 525.280000 1 1.000000 8 0.000000
186 2 -189.293000 -518.046000 496.805000 1 1.000000 8 -3.000000
187 2 -195.503000 -524.246000 501.499000 1 1.000000 1 -3.000000
188 2 -202.470000 -529.111000 506.589000 1 1.000000 1 -3.000000
189 2 -210.404000 -532.438000 511.502000 1 1.000000 1 -3.000000
190 2 -216.190000 -538.742000 516.522000 1 1.000000 1 -3.000000
191 2 -219.950000 -546.140000 521.913000 1 1.000000 1 -3.000000
192 2 -224.961000 -554.594000 523.359000 1 1.000000 1 -3.000000
193 2 -228.727000 -563.610000 525.191000 1 1.000000 1 -3.000000
194 2 -232.921000 -572.191000 527.944000 1 1.000000 1 -3.000000
195 2 -238.224000 -580.576000 528.237000 1 1.000000 1 -3.000000
196 2 -243.214000 -588.606000 525.530000 1 1.000000 1 -3.000000
197 2 -249.810000 -595.691000 523.282000 1 1.000000 1 -3.000000
198 2 -256.071000 -602.915000 520.653000 1 1.000000 1 -3.000000
199 2 -262.338000 -609.903000 517.548000 1 1.000000 1 -3.000000
200 2 -269.036000 -617.046000 516.129000 1 1.000000 1 -3.000000
201 2 -274.955000 -624.948000 516.112000 1 1.000000 1 -3.000000
202 2 -282.146000 -631.773000 515.799000 1 1.000000 1 -3.000000
203 2 -287.832000 -639.814000 515.881000 1 1.000000 1 -3.000000
204 2 -293.442000 -647.924000 517.306000 1 1.000000 1 -3.000000
205 2 -298.860000 -655.618000 514.531000 1 1.000000 1 -3.000000
206 2 -302.513000 -664.159000 511.299000 1 1.000000 1 -3.000000
207 2 -305.997000 -671.855000 506.140000 1 1.000000 1 -3.000000
208 2 -309.587000 -678.830000 499.986000 1 1.000000 1 -3.000000
209 2 -313.064000 -685.097000 493.087000 1 1.000000 1 -3.000000
210 2 -317.302000 -690.577000 486.089000 1 1.000000 9 -3.000000
211 1 -348.948000 -662.864000 464.748000 1 1.000000 9 0.000000
212 3 -331.554000 -640.696000 485.598000 1 1.000000 9 0.000000
213 2 -372.207000 -622.179000 458.953000 1 1.000000 9 -3.000000
214 2 -365.228000 -616.691000 463.228000 1 1.000000 1 -3.000000
215 2 -358.733000 -610.399000 467.323000 1 1.000000 1 -3.000000
216 2 -353.290000 -604.328000 472.966000 1 1.000000 1 -3.000000
217 2 -347.176000 -599.443000 479.045000 1 1.000000 1 -3.000000
218 2 -340.930000 -594.163000 484.591000 1 1.000000 1 -3.000000
219 2 -336.314000 -587.258000 490.055000 1 1.000000 1 -3.000000
220 2 -332.259000 -579.464000 494.584000 1 1.000000 1 -3.000000
221 2 -329.124000 -571.463000 499.581000 1 1.000000 1 -3.000000
222 2 -326.466000 -563.859000 505.402000 1 1.000000 1 -3.000000
223 2 -328.365000 -555.399000 510.191000 1 1.000000 1 -3.000000
224 2 -329.482000 -546.644000 514.745000 1 1.000000 1 -3.000000
225 2 -329.843000 -537.593000 518.598000 1 1.000000 1 -3.000000
226 2 -332.599000 -528.677000 522.136000 1 1.000000 1 -3.000000
227 2 -334.974000 -519.849000 526.015000 1 1.000000 1 -3.000000
228 2 -338.227000 -511.002000 529.255000 1 1.000000 1 -3.000000
229 2 -339.447000 -501.969000 533.180000 1 1.000000 1 -3.000000
230 2 -340.495000 -492.415000 535.633000 1 1.000000 1 -3.000000
231 2 -343.244000 -482.840000 536.158000 1 1.000000 1 -3.000000
232 2 -346.091000 -473.470000 537.651000 1 1.000000 1 -3.000000
233 2 -348.633000 -464.048000 539.068000 1 1.000000 1 -3.000000
234 2 -354.602000 -456.755000 542.016000 1 1.000000 1 -3.000000
235 2 -360.479000 -449.862000 546.104000 1 1.000000 1 -3.000000
236 2 -363.672000 -441.304000 550.054000 1 1.000000 1 -3.000000
237 2 -368.691000 -434.544000 555.159000 1 1.000000 10 -3.000000
238 1 -402.519000 -464.102000 569.580000 1 1.000000 10 0.000000
239 3 -374.568000 -484.970000 566.215000 1 1.000000 10 0.000000
240 2 -419.223000 -506.676000 581.246000 1 1.000000 10 -3.000000
241 2 -410.830000 -511.933000 581.609000 1 1.000000 1 -3.000000
242 2 -402.319000 -515.526000 585.119000 1 1.000000 1 -3.000000
243 2 -393.847000 -519.478000 588.316000 1 1.000000 1 -3.000000
244 2 -384.782000 -521.937000 591.192000 1 1.000000 1 -3.000000
245 2 -374.970000 -521.914000 592.371000 1 1.000000 1 -3.000000
246 2 -365.199000 -520.188000 591.778000 1 1.000000 1 -3.000000
247 2 -356.300000 -516.036000 593.026000 1 1.000000 1 -3.000000
248 2 -347.244000 -512.101000 592.862000 1 1.000000 1 -3.000000
249 2 -338.085000 -508.336000 593.412000 1 1.000000 1 -3.000000
250 2 -329.405000 -503.647000 593.703000 1 1.000000 1 -3.000000
251 2 -320.266000 -499.915000 594.356000 1 1.000000 1 -3.000000
252 2 -311.167000 -496.163000 593.444000 1 1.000000 1 -3.000000
253 2 -301.649000 -494.936000 595.473000 1 1.000000 1 -3.000000
254 2 -292.170000 -493.744000 598.170000 1 1.000000 1 -3.000000
255 2 -283.151000 -490.780000 601.009000 1 1.000000 1 -3.000000
256 2 -275.151000 -486.121000 604.527000 1 1.000000 1 -3.000000
257 2 -266.593000 -482.365000 607.809000 1 1.000000 1 -3.000000
258 2 -259.299000 -477.874000 612.806000 1 1.000000 1 -3.000000
259 2 -251.505000 -473.624000 617.207000 1 1.000000 1 -3.000000
260 2 -243.382000 -470.807000 622.078000 1 1.000000 1 -3.000000
261 2 -235.279000 -467.702000 626.834000 1 1.000000 1 -3.000000
262 2 -226.472000 -464.837000 630.521000 1 1.000000 1 -3.000000
263 2 -217.436000 -463.460000 634.470000 1 1.000000 1 -3.000000
264 2 -208.352000 -463.953000 638.530000 1 1.000000 11 -3.000000
265 1 -186.325000 -494.560000 610.210000 1 1.000000 11 0.000000
266 3 -216.095000 -487.941000 593.193000 1 1.000000 11 0.000000
267 2 -182.539000 -520.834000 571.192000 1 1.000000 11 -3.000000
268 2 -188.873000 -514.619000 566.865000 1 1.000000 1 -3.000000
269 2 -192.553000 -507.257000 561.297000 1 1.000000 1 -3.000000
270 2 -197.143000 -500.063000 556.114000 1 1.000000 1 -3.000000
271 2 -203.167000 -493.599000 551.671000 1 1.000000 1 -3.000000
272 2 -208.556000 -487.384000 546.131000 1 1.000000 1 -3.000000
273 2 -213.500000 -479.777000 542.174000 1 1.000000 1 -3.000000
274 2 -218.806000 -472.346000 538.312000 1 1.000000 1 -3.000000
275 2 -223.225000 -465.056000 533.327000 1 1.000000 1 -3.000000
276 2 -228.203000 -457.305000 529.680000 1 1.000000 1 -3.000000
277 2 -233.570000 -449.250000 527.405000 1 1.000000 1 -3.000000
278 2 -238.456000 -440.609000 526.875000 1 1.000000 1 -3.000000
279 2 -243.091000 -431.894000 526.063000 1 1.000000 1 -3.000000
280 2 -250.040000 -424.856000 525.659000 1 1.000000 1 -3.000000
281 2 -255.950000 -417.172000 523.858000 1 1.000000 1 -3.000000
282 2 -262.907000 -410.523000 521.618000 1 1.000000 1 -3.000000
283 2 -270.151000 -403.979000 523.386000 1 1.000000 1 -3.000000
284 2 -277.252000 -397.522000 525.585000 1 1.000000 1 -3.000000
285 2 -285.883000 -392.758000 525.417000 1 1.000000 1 -3.000000
286 2 -294.822000 -388.758000 523.803000 1 1.000000 1 -3.000000
287 2 -303.275000 -383.774000 523.363000 1 1.000000 1 -3.000000
288 2 -309.139000 -375.955000 521.763000 1 1.000000 1 -3.000000
289 2 -313.981000 -367.412000 522.570000 1 1.000000 1 -3.000000
290 2 -318.521000 -358.849000 524.442000 1 1.000000 1 -3.000000
291 2 -325.156000 -351.516000 525.631000 1 1.000000 12 -3.000000
292 1 -296.223000 -326.515000 553.278000 1 1.000000 12 0.000000
293 3 -275.924000 -352.872000 542.452000 1 1.000000 12 0.000000
294 2 -255.055000 -318.324000 574.905000 1 1.000000 12 -3.000000
295 2 -249.052000 -321.711000 567.797000 1 1.000000 1 -3.000000
296 2 -243.115000 -326.493000 561.486000 1 1.000000 1 -3.000000
297 2 -238.079000 -332.354000 555.286000 1 1.000000 1 -3.000000
298 2 -234.517000 -339.845000 549.943000 1 1.000000 1 -3.000000
299 2 -232.641000 -347.400000 543.681000 1 1.000000 1 -3.000000
300 2 -231.001000 -355.239000 537.825000 1 1.000000 1 -3.000000
301 2 -229.860000 -362.824000 531.516000 1 1.000000 1 -3.000000
302 2 -229.234000 -368.740000 523.649000 1 1.000000 1 -3.000000
303 2 -227.347000 -374.425000 515.729000 1 1.000000 1 -3.000000
304 2 -225.562000 -382.240000 509.792000 1 1.000000 1 -3.000000
305 2 -223.644000 -389.260000 503.058000 1 1.000000 1 -3.000000
306 2 -220.314000 -395.509000 496.168000 1 1.000000 1 -3.000000
307 2 -217.727000 -402.178000 489.378000 1 1.000000 1 -3.000000
308 2 -215.844000 -409.040000 482.439000 1 1.000000 1 -3.000000
309 2 -212.996000 -416.314000 476.344000 1 1.000000 1 -3.000000
310 2 -210.574000 -423.459000 469.945000 1 1.000000 1 -3.000000
311 2 -206.475000 -428.667000 462.585000 1 1.000000 1 -3.000000
312 2 -203.247000 -435.529000 456.179000 1 1.000000 1 -3.000000
313 2 -199.642000 -443.038000 450.703000 1 1.000000 1 -3.000000
314 2 -196.829000 -450.740000 445.175000 1 1.000000 1 -3.000000
315 2 -195.387000 -456.889000 437.618000 1 1.000000 1 -3.000000
316 2 -194.011000 -460.435000 428.540000 1 1.000000 1 -3.000000
317 2 -191.885000 -464.354000 419.678000 1 1.000000 1 -3.000000
318 2 -190.741000 -470.461000 411.907000 1 1.000000 13 -3.000000
319 1 -227.653000 -452.435000 388.817000 1 1.000000 13 0.000000
320 3 -223.639000 -430.643000 415.907000 1 1.000000 13 0.000000
321 2 -263.224000 -421.892000 383.338000 1 1.000000 13 -3.000000
322 2 -262.218000 -416.101000 391.373000 1 1.000000 1 -3.000000
323 2 -259.292000 -409.255000 397.932000 1 1.000000 1 -3.000000
324 2 -254.471000 -402.099000 402.788000 1 1.000000 1 -3.000000
325 2 -247.933000 -395.019000 405.240000 1 1.000000 1 -3.000000
326 2 -240.805000 -389.166000 408.628000 1 1.000000 1 -3.000000
327 2 -232.204000 -385.879000 412.306000 1 1.000000 1 -3.000000
328 2 -225.252000 -383.323000 418.898000 1 1.000000 1 -3.000000
329 2 -220.287000 -380.052000 426.807000 1 1.000000 1 -3.000000
330 2 -216.860000 -375.008000 434.615000 1 1.000000 1 -3.000000
331 2 -213.318000 -369.246000 441.950000 1 1.000000 1 -3.000000
332 2 -210.425000 -363.710000 449.695000 1 1.000000 1 -3.000000
333 2 -206.752000 -360.146000 458.134000 1 1.000000 1 -3.000000
334 2 -201.196000 -357.203000 465.646000 1 1.000000 1 -3.000000
335 2 -195.205000 -353.257000 472.580000 1 1.000000 1 -3.000000
336 2 -190.981000 -347.655000 479.593000 1 1.000000 1 -3.000000
337 2 -187.693000 -342.628000 487.443000 1 1.000000 1 -3.000000
338 2 -185.270000 -336.333000 494.663000 1 1.000000 1 -3.000000
339 2 -183.156000 -328.889000 500.777000 1 1.000000 1 -3.000000
340 2 -179.531000 -322.057000 506.924000 1 1.000000 1 -3.000000
341 2 -176.242000 -314.826000 512.779000 1 1.000000 1 -3.000000
342 2 -171.017000 -307.724000 517.190000 1 1.000000 1 -3.000000
343 2 -164.043000 -301.633000 520.705000 1 1.000000 1 -3.000000
344 2 -157.100000 -296.306000 525.391000 1 1.000000 1 -3.000000
345 2 -150.228000 -291.690000 530.866000 1 1.000000 14 -3.000000
346 1 -113.667000 -318.458000 517.536000 1 1.000000 14 0.000000
347 3 -138.601000 -326.826000 494.540000 1 1.000000 14 0.000000
348 2 -92.369000 -349.954000 489.589000 1 1.000000 14 -3.000000
349 2 -97.862800 -348.809000 481.483000 1 1.000000 1 -3.000000
350 2 -103.197000 -347.198000 473.437000 1 1.000000 1 -3.000000
351 2 -109.550000 -347.550000 465.956000 1 1.000000 1 -3.000000
352 2 -117.524000 -346.111000 460.213000 1 1.000000 1 -3.000000
353 2 -126.205000 -344.749000 455.486000 1 1.000000 1 -3.000000
354 2 -134.928000 -340.468000 453.338000 1 1.000000 1 -3.000000
355 2 -143.421000 -335.557000 451.644000 1 1.000000 1 -3.000000
356 2 -151.426000 -330.110000 449.425000 1 1.000000 1 -3.000000
357 2 -159.633000 -324.657000 448.089000 1 1.000000 1 -3.000000
358 2 -167.367000 -318.643000 448.200000 1 1.000000 1 -3.000000
359 2 -175.983000 -313.858000 447.341000 1 1.000000 1 -3.000000
360 2 -184.690000 -309.657000 445.048000 1 1.000000 1 -3.000000
361 2 -193.526000 -305.492000 443.833000 1 1.000000 1 -3.000000
362 2 -202.517000 -301.521000 443.003000 1 1.000000 1 -3.000000
363 2 -210.515000 -296.345000 440.076000 1 1.000000 1 -3.000000
364 2 -218.256000 -291.312000 436.600000 1 1.000000 1 -3.000000
365 2 -224.101000 -283.547000 434.712000 1 1.000000 1 -3.000000
366 2 -230.662000 -276.543000 431.955000 1 1.000000 1 -3.000000
367 2 -236.923000 -268.962000 431.116000 1 1.000000 1 -3.000000
368 2 -244.147000 -262.181000 430.880000 1 1.000000 1 -3.000000
369 2 -252.616000 -257.157000 432.300000 1 1.000000 1 -3.000000
370 2 -261.540000 -254.493000 435.604000 1 1.000000 1 -3.000000
371 2 -270.204000 -251.868000 439.550000 1 1.000000 1 -3.000000
372 2 -278.519000 -248.911000 444.214000 1 1.000000 15 -3.000000
373 1 -276.011000 -268.186000 487.164000 1 1.000000 15 0.000000
374 3 -243.259000 -271.078000 475.194000 1 1.000000 15 0.000000
375 2 -253.152000 -288.516000 523.105000 1 1.000000 15 -3.000000
376 2 -243.716000 -287.797000 520.200000 1 1.000000 1 -3.000000
377 2 -234.407000 -285.164000 517.929000 1 1.000000 1 -3.000000
378 2 -225.304000 -283.255000 514.634000 1 1.000000 1 -3.000000
379 2 -217.434000 -281.463000 508.808000 1 1.000000 1 -3.000000
380 2 -209.475000 -279.514000 503.259000 1 1.000000 1 -3.000000
381 2 -202.938000 -276.046000 496.670000 1 1.000000 1 -3.000000
382 2 -198.970000 -272.027000 488.452000 1 1.000000 1 -3.000000
383 2 -196.442000 -267.978000 479.847000 1 1.000000 1 -3.000000
384 2 -194.887000 -262.099000 472.087000 1 1.000000 1 -3.000000
385 2 -193.249000 -256.073000 464.370000 1 1.000000 1 -3.000000
386 2 -188.599000 -249.710000 458.322000 1 1.000000 1 -3.000000
387 2 -183.326000 -243.376000 452.799000 1 1.000000 1 -3.000000
388 2 -177.447000 -238.231000 446.731000 1 1.000000 1 -3.000000
389 2 -172.577000 -232.728000 440.079000 1 1.000000 1 -3.000000
390 2 -166.922000 -227.040000 434.329000 1 1.000000 1 -3.000000
391 2 -160.986000 -220.712000 429.645000 1 1.000000 1 -3.000000
392 2 -157.459000 -212.964000 424.699000 1 1.000000 1 -3.000000
393 2 -154.423000 -204.037000 421.693000 1 1.000000 1 -3.000000
394 2 -152.930000 -195.025000 418.048000 1 1.000000 1 -3.000000
395 2 -150.930000 -186.281000 413.940000 1 1.000000 1 -3.000000
396 2 -147.213000 -177.818000 410.294000 1 1.000000 1 -3.000000
397 2 -142.015000 -169.564000 409.233000 1 1.000000 1 -3.000000
398 2 -136.683000 -161.289000 410.686000 1 1.000000 1 -3.000000
399 2 -131.557000 -152.853000 411.571000 1 1.000000 16 -3.000000
400 1 -121.330000 -152.924000 457.641000 1 1.000000 16 0.000000
401 3 -122.365000 -186.932000 449.542000 1 1.000000 16 0.000000
402 2 -109.452000 -173.995000 498.161000 1 1.000000 16 -3.000000
403 2 -107.667000 -183.182000 495.302000 1 1.000000 1 -3.000000
404 2 -106.141000 -192.773000 493.031000 1 1.000000 1 -3.000000
405 2 -104.574000 -201.395000 488.624000 1 1.000000 1 -3.000000
406 2 -102.576000 -210.336000 484.653000 1 1.000000 1 -3.000000
407 2 -101.842000 -217.103000 477.411000 1 1.000000 1 -3.000000
408 2 -102.239000 -222.092000 468.844000 1 1.000000 1 -3.000000
409 2 -104.953000 -226.041000 460.183000 1 1.000000 1 -3.000000
410 2 -107.027000 -228.012000 450.788000 1 1.000000 1 -3.000000
411 2 -108.373000 -229.286000 441.122000 1 1.000000 1 -3.000000
412 2 -105.898000 -230.201000 431.549000 1 1.000000 1 -3.000000
413 2 -102.317000 -229.415000 422.336000 1 1.000000 1 -3.000000
414 2 -98.339200 -229.699000 413.252000 1 1.000000 1 -3.000000
415 2 -93.451100 -227.941000 404.819000 1 1.000000 1 -3.000000
416 2 -88.612000 -225.793000 396.486000 1 1.000000 1 -3.000000
417 2 -84.948500 -224.040000 387.482000 1 1.000000 1 -3.000000
418 2 -81.166500 -219.994000 379.343000 1 1.000000 1 -3.000000
419 2 -76.377000 -213.827000 373.172000 1 1.000000 1 -3.000000
420 2 -71.046600 -206.405000 369.413000 1 1.000000 1 -3.000000
421 2 -65.361300 -199.107000 365.743000 1 1.000000 1 -3.000000
422 2 -57.287400 -193.629000 363.994000 1 1.000000 1 -3.000000
423 2 -48.632400 -189.160000 362.202000 1 1.000000 1 -3.000000
424 2 -39.038400 -186.808000 363.195000 1 1.000000 1 -3.000000
425 2 -29.731700 -183.520000 364.095000 1 1.000000 1 -3.000000
426 2 -20.306800 -180.603000 363.850000 1 1.000000 17 -3.000000
427 1 -1.388800 -219.990000 381.642000 1 1.000000 17 0.000000
428 3 -31.605700 -231.182000 367.726000 1 1.000000 17 0.000000
429 2 -1.337240 -266.118000 391.480000 1 1.000000 17 -3.000000
430 2 -8.792980 -269.036000 385.607000 1 1.000000 1 -3.000000
431 2 -14.443000 -272.752000 378.393000 1 1.000000 1 -3.000000
432 2 -20.591900 -275.296000 370.980000 1 1.000000 1 -3.000000
433 2 -27.032400 -276.650000 363.599000 1 1.000000 1 -3.000000
434 2 -33.293900 -276.004000 355.980000 1 1.000000 1 -3.000000
435 2 -37.040800 -274.683000 346.931000 1 1.000000 1 -3.000000
436 2 -40.028700 -272.933000 337.557000 1 1.000000 1 -3.000000
437 2 -43.382800 -271.816000 328.306000 1 1.000000 1 -3.000000
438 2 -45.878800 -270.689000 318.910000 1 1.000000 1 -3.000000
439 2 -49.871000 -269.100000 309.939000 1 1.000000 1 -3.000000
440 2 -52.526700 -268.317000 300.465000 1 1.000000 1 -3.000000
441 2 -52.985800 -267.522000 290.572000 1 1.000000 1 -3.000000
442 2 -52.381600 -266.273000 280.799000 1 1.000000 1 -3.000000
443 2 -49.724200 -265.639000 271.285000 1 1.000000 1 -3.000000
444 2 -46.742000 -261.400000 262.863000 1 1.000000 1 -3.000000
445 2 -43.290600 -255.745000 255.538000 1 1.000000 1 -3.000000
446 2 -40.038800 -251.965000 247.061000 1 1.000000 1 -3.000000
447 2 -35.746300 -247.705000 239.150000 1 1.000000 1 -3.000000
448 2 -31.655200 -242.271000 231.948000 1 1.000000 1 -3.000000
449 2 -26.971600 -236.634000 225.248000 1 1.000000 1 -3.000000
450 2 -19.386100 -233.710000 219.652000 1 1.000000 1 -3.000000
451 2 -11.020900 -231.763000 214.718000 1 1.000000 1 -3.000000
452 2 -2.861500 -232.033000 209.033000 1 1.000000 1 -3.000000
453 2 5.236100 -232.442000 203.335000 1 1.000000 18 -3.000000
454 1 20.906800 -276.953000 204.371000 1 1.000000 18 0.000000
455 3 -12.085200 -279.770000 215.640000 1 1.000000 18 0.000000
456 2 15.331600 -323.485000 209.611000 1 1.000000 18 -3.000000
457 2 5.603500 -322.255000 211.331000 1 1.000000 1 -3.000000
458 2 -4.311430 -323.789000 211.301000 1 1.000000 1 -3.000000
459 2 -13.996900 -322.764000 209.810000 1 1.000000 1 -3.000000
460 2 -23.788100 -321.258000 208.796000 1 1.000000 1 -3.000000
461 2 -32.888300 -317.803000 207.004000 1 1.000000 1 -3.000000
462 2 -40.772200 -312.430000 204.349000 1 1.000000 1 -3.000000
463 2 -48.512700 -308.550000 199.516000 1 1.000000 1 -3.000000
464 2 -54.716500 -302.889000 194.385000 1 1.000000 1 -3.000000
465 2 -60.143400 -296.803000 188.783000 1 1.000000 1 -3.000000
466 2 -65.616200 -290.159000 183.710000 1 1.000000 1 -3.000000