LAMMPS data file

4067 atoms
4067 ellipsoids
4516 bonds
8882 angles
0 dihedrals

3 atom types
5 bond types
12 angle types
0 dihedral types

-4631.092947 4670.465898 xlo xhi
-4631.092947 4670.465898 ylo yhi
-4631.092947 4670.465898 zlo zhi

Masses

1 196016.000000
2 1950.000000
3 19500.000000

Atoms

1 2 -321.484000 -182.728000 204.489000 1 1.000000 1 -3.000000
2 2 -320.961000 -173.766000 208.823000 1 1.000000 1 -3.000000
3 2 -321.570000 -165.448000 214.150000 1 1.000000 1 -3.000000
4 2 -323.593000 -157.871000 220.210000 1 1.000000 1 -3.000000
5 2 -325.176000 -149.842000 225.818000 1 1.000000 1 -3.000000
6 2 -326.140000 -141.399000 230.950000 1 1.000000 1 -3.000000
7 2 -325.802000 -133.129000 236.410000 1 1.000000 1 -3.000000
8 2 -324.141000 -124.974000 241.886000 1 1.000000 1 -3.000000
9 2 -323.509000 -116.089000 246.146000 1 1.000000 1 -3.000000
10 2 -320.879000 -108.138000 251.364000 1 1.000000 1 -3.000000
11 2 -317.413000 -101.458000 257.731000 1 1.000000 1 -3.000000
12 2 -315.237000 -93.437700 263.106000 1 1.000000 1 -3.000000
13 2 -313.121000 -86.775700 270.078000 1 1.000000 1 -3.000000
14 2 -310.613000 -78.758200 275.340000 1 1.000000 1 -3.000000
15 2 -307.587000 -70.418900 279.786000 1 1.000000 1 -3.000000
16 2 -307.565000 -61.026400 282.884000 1 1.000000 1 -3.000000
17 2 -306.007000 -52.153300 286.841000 1 1.000000 1 -3.000000
18 2 -306.229000 -42.682100 289.422000 1 1.000000 1 -3.000000
19 2 -306.657000 -32.906600 290.559000 1 1.000000 1 -3.000000
20 2 -304.498000 -23.295100 290.958000 1 1.000000 1 -3.000000
21 2 -301.338000 -14.113500 292.860000 1 1.000000 2 -3.000000
22 1 -315.555000 -1.664770 336.060000 1 1.000000 2 0.000000
23 3 -323.162000 -35.763200 334.758000 1 1.000000 2 0.000000
24 2 -335.574000 -9.903710 377.934000 1 1.000000 2 -3.000000
25 2 -331.990000 -19.130700 377.869000 1 1.000000 1 -3.000000
26 2 -327.622000 -27.929800 378.724000 1 1.000000 1 -3.000000
27 2 -324.335000 -37.170200 379.571000 1 1.000000 1 -3.000000
28 2 -323.354000 -47.012600 378.729000 1 1.000000 1 -3.000000
29 2 -324.548000 -56.254100 375.242000 1 1.000000 1 -3.000000
30 2 -326.429000 -64.184400 369.753000 1 1.000000 1 -3.000000
31 2 -327.613000 -71.368500 363.168000 1 1.000000 1 -3.000000
32 2 -328.274000 -78.048800 355.941000 1 1.000000 1 -3.000000
33 2 -328.129000 -85.598700 349.470000 1 1.000000 1 -3.000000
34 2 -326.440000 -94.515100 345.631000 1 1.000000 1 -3.000000
35 2 -325.666000 -103.971000 342.599000 1 1.000000 1 -3.000000
36 2 -325.692000 -113.536000 339.990000 1 1.000000 1 -3.000000
37 2 -325.247000 -122.972000 336.822000 1 1.000000 1 -3.000000
38 2 -325.219000 -132.476000 334.010000 1 1.000000 1 -3.000000
39 2 -328.052000 -141.973000 333.412000 1 1.000000 1 -3.000000
40 2 -332.992000 -150.401000 332.117000 1 1.000000 1 -3.000000
41 2 -339.097000 -158.136000 330.770000 1 1.000000 1 -3.000000
42 2 -344.678000 -166.245000 331.370000 1 1.000000 1 -3.000000
43 2 -347.090000 -175.720000 329.891000 1 1.000000 1 -3.000000
44 2 -348.966000 -185.230000 327.824000 1 1.000000 1 -3.000000
45 2 -349.386000 -195.102000 326.915000 1 1.000000 1 -3.000000
46 2 -349.349000 -205.002000 327.464000 1 1.000000 1 -3.000000
47 2 -346.756000 -214.569000 326.754000 1 1.000000 1 -3.000000
48 2 -344.084000 -223.566000 323.467000 1 1.000000 3 -3.000000
49 1 -297.307000 -222.223000 329.180000 1 1.000000 3 0.000000
50 3 -307.428000 -190.096000 338.406000 1 1.000000 3 0.000000
51 2 -256.769000 -201.186000 340.980000 1 1.000000 3 -3.000000
52 2 -259.716000 -193.067000 345.695000 1 1.000000 1 -3.000000
53 2 -262.340000 -184.189000 349.247000 1 1.000000 1 -3.000000
54 2 -266.137000 -175.444000 351.791000 1 1.000000 1 -3.000000
55 2 -271.292000 -167.171000 353.299000 1 1.000000 1 -3.000000
56 2 -277.059000 -159.437000 351.229000 1 1.000000 1 -3.000000
57 2 -282.150000 -151.479000 348.198000 1 1.000000 1 -3.000000
58 2 -285.764000 -143.264000 343.961000 1 1.000000 1 -3.000000
59 2 -290.076000 -135.041000 340.489000 1 1.000000 1 -3.000000
60 2 -293.273000 -126.196000 337.210000 1 1.000000 1 -3.000000
61 2 -296.848000 -117.692000 333.732000 1 1.000000 1 -3.000000
62 2 -299.226000 -109.187000 329.400000 1 1.000000 1 -3.000000
63 2 -303.116000 -100.961000 325.600000 1 1.000000 1 -3.000000
64 2 -305.951000 -92.916600 320.566000 1 1.000000 1 -3.000000
65 2 -309.976000 -84.616200 316.953000 1 1.000000 1 -3.000000
66 2 -311.802000 -75.989100 312.579000 1 1.000000 1 -3.000000
67 2 -314.851000 -68.475000 306.903000 1 1.000000 1 -3.000000
68 2 -318.553000 -61.567200 300.775000 1 1.000000 1 -3.000000
69 2 -324.719000 -55.055900 296.480000 1 1.000000 1 -3.000000
70 2 -331.383000 -48.144400 293.997000 1 1.000000 1 -3.000000
71 2 -337.185000 -40.191100 293.698000 1 1.000000 1 -3.000000
72 2 -343.043000 -32.231200 293.514000 1 1.000000 1 -3.000000
73 2 -347.153000 -23.547900 295.875000 1 1.000000 1 -3.000000
74 2 -353.470000 -16.256000 298.358000 1 1.000000 1 -3.000000
75 2 -359.413000 -9.165410 302.015000 1 1.000000 4 -3.000000
76 1 -383.263000 -34.216600 334.122000 1 1.000000 4 0.000000
77 3 -351.989000 -50.017300 333.252000 1 1.000000 4 0.000000
78 2 -388.426000 -69.783400 364.609000 1 1.000000 4 -3.000000
79 2 -378.528000 -70.715500 364.990000 1 1.000000 1 -3.000000
80 2 -369.129000 -70.891700 368.249000 1 1.000000 1 -3.000000
81 2 -360.208000 -69.625500 372.249000 1 1.000000 1 -3.000000
82 2 -351.824000 -67.615100 376.968000 1 1.000000 1 -3.000000
83 2 -346.145000 -64.792400 384.611000 1 1.000000 1 -3.000000
84 2 -342.463000 -63.549000 393.701000 1 1.000000 1 -3.000000
85 2 -338.574000 -60.098700 402.182000 1 1.000000 1 -3.000000
86 2 -334.762000 -56.933800 410.679000 1 1.000000 1 -3.000000
87 2 -334.149000 -54.792700 420.339000 1 1.000000 1 -3.000000
88 2 -332.368000 -52.852300 429.886000 1 1.000000 1 -3.000000
89 2 -332.711000 -51.363100 439.711000 1 1.000000 1 -3.000000
90 2 -334.143000 -50.799000 449.440000 1 1.000000 1 -3.000000
91 2 -334.304000 -48.448400 459.125000 1 1.000000 1 -3.000000
92 2 -334.015000 -44.438900 468.264000 1 1.000000 1 -3.000000
93 2 -334.246000 -40.300800 477.249000 1 1.000000 1 -3.000000
94 2 -334.515000 -35.454500 485.839000 1 1.000000 1 -3.000000
95 2 -333.464000 -28.478200 492.817000 1 1.000000 1 -3.000000
96 2 -334.048000 -22.509800 500.679000 1 1.000000 1 -3.000000
97 2 -335.501000 -19.331400 509.922000 1 1.000000 1 -3.000000
98 2 -339.871000 -16.922200 518.434000 1 1.000000 1 -3.000000
99 2 -345.567000 -13.914800 526.030000 1 1.000000 1 -3.000000
100 2 -351.506000 -11.792000 533.700000 1 1.000000 1 -3.000000
101 2 -359.524000 -10.471600 539.446000 1 1.000000 1 -3.000000
102 2 -367.231000 -10.669100 545.761000 1 1.000000 5 -3.000000
103 1 -403.768000 -25.769100 519.991000 1 1.000000 5 0.000000
104 3 -376.038000 -36.665100 501.730000 1 1.000000 5 0.000000
105 2 -423.067000 -44.154500 481.059000 1 1.000000 5 -3.000000
106 2 -414.669000 -49.322200 479.492000 1 1.000000 1 -3.000000
107 2 -407.450000 -55.978300 477.863000 1 1.000000 1 -3.000000
108 2 -400.197000 -62.791700 477.824000 1 1.000000 1 -3.000000
109 2 -392.580000 -69.024500 477.571000 1 1.000000 1 -3.000000
110 2 -384.224000 -74.339200 477.983000 1 1.000000 1 -3.000000
111 2 -374.903000 -77.548700 476.607000 1 1.000000 1 -3.000000
112 2 -365.689000 -81.080700 476.134000 1 1.000000 1 -3.000000
113 2 -356.361000 -83.815800 474.663000 1 1.000000 1 -3.000000
114 2 -347.112000 -86.675900 472.555000 1 1.000000 1 -3.000000
115 2 -338.975000 -89.325900 467.639000 1 1.000000 1 -3.000000
116 2 -331.261000 -90.138500 461.453000 1 1.000000 1 -3.000000
117 2 -325.731000 -90.165900 453.242000 1 1.000000 1 -3.000000
118 2 -320.065000 -88.495600 445.170000 1 1.000000 1 -3.000000
119 2 -315.716000 -85.403300 436.785000 1 1.000000 1 -3.000000
120 2 -310.280000 -79.079200 431.326000 1 1.000000 1 -3.000000
121 2 -307.123000 -71.451100 425.838000 1 1.000000 1 -3.000000
122 2 -305.994000 -62.617800 421.573000 1 1.000000 1 -3.000000
123 2 -307.491000 -54.173400 416.591000 1 1.000000 1 -3.000000
124 2 -310.146000 -44.720300 415.877000 1 1.000000 1 -3.000000
125 2 -314.355000 -35.743300 416.279000 1 1.000000 1 -3.000000
126 2 -319.075000 -27.285800 418.132000 1 1.000000 1 -3.000000
127 2 -326.517000 -21.159600 420.815000 1 1.000000 1 -3.000000
128 2 -334.109000 -14.786900 421.045000 1 1.000000 1 -3.000000
129 2 -340.113000 -7.051610 422.021000 1 1.000000 6 -3.000000
130 1 -375.664000 -35.967000 433.392000 1 1.000000 6 0.000000
131 3 -347.282000 -55.350100 439.840000 1 1.000000 6 0.000000
132 2 -393.461000 -75.411700 452.240000 1 1.000000 6 -3.000000
133 2 -387.710000 -83.065600 449.586000 1 1.000000 1 -3.000000
134 2 -382.426000 -90.586300 445.871000 1 1.000000 1 -3.000000
135 2 -376.997000 -98.427900 443.175000 1 1.000000 1 -3.000000
136 2 -370.210000 -104.650000 439.428000 1 1.000000 1 -3.000000
137 2 -364.192000 -110.831000 434.505000 1 1.000000 1 -3.000000
138 2 -357.419000 -116.883000 430.618000 1 1.000000 1 -3.000000
139 2 -349.930000 -121.936000 426.588000 1 1.000000 1 -3.000000
140 2 -343.281000 -127.973000 422.363000 1 1.000000 1 -3.000000
141 2 -336.900000 -133.262000 417.009000 1 1.000000 1 -3.000000
142 2 -330.175000 -137.516000 411.115000 1 1.000000 1 -3.000000
143 2 -323.698000 -140.915000 404.362000 1 1.000000 1 -3.000000
144 2 -316.544000 -144.353000 398.358000 1 1.000000 1 -3.000000
145 2 -308.918000 -145.761000 392.182000 1 1.000000 1 -3.000000
146 2 -301.924000 -147.509000 385.434000 1 1.000000 1 -3.000000
147 2 -293.993000 -150.008000 380.042000 1 1.000000 1 -3.000000
148 2 -285.955000 -151.705000 374.556000 1 1.000000 1 -3.000000
149 2 -278.697000 -151.031000 367.847000 1 1.000000 1 -3.000000
150 2 -271.796000 -149.609000 360.963000 1 1.000000 1 -3.000000
151 2 -267.137000 -147.606000 352.424000 1 1.000000 1 -3.000000
152 2 -265.070000 -146.319000 342.788000 1 1.000000 1 -3.000000
153 2 -262.801000 -144.604000 333.310000 1 1.000000 1 -3.000000
154 2 -260.842000 -139.184000 325.302000 1 1.000000 1 -3.000000
155 2 -259.091000 -133.338000 317.551000 1 1.000000 1 -3.000000
156 2 -256.837000 -126.771000 310.459000 1 1.000000 7 -3.000000
157 1 -214.057000 -144.988000 302.510000 1 1.000000 7 0.000000
158 3 -229.057000 -168.703000 323.407000 1 1.000000 7 0.000000
159 2 -179.913000 -176.977000 308.691000 1 1.000000 7 -3.000000
160 2 -184.802000 -184.182000 313.418000 1 1.000000 1 -3.000000
161 2 -190.353000 -190.492000 318.561000 1 1.000000 1 -3.000000
162 2 -196.907000 -197.833000 319.653000 1 1.000000 1 -3.000000
163 2 -202.109000 -205.924000 321.848000 1 1.000000 1 -3.000000
164 2 -208.139000 -213.185000 324.880000 1 1.000000 1 -3.000000
165 2 -213.432000 -221.314000 326.921000 1 1.000000 1 -3.000000
166 2 -218.446000 -229.781000 328.080000 1 1.000000 1 -3.000000
167 2 -224.568000 -237.210000 330.439000 1 1.000000 1 -3.000000
168 2 -230.737000 -244.643000 332.286000 1 1.000000 1 -3.000000
169 2 -236.412000 -251.133000 337.367000 1 1.000000 1 -3.000000
170 2 -241.585000 -256.639000 343.725000 1 1.000000 1 -3.000000
171 2 -244.174000 -263.512000 350.382000 1 1.000000 1 -3.000000
172 2 -247.258000 -269.444000 357.635000 1 1.000000 1 -3.000000
173 2 -249.338000 -277.273000 363.403000 1 1.000000 1 -3.000000
174 2 -249.431000 -284.992000 369.616000 1 1.000000 1 -3.000000
175 2 -249.975000 -292.054000 376.390000 1 1.000000 1 -3.000000
176 2 -249.295000 -299.069000 383.375000 1 1.000000 1 -3.000000
177 2 -245.611000 -304.301000 391.064000 1 1.000000 1 -3.000000
178 2 -242.822000 -309.254000 399.114000 1 1.000000 1 -3.000000
179 2 -240.131000 -312.874000 407.959000 1 1.000000 1 -3.000000
180 2 -238.068000 -314.754000 417.460000 1 1.000000 1 -3.000000
181 2 -235.585000 -315.645000 427.118000 1 1.000000 1 -3.000000
182 2 -232.397000 -314.395000 436.325000 1 1.000000 1 -3.000000
183 2 -228.287000 -313.566000 445.254000 1 1.000000 8 -3.000000
184 1 -243.754000 -356.900000 455.762000 1 1.000000 8 0.000000
185 3 -247.756000 -355.122000 421.028000 1 1.000000 8 0.000000
186 2 -263.221000 -398.516000 444.977000 1 1.000000 8 -3.000000
187 2 -269.023000 -394.373000 438.055000 1 1.000000 1 -3.000000
188 2 -275.313000 -388.805000 432.836000 1 1.000000 1 -3.000000
189 2 -281.174000 -384.014000 426.433000 1 1.000000 1 -3.000000
190 2 -286.366000 -378.536000 420.156000 1 1.000000 1 -3.000000
191 2 -290.301000 -373.168000 412.830000 1 1.000000 1 -3.000000
192 2 -296.075000 -367.260000 407.371000 1 1.000000 1 -3.000000
193 2 -300.739000 -359.818000 402.786000 1 1.000000 1 -3.000000
194 2 -303.137000 -353.033000 395.967000 1 1.000000 1 -3.000000
195 2 -304.989000 -345.761000 389.408000 1 1.000000 1 -3.000000
196 2 -309.198000 -339.049000 383.504000 1 1.000000 1 -3.000000
197 2 -313.335000 -332.665000 377.100000 1 1.000000 1 -3.000000
198 2 -317.336000 -325.912000 371.259000 1 1.000000 1 -3.000000
199 2 -322.117000 -318.430000 366.946000 1 1.000000 1 -3.000000
200 2 -327.135000 -310.984000 362.834000 1 1.000000 1 -3.000000
201 2 -330.644000 -302.388000 359.398000 1 1.000000 1 -3.000000
202 2 -334.364000 -293.963000 355.794000 1 1.000000 1 -3.000000
203 2 -339.133000 -286.270000 351.854000 1 1.000000 1 -3.000000
204 2 -346.010000 -280.098000 348.401000 1 1.000000 1 -3.000000
205 2 -351.348000 -273.667000 343.139000 1 1.000000 1 -3.000000
206 2 -357.321000 -268.400000 337.281000 1 1.000000 1 -3.000000
207 2 -362.584000 -262.811000 331.103000 1 1.000000 1 -3.000000
208 2 -368.539000 -258.297000 324.579000 1 1.000000 1 -3.000000
209 2 -375.797000 -256.667000 318.069000 1 1.000000 1 -3.000000
210 2 -381.254000 -255.552000 309.962000 1 1.000000 9 -3.000000
211 1 -416.012000 -285.856000 320.032000 1 1.000000 9 0.000000
212 3 -396.388000 -286.217000 349.104000 1 1.000000 9 0.000000
213 2 -439.600000 -315.057000 348.587000 1 1.000000 9 -3.000000
214 2 -434.183000 -313.096000 356.584000 1 1.000000 1 -3.000000
215 2 -428.534000 -311.705000 364.512000 1 1.000000 1 -3.000000
216 2 -422.461000 -310.677000 372.275000 1 1.000000 1 -3.000000
217 2 -416.487000 -309.222000 379.928000 1 1.000000 1 -3.000000
218 2 -409.438000 -305.434000 385.850000 1 1.000000 1 -3.000000
219 2 -402.641000 -300.334000 390.800000 1 1.000000 1 -3.000000
220 2 -395.327000 -296.037000 396.014000 1 1.000000 1 -3.000000
221 2 -388.328000 -291.341000 401.201000 1 1.000000 1 -3.000000
222 2 -383.795000 -284.966000 407.258000 1 1.000000 1 -3.000000
223 2 -381.695000 -277.296000 413.019000 1 1.000000 1 -3.000000
224 2 -381.527000 -269.173000 418.744000 1 1.000000 1 -3.000000
225 2 -382.721000 -262.644000 426.064000 1 1.000000 1 -3.000000
226 2 -386.350000 -256.834000 433.211000 1 1.000000 1 -3.000000
227 2 -389.769000 -252.018000 441.230000 1 1.000000 1 -3.000000
228 2 -391.980000 -246.501000 449.217000 1 1.000000 1 -3.000000
229 2 -397.331000 -244.378000 457.262000 1 1.000000 1 -3.000000
230 2 -401.869000 -243.521000 465.979000 1 1.000000 1 -3.000000
231 2 -407.927000 -243.196000 473.825000 1 1.000000 1 -3.000000
232 2 -413.931000 -239.689000 480.918000 1 1.000000 1 -3.000000
233 2 -419.300000 -234.021000 487.060000 1 1.000000 1 -3.000000
234 2 -425.132000 -228.623000 492.919000 1 1.000000 1 -3.000000
235 2 -431.471000 -221.539000 495.587000 1 1.000000 1 -3.000000
236 2 -437.403000 -214.085000 498.258000 1 1.000000 1 -3.000000
237 2 -443.400000 -207.436000 502.337000 1 1.000000 10 -3.000000
238 1 -412.035000 -173.407000 493.387000 1 1.000000 10 0.000000
239 3 -404.251000 -197.962000 469.672000 1 1.000000 10 0.000000
240 2 -377.047000 -153.664000 468.653000 1 1.000000 10 -3.000000
241 2 -374.361000 -162.472000 464.792000 1 1.000000 1 -3.000000
242 2 -370.249000 -170.756000 461.254000 1 1.000000 1 -3.000000
243 2 -367.379000 -178.808000 456.268000 1 1.000000 1 -3.000000
244 2 -363.372000 -187.091000 452.559000 1 1.000000 1 -3.000000
245 2 -359.373000 -194.691000 447.668000 1 1.000000 1 -3.000000
246 2 -353.289000 -201.689000 444.161000 1 1.000000 1 -3.000000
247 2 -346.702000 -208.062000 440.370000 1 1.000000 1 -3.000000
248 2 -339.809000 -212.747000 435.038000 1 1.000000 1 -3.000000
249 2 -331.390000 -216.873000 431.866000 1 1.000000 1 -3.000000
250 2 -323.272000 -222.390000 430.635000 1 1.000000 1 -3.000000
251 2 -314.264000 -225.996000 428.692000 1 1.000000 1 -3.000000
252 2 -304.579000 -227.790000 427.254000 1 1.000000 1 -3.000000
253 2 -295.172000 -229.315000 424.648000 1 1.000000 1 -3.000000
254 2 -285.715000 -230.386000 422.017000 1 1.000000 1 -3.000000
255 2 -276.692000 -231.299000 418.140000 1 1.000000 1 -3.000000
256 2 -267.425000 -231.497000 414.367000 1 1.000000 1 -3.000000
257 2 -258.282000 -230.833000 410.505000 1 1.000000 1 -3.000000
258 2 -249.849000 -228.826000 405.776000 1 1.000000 1 -3.000000
259 2 -240.247000 -226.688000 404.144000 1 1.000000 1 -3.000000
260 2 -231.616000 -223.848000 400.127000 1 1.000000 1 -3.000000
261 2 -221.869000 -223.104000 398.479000 1 1.000000 1 -3.000000
262 2 -212.000000 -223.167000 397.775000 1 1.000000 1 -3.000000
263 2 -202.710000 -223.941000 394.298000 1 1.000000 1 -3.000000
264 2 -192.907000 -222.761000 393.497000 1 1.000000 11 -3.000000
265 1 -184.642000 -268.837000 399.434000 1 1.000000 11 0.000000
266 3 -219.407000 -267.398000 395.028000 1 1.000000 11 0.000000
267 2 -197.848000 -314.008000 402.628000 1 1.000000 11 -3.000000
268 2 -205.886000 -312.545000 397.085000 1 1.000000 1 -3.000000
269 2 -214.171000 -311.492000 391.738000 1 1.000000 1 -3.000000
270 2 -222.141000 -310.298000 385.994000 1 1.000000 1 -3.000000
271 2 -228.508000 -308.088000 378.712000 1 1.000000 1 -3.000000
272 2 -236.520000 -306.846000 372.870000 1 1.000000 1 -3.000000
273 2 -244.522000 -306.075000 367.179000 1 1.000000 1 -3.000000
274 2 -253.307000 -306.776000 362.550000 1 1.000000 1 -3.000000
275 2 -261.506000 -308.403000 357.351000 1 1.000000 1 -3.000000
276 2 -269.766000 -310.870000 352.487000 1 1.000000 1 -3.000000
277 2 -276.175000 -313.384000 345.330000 1 1.000000 1 -3.000000
278 2 -283.105000 -316.249000 338.846000 1 1.000000 1 -3.000000
279 2 -289.220000 -321.084000 332.702000 1 1.000000 1 -3.000000
280 2 -295.591000 -324.891000 326.154000 1 1.000000 1 -3.000000
281 2 -302.626000 -329.546000 320.882000 1 1.000000 1 -3.000000
282 2 -308.750000 -334.710000 315.102000 1 1.000000 1 -3.000000
283 2 -315.749000 -338.926000 309.501000 1 1.000000 1 -3.000000
284 2 -323.482000 -344.161000 306.150000 1 1.000000 1 -3.000000
285 2 -331.104000 -349.415000 302.493000 1 1.000000 1 -3.000000
286 2 -338.817000 -353.676000 297.963000 1 1.000000 1 -3.000000
287 2 -346.385000 -355.889000 292.030000 1 1.000000 1 -3.000000
288 2 -353.043000 -356.148000 284.749000 1 1.000000 1 -3.000000
289 2 -357.562000 -356.102000 275.966000 1 1.000000 1 -3.000000
290 2 -362.707000 -357.023000 267.504000 1 1.000000 1 -3.000000
291 2 -366.938000 -358.503000 258.703000 1 1.000000 12 -3.000000
292 1 -336.964000 -389.957000 240.303000 1 1.000000 12 0.000000
293 3 -334.963000 -396.192000 274.771000 1 1.000000 12 0.000000
294 2 -307.270000 -426.497000 242.845000 1 1.000000 12 -3.000000
295 2 -309.729000 -428.455000 252.200000 1 1.000000 1 -3.000000
296 2 -311.512000 -432.880000 260.891000 1 1.000000 1 -3.000000
297 2 -313.992000 -435.737000 270.045000 1 1.000000 1 -3.000000
298 2 -316.242000 -436.709000 279.574000 1 1.000000 1 -3.000000
299 2 -318.043000 -437.800000 289.234000 1 1.000000 1 -3.000000
300 2 -318.501000 -437.384000 299.134000 1 1.000000 1 -3.000000
301 2 -315.245000 -438.325000 308.442000 1 1.000000 1 -3.000000
302 2 -313.147000 -440.124000 318.007000 1 1.000000 1 -3.000000
303 2 -310.388000 -442.523000 327.287000 1 1.000000 1 -3.000000
304 2 -310.941000 -446.049000 336.497000 1 1.000000 1 -3.000000
305 2 -312.042000 -451.014000 344.894000 1 1.000000 1 -3.000000
306 2 -310.335000 -456.418000 353.024000 1 1.000000 1 -3.000000
307 2 -311.932000 -462.834000 360.410000 1 1.000000 1 -3.000000
308 2 -313.485000 -469.507000 367.585000 1 1.000000 1 -3.000000
309 2 -316.899000 -476.550000 373.600000 1 1.000000 1 -3.000000
310 2 -318.769000 -483.728000 380.219000 1 1.000000 1 -3.000000
311 2 -319.408000 -490.771000 387.088000 1 1.000000 1 -3.000000
312 2 -319.590000 -498.314000 393.525000 1 1.000000 1 -3.000000
313 2 -317.739000 -504.707000 400.822000 1 1.000000 1 -3.000000
314 2 -315.890000 -511.613000 407.632000 1 1.000000 1 -3.000000
315 2 -314.830000 -519.890000 412.883000 1 1.000000 1 -3.000000
316 2 -316.421000 -528.589000 417.326000 1 1.000000 1 -3.000000
317 2 -317.293000 -536.910000 422.636000 1 1.000000 1 -3.000000
318 2 -317.462000 -544.515000 428.931000 1 1.000000 13 -3.000000
319 1 -357.232000 -561.612000 410.157000 1 1.000000 13 0.000000
320 3 -350.889000 -533.261000 390.634000 1 1.000000 13 0.000000
321 2 -392.271000 -562.028000 378.631000 1 1.000000 13 -3.000000
322 2 -390.322000 -553.839000 373.503000 1 1.000000 1 -3.000000
323 2 -387.768000 -546.179000 367.792000 1 1.000000 1 -3.000000
324 2 -384.393000 -538.997000 361.908000 1 1.000000 1 -3.000000
325 2 -379.275000 -533.655000 355.347000 1 1.000000 1 -3.000000
326 2 -371.934000 -529.577000 350.140000 1 1.000000 1 -3.000000
327 2 -365.320000 -524.118000 345.123000 1 1.000000 1 -3.000000
328 2 -358.508000 -520.190000 339.049000 1 1.000000 1 -3.000000
329 2 -351.945000 -515.419000 333.420000 1 1.000000 1 -3.000000
330 2 -345.226000 -509.931000 328.578000 1 1.000000 1 -3.000000
331 2 -339.348000 -505.166000 322.316000 1 1.000000 1 -3.000000
332 2 -332.380000 -500.473000 316.918000 1 1.000000 1 -3.000000
333 2 -325.788000 -497.619000 310.166000 1 1.000000 1 -3.000000
334 2 -317.864000 -495.652000 304.462000 1 1.000000 1 -3.000000
335 2 -309.722000 -492.593000 299.777000 1 1.000000 1 -3.000000
336 2 -301.806000 -488.620000 295.382000 1 1.000000 1 -3.000000
337 2 -292.938000 -485.586000 292.158000 1 1.000000 1 -3.000000
338 2 -283.913000 -482.590000 289.637000 1 1.000000 1 -3.000000
339 2 -275.082000 -478.474000 287.948000 1 1.000000 1 -3.000000
340 2 -266.218000 -475.804000 284.260000 1 1.000000 1 -3.000000
341 2 -257.767000 -476.257000 279.063000 1 1.000000 1 -3.000000
342 2 -249.629000 -475.779000 273.482000 1 1.000000 1 -3.000000
343 2 -242.643000 -476.429000 266.512000 1 1.000000 1 -3.000000
344 2 -235.637000 -478.842000 260.034000 1 1.000000 1 -3.000000
345 2 -228.736000 -481.685000 253.437000 1 1.000000 14 -3.000000
346 1 -250.557000 -456.996000 219.582000 1 1.000000 14 0.000000
347 3 -265.863000 -445.623000 248.958000 1 1.000000 14 0.000000
348 2 -281.021000 -424.613000 204.010000 1 1.000000 14 -3.000000
349 2 -281.070000 -419.860000 212.759000 1 1.000000 1 -3.000000
350 2 -280.353000 -414.896000 221.378000 1 1.000000 1 -3.000000
351 2 -281.325000 -409.730000 229.664000 1 1.000000 1 -3.000000
352 2 -282.393000 -405.672000 238.595000 1 1.000000 1 -3.000000
353 2 -281.453000 -402.493000 247.875000 1 1.000000 1 -3.000000
354 2 -278.275000 -399.054000 256.564000 1 1.000000 1 -3.000000
355 2 -274.248000 -397.527000 265.368000 1 1.000000 1 -3.000000
356 2 -269.880000 -396.086000 274.095000 1 1.000000 1 -3.000000
357 2 -264.607000 -395.872000 282.443000 1 1.000000 1 -3.000000
358 2 -260.015000 -395.173000 291.195000 1 1.000000 1 -3.000000
359 2 -255.286000 -396.020000 299.839000 1 1.000000 1 -3.000000
360 2 -249.188000 -395.627000 307.575000 1 1.000000 1 -3.000000
361 2 -245.373000 -396.649000 316.573000 1 1.000000 1 -3.000000
362 2 -242.108000 -396.567000 325.900000 1 1.000000 1 -3.000000
363 2 -241.621000 -394.875000 335.585000 1 1.000000 1 -3.000000
364 2 -240.791000 -391.204000 344.835000 1 1.000000 1 -3.000000
365 2 -241.417000 -388.729000 354.411000 1 1.000000 1 -3.000000
366 2 -241.296000 -386.159000 363.983000 1 1.000000 1 -3.000000
367 2 -240.604000 -385.540000 373.787000 1 1.000000 1 -3.000000
368 2 -239.603000 -386.918000 383.523000 1 1.000000 1 -3.000000
369 2 -239.939000 -390.497000 392.697000 1 1.000000 1 -3.000000
370 2 -241.048000 -394.815000 401.620000 1 1.000000 1 -3.000000
371 2 -241.916000 -400.889000 409.339000 1 1.000000 1 -3.000000
372 2 -244.165000 -405.362000 417.832000 1 1.000000 15 -3.000000
373 1 -261.208000 -444.961000 398.599000 1 1.000000 15 0.000000
374 3 -244.273000 -429.796000 371.980000 1 1.000000 15 0.000000
375 2 -266.158000 -476.091000 363.502000 1 1.000000 15 -3.000000
376 2 -258.144000 -474.617000 357.892000 1 1.000000 1 -3.000000
377 2 -249.737000 -472.958000 353.087000 1 1.000000 1 -3.000000
378 2 -241.398000 -469.806000 348.915000 1 1.000000 1 -3.000000
379 2 -233.759000 -464.637000 345.185000 1 1.000000 1 -3.000000
380 2 -228.420000 -456.932000 341.987000 1 1.000000 1 -3.000000
381 2 -223.572000 -450.162000 336.591000 1 1.000000 1 -3.000000
382 2 -218.010000 -443.524000 331.721000 1 1.000000 1 -3.000000
383 2 -212.824000 -436.669000 326.834000 1 1.000000 1 -3.000000
384 2 -205.177000 -432.143000 322.478000 1 1.000000 1 -3.000000
385 2 -198.387000 -427.486000 316.897000 1 1.000000 1 -3.000000
386 2 -191.127000 -424.477000 310.911000 1 1.000000 1 -3.000000
387 2 -184.606000 -419.659000 305.207000 1 1.000000 1 -3.000000
388 2 -177.585000 -413.594000 301.736000 1 1.000000 1 -3.000000
389 2 -170.592000 -407.853000 297.798000 1 1.000000 1 -3.000000
390 2 -163.663000 -402.244000 293.522000 1 1.000000 1 -3.000000
391 2 -156.660000 -396.475000 289.491000 1 1.000000 1 -3.000000
392 2 -149.044000 -391.406000 285.688000 1 1.000000 1 -3.000000
393 2 -141.531000 -385.482000 283.423000 1 1.000000 1 -3.000000
394 2 -136.172000 -377.284000 284.200000 1 1.000000 1 -3.000000
395 2 -130.724000 -369.581000 287.197000 1 1.000000 1 -3.000000
396 2 -127.298000 -361.495000 291.771000 1 1.000000 1 -3.000000
397 2 -124.339000 -355.362000 298.886000 1 1.000000 1 -3.000000
398 2 -120.985000 -349.548000 306.068000 1 1.000000 1 -3.000000
399 2 -118.489000 -343.813000 313.796000 1 1.000000 16 -3.000000
400 1 -160.918000 -325.961000 324.412000 1 1.000000 16 0.000000
401 3 -168.620000 -355.185000 306.685000 1 1.000000 16 0.000000
402 2 -208.043000 -325.821000 323.371000 1 1.000000 16 -3.000000
403 2 -209.101000 -334.859000 319.735000 1 1.000000 1 -3.000000
404 2 -211.175000 -344.421000 317.952000 1 1.000000 1 -3.000000
405 2 -213.107000 -353.888000 315.758000 1 1.000000 1 -3.000000
406 2 -212.490000 -363.325000 312.722000 1 1.000000 1 -3.000000
407 2 -210.083000 -371.849000 308.373000 1 1.000000 1 -3.000000
408 2 -206.281000 -378.603000 302.284000 1 1.000000 1 -3.000000
409 2 -199.993000 -384.009000 296.802000 1 1.000000 1 -3.000000
410 2 -193.890000 -390.457000 292.455000 1 1.000000 1 -3.000000
411 2 -187.582000 -396.428000 287.758000 1 1.000000 1 -3.000000
412 2 -180.978000 -401.068000 282.070000 1 1.000000 1 -3.000000
413 2 -175.652000 -405.915000 275.382000 1 1.000000 1 -3.000000
414 2 -169.412000 -411.408000 269.845000 1 1.000000 1 -3.000000
415 2 -161.483000 -416.424000 266.631000 1 1.000000 1 -3.000000
416 2 -152.874000 -420.288000 263.767000 1 1.000000 1 -3.000000
417 2 -144.696000 -424.220000 259.647000 1 1.000000 1 -3.000000
418 2 -137.234000 -426.438000 253.578000 1 1.000000 1 -3.000000
419 2 -128.867000 -429.072000 249.061000 1 1.000000 1 -3.000000
420 2 -120.741000 -432.042000 244.108000 1 1.000000 1 -3.000000
421 2 -112.565000 -433.996000 238.885000 1 1.000000 1 -3.000000
422 2 -105.344000 -437.520000 233.103000 1 1.000000 1 -3.000000
423 2 -96.731300 -441.490000 230.208000 1 1.000000 1 -3.000000
424 2 -87.486000 -445.321000 229.383000 1 1.000000 1 -3.000000
425 2 -78.958800 -450.171000 230.526000 1 1.000000 1 -3.000000
426 2 -69.913000 -453.324000 232.803000 1 1.000000 17 -3.000000
427 1 -85.190300 -496.305000 244.962000 1 1.000000 17 0.000000
428 3 -112.053000 -483.132000 226.789000 1 1.000000 17 0.000000
429 2 -118.034000 -530.078000 248.017000 1 1.000000 17 -3.000000
430 2 -123.582000 -526.595000 240.603000 1 1.000000 1 -3.000000
431 2 -127.891000 -523.920000 232.096000 1 1.000000 1 -3.000000
432 2 -133.041000 -521.625000 223.962000 1 1.000000 1 -3.000000
433 2 -137.810000 -518.604000 215.900000 1 1.000000 1 -3.000000
434 2 -142.169000 -514.775000 207.742000 1 1.000000 1 -3.000000
435 2 -145.170000 -512.248000 198.675000 1 1.000000 1 -3.000000
436 2 -146.882000 -508.894000 189.525000 1 1.000000 1 -3.000000
437 2 -148.661000 -505.747000 180.301000 1 1.000000 1 -3.000000
438 2 -150.546000 -503.827000 170.722000 1 1.000000 1 -3.000000
439 2 -153.760000 -503.086000 161.368000 1 1.000000 1 -3.000000
440 2 -155.788000 -501.989000 151.647000 1 1.000000 1 -3.000000
441 2 -157.234000 -502.184000 141.835000 1 1.000000 1 -3.000000
442 2 -158.774000 -501.754000 131.990000 1 1.000000 1 -3.000000
443 2 -160.512000 -503.024000 122.371000 1 1.000000 1 -3.000000
444 2 -163.521000 -505.962000 113.369000 1 1.000000 1 -3.000000
445 2 -166.956000 -507.017000 104.176000 1 1.000000 1 -3.000000
446 2 -172.556000 -506.411000 96.185500 1 1.000000 1 -3.000000
447 2 -174.608000 -505.626000 86.618600 1 1.000000 1 -3.000000
448 2 -177.456000 -503.946000 77.344900 1 1.000000 1 -3.000000
449 2 -180.408000 -503.568000 67.857900 1 1.000000 1 -3.000000
450 2 -181.140000 -503.305000 58.043100 1 1.000000 1 -3.000000
451 2 -180.767000 -503.822000 48.167600 1 1.000000 1 -3.000000
452 2 -179.859000 -502.586000 38.357500 1 1.000000 1 -3.000000
453 2 -179.883000 -499.103000 29.069100 1 1.000000 18 -3.000000
454 1 -139.524000 -522.129000 21.095200 1 1.000000 18 0.000000
455 3 -146.384000 -529.247000 54.627400 1 1.000000 18 0.000000
456 2 -103.105000 -549.279000 33.869000 1 1.000000 18 -3.000000
457 2 -108.734000 -554.472000 40.183400 1 1.000000 1 -3.000000
458 2 -113.496000 -559.212000 47.534000 1 1.000000 1 -3.000000
459 2 -118.052000 -564.086000 54.884600 1 1.000000 1 -3.000000
460 2 -122.704000 -570.632000 60.627500 1 1.000000 1 -3.000000
461 2 -126.353000 -578.731000 64.995600 1 1.000000 1 -3.000000
462 2 -130.313000 -587.159000 68.317700 1 1.000000 1 -3.000000
463 2 -133.060000 -596.178000 71.517900 1 1.000000 1 -3.000000
464 2 -136.344000 -605.094000 74.555400 1 1.000000 1 -3.000000
465 2 -139.663000 -614.237000 76.276800 1 1.000000 1 -3.000000
466 2 -141.798000 -623.952000 76.793200 1 1.000000 1 -3.000000
467 2 -143.781000 -633.591000 76.086600 1 1.000000 1 -3.000000