LAMMPS data file

4067 atoms
4067 ellipsoids
4516 bonds
8882 angles
0 dihedrals

3 atom types
5 bond types
12 angle types
0 dihedral types

-4631.092947 4670.465898 xlo xhi
-4631.092947 4670.465898 ylo yhi
-4631.092947 4670.465898 zlo zhi

Masses

1 196016.000000
2 1950.000000
3 19500.000000

Atoms

1 2 -152.437000 -1112.410000 356.481000 1 1.000000 1 -3.000000
2 2 -150.168000 -1103.100000 358.825000 1 1.000000 1 -3.000000
3 2 -149.103000 -1093.970000 362.363000 1 1.000000 1 -3.000000
4 2 -149.160000 -1084.630000 365.518000 1 1.000000 1 -3.000000
5 2 -149.791000 -1075.600000 369.496000 1 1.000000 1 -3.000000
6 2 -150.264000 -1066.700000 373.888000 1 1.000000 1 -3.000000
7 2 -151.635000 -1057.710000 377.703000 1 1.000000 1 -3.000000
8 2 -153.082000 -1047.970000 379.152000 1 1.000000 1 -3.000000
9 2 -154.852000 -1038.280000 379.224000 1 1.000000 1 -3.000000
10 2 -159.027000 -1029.370000 378.079000 1 1.000000 1 -3.000000
11 2 -162.454000 -1020.070000 378.002000 1 1.000000 1 -3.000000
12 2 -164.600000 -1010.500000 378.706000 1 1.000000 1 -3.000000
13 2 -165.129000 -1000.640000 377.739000 1 1.000000 1 -3.000000
14 2 -166.556000 -990.858000 377.839000 1 1.000000 1 -3.000000
15 2 -168.041000 -981.139000 379.399000 1 1.000000 1 -3.000000
16 2 -172.056000 -972.092000 379.355000 1 1.000000 1 -3.000000
17 2 -175.899000 -962.973000 379.247000 1 1.000000 1 -3.000000
18 2 -176.810000 -953.100000 379.250000 1 1.000000 1 -3.000000
19 2 -176.526000 -943.215000 378.598000 1 1.000000 1 -3.000000
20 2 -175.089000 -933.500000 377.596000 1 1.000000 1 -3.000000
21 2 -174.220000 -923.690000 378.766000 1 1.000000 2 -3.000000
22 1 -136.436000 -921.239000 406.851000 1 1.000000 2 0.000000
23 3 -133.429000 -952.938000 392.308000 1 1.000000 2 0.000000
24 2 -97.239400 -938.516000 426.641000 1 1.000000 2 -3.000000
25 2 -95.410000 -944.458000 418.954000 1 1.000000 1 -3.000000
26 2 -92.995100 -951.615000 412.507000 1 1.000000 1 -3.000000
27 2 -90.688800 -958.518000 405.813000 1 1.000000 1 -3.000000
28 2 -90.076600 -963.352000 397.286000 1 1.000000 1 -3.000000
29 2 -90.484400 -967.483000 388.336000 1 1.000000 1 -3.000000
30 2 -91.309100 -968.323000 378.467000 1 1.000000 1 -3.000000
31 2 -92.412300 -967.824000 368.560000 1 1.000000 1 -3.000000
32 2 -93.481100 -965.406000 359.071000 1 1.000000 1 -3.000000
33 2 -96.518900 -964.478000 349.623000 1 1.000000 1 -3.000000
34 2 -99.941600 -961.103000 340.954000 1 1.000000 1 -3.000000
35 2 -104.468000 -956.185000 333.648000 1 1.000000 1 -3.000000
36 2 -108.384000 -950.853000 326.289000 1 1.000000 1 -3.000000
37 2 -112.760000 -944.699000 319.907000 1 1.000000 1 -3.000000
38 2 -117.287000 -938.776000 313.437000 1 1.000000 1 -3.000000
39 2 -121.259000 -933.492000 305.985000 1 1.000000 1 -3.000000
40 2 -123.289000 -927.289000 298.596000 1 1.000000 1 -3.000000
41 2 -123.576000 -920.490000 291.436000 1 1.000000 1 -3.000000
42 2 -124.245000 -915.242000 283.019000 1 1.000000 1 -3.000000
43 2 -122.844000 -910.321000 274.555000 1 1.000000 1 -3.000000
44 2 -120.476000 -905.564000 266.132000 1 1.000000 1 -3.000000
45 2 -116.980000 -903.597000 257.095000 1 1.000000 1 -3.000000
46 2 -113.211000 -904.474000 247.943000 1 1.000000 1 -3.000000
47 2 -110.561000 -904.525000 238.452000 1 1.000000 1 -3.000000
48 2 -107.245000 -903.541000 229.193000 1 1.000000 3 -3.000000
49 1 -116.760000 -948.215000 217.446000 1 1.000000 3 0.000000
50 3 -135.231000 -943.711000 246.795000 1 1.000000 3 0.000000
51 2 -138.262000 -989.803000 223.112000 1 1.000000 3 -3.000000
52 2 -144.504000 -988.172000 230.626000 1 1.000000 1 -3.000000
53 2 -151.482000 -985.426000 237.138000 1 1.000000 1 -3.000000
54 2 -158.308000 -981.768000 243.282000 1 1.000000 1 -3.000000
55 2 -163.001000 -977.027000 250.504000 1 1.000000 1 -3.000000
56 2 -167.225000 -971.513000 257.559000 1 1.000000 1 -3.000000
57 2 -169.146000 -965.129000 264.838000 1 1.000000 1 -3.000000
58 2 -171.562000 -958.601000 271.837000 1 1.000000 1 -3.000000
59 2 -175.612000 -952.368000 278.372000 1 1.000000 1 -3.000000
60 2 -180.872000 -945.301000 282.931000 1 1.000000 1 -3.000000
61 2 -184.734000 -936.362000 284.673000 1 1.000000 1 -3.000000
62 2 -189.277000 -927.593000 285.376000 1 1.000000 1 -3.000000
63 2 -196.075000 -920.339000 285.302000 1 1.000000 1 -3.000000
64 2 -202.740000 -913.047000 285.484000 1 1.000000 1 -3.000000
65 2 -208.919000 -906.666000 289.927000 1 1.000000 1 -3.000000
66 2 -214.409000 -902.477000 297.050000 1 1.000000 1 -3.000000
67 2 -221.071000 -897.106000 302.048000 1 1.000000 1 -3.000000
68 2 -228.933000 -891.652000 304.741000 1 1.000000 1 -3.000000
69 2 -237.797000 -887.355000 305.761000 1 1.000000 1 -3.000000
70 2 -246.590000 -882.916000 306.807000 1 1.000000 1 -3.000000
71 2 -255.696000 -879.186000 308.176000 1 1.000000 1 -3.000000
72 2 -264.025000 -873.785000 307.919000 1 1.000000 1 -3.000000
73 2 -271.193000 -867.410000 305.615000 1 1.000000 1 -3.000000
74 2 -278.517000 -861.046000 304.022000 1 1.000000 1 -3.000000
75 2 -285.108000 -854.296000 301.042000 1 1.000000 4 -3.000000
76 1 -264.705000 -835.370000 262.913000 1 1.000000 4 0.000000
77 3 -249.408000 -866.796000 265.455000 1 1.000000 4 0.000000
78 2 -235.560000 -836.345000 225.812000 1 1.000000 4 -3.000000
79 2 -232.045000 -845.590000 226.136000 1 1.000000 1 -3.000000
80 2 -229.450000 -855.147000 225.911000 1 1.000000 1 -3.000000
81 2 -227.503000 -864.859000 226.066000 1 1.000000 1 -3.000000
82 2 -227.187000 -874.382000 228.828000 1 1.000000 1 -3.000000
83 2 -225.791000 -883.610000 232.157000 1 1.000000 1 -3.000000
84 2 -224.031000 -893.236000 233.490000 1 1.000000 1 -3.000000
85 2 -221.033000 -902.695000 233.568000 1 1.000000 1 -3.000000
86 2 -220.265000 -912.583000 233.115000 1 1.000000 1 -3.000000
87 2 -217.968000 -922.177000 232.003000 1 1.000000 1 -3.000000
88 2 -216.521000 -931.310000 228.517000 1 1.000000 1 -3.000000
89 2 -216.514000 -940.285000 224.088000 1 1.000000 1 -3.000000
90 2 -216.564000 -949.455000 220.291000 1 1.000000 1 -3.000000
91 2 -214.397000 -958.968000 218.745000 1 1.000000 1 -3.000000
92 2 -211.775000 -968.490000 217.660000 1 1.000000 1 -3.000000
93 2 -209.410000 -977.829000 215.322000 1 1.000000 1 -3.000000
94 2 -206.106000 -985.885000 210.646000 1 1.000000 1 -3.000000
95 2 -200.539000 -991.000000 204.383000 1 1.000000 1 -3.000000
96 2 -194.253000 -995.175000 197.922000 1 1.000000 1 -3.000000
97 2 -187.582000 -996.742000 190.760000 1 1.000000 1 -3.000000
98 2 -181.272000 -997.895000 183.218000 1 1.000000 1 -3.000000
99 2 -176.947000 -999.197000 174.338000 1 1.000000 1 -3.000000
100 2 -173.139000 -1001.180000 165.397000 1 1.000000 1 -3.000000
101 2 -170.313000 -1005.340000 156.874000 1 1.000000 1 -3.000000
102 2 -167.502000 -1008.820000 148.008000 1 1.000000 5 -3.000000
103 1 -207.873000 -1029.940000 135.773000 1 1.000000 5 0.000000
104 3 -217.901000 -1006.870000 160.262000 1 1.000000 5 0.000000
105 2 -254.235000 -1037.950000 139.718000 1 1.000000 5 -3.000000
106 2 -257.270000 -1029.420000 143.652000 1 1.000000 1 -3.000000
107 2 -259.916000 -1020.380000 146.868000 1 1.000000 1 -3.000000
108 2 -261.632000 -1011.080000 149.844000 1 1.000000 1 -3.000000
109 2 -261.208000 -1001.510000 152.266000 1 1.000000 1 -3.000000
110 2 -260.462000 -991.961000 154.787000 1 1.000000 1 -3.000000
111 2 -257.393000 -982.906000 157.333000 1 1.000000 1 -3.000000
112 2 -252.042000 -975.770000 161.517000 1 1.000000 1 -3.000000
113 2 -247.199000 -969.260000 167.184000 1 1.000000 1 -3.000000
114 2 -245.123000 -959.714000 168.402000 1 1.000000 1 -3.000000
115 2 -242.104000 -950.271000 168.817000 1 1.000000 1 -3.000000
116 2 -238.495000 -941.304000 170.866000 1 1.000000 1 -3.000000
117 2 -234.668000 -932.142000 171.016000 1 1.000000 1 -3.000000
118 2 -231.682000 -922.801000 169.607000 1 1.000000 1 -3.000000
119 2 -227.565000 -913.891000 168.120000 1 1.000000 1 -3.000000
120 2 -223.171000 -905.007000 167.523000 1 1.000000 1 -3.000000
121 2 -217.756000 -896.904000 169.533000 1 1.000000 1 -3.000000
122 2 -212.363000 -889.242000 172.549000 1 1.000000 1 -3.000000
123 2 -208.277000 -881.161000 176.504000 1 1.000000 1 -3.000000
124 2 -205.406000 -872.150000 179.624000 1 1.000000 1 -3.000000
125 2 -205.092000 -863.572000 184.511000 1 1.000000 1 -3.000000
126 2 -204.623000 -855.489000 190.222000 1 1.000000 1 -3.000000
127 2 -203.128000 -848.418000 196.960000 1 1.000000 1 -3.000000
128 2 -198.970000 -842.431000 203.615000 1 1.000000 1 -3.000000
129 2 -195.441000 -835.289000 209.377000 1 1.000000 6 -3.000000
130 1 -173.767000 -861.970000 241.719000 1 1.000000 6 0.000000
131 3 -177.818000 -883.811000 214.698000 1 1.000000 6 0.000000
132 2 -157.278000 -902.936000 258.302000 1 1.000000 6 -3.000000
133 2 -157.968000 -910.048000 251.421000 1 1.000000 1 -3.000000
134 2 -159.756000 -916.349000 243.936000 1 1.000000 1 -3.000000
135 2 -160.884000 -921.739000 235.675000 1 1.000000 1 -3.000000
136 2 -162.415000 -925.700000 226.822000 1 1.000000 1 -3.000000
137 2 -165.256000 -926.871000 217.452000 1 1.000000 1 -3.000000
138 2 -169.377000 -927.048000 208.483000 1 1.000000 1 -3.000000
139 2 -173.260000 -927.790000 199.392000 1 1.000000 1 -3.000000
140 2 -176.792000 -928.978000 190.246000 1 1.000000 1 -3.000000
141 2 -181.673000 -929.172000 181.695000 1 1.000000 1 -3.000000
142 2 -184.679000 -932.100000 172.791000 1 1.000000 1 -3.000000
143 2 -187.120000 -935.594000 163.858000 1 1.000000 1 -3.000000
144 2 -191.600000 -937.711000 155.281000 1 1.000000 1 -3.000000
145 2 -197.292000 -939.596000 147.398000 1 1.000000 1 -3.000000
146 2 -200.883000 -941.268000 138.359000 1 1.000000 1 -3.000000
147 2 -203.208000 -943.034000 128.977000 1 1.000000 1 -3.000000
148 2 -207.910000 -946.429000 121.016000 1 1.000000 1 -3.000000
149 2 -210.278000 -949.369000 111.796000 1 1.000000 1 -3.000000
150 2 -214.537000 -953.663000 103.986000 1 1.000000 1 -3.000000
151 2 -216.189000 -957.691000 95.059200 1 1.000000 1 -3.000000
152 2 -219.968000 -959.524000 86.102800 1 1.000000 1 -3.000000
153 2 -225.933000 -960.692000 78.252000 1 1.000000 1 -3.000000
154 2 -232.087000 -960.287000 70.536600 1 1.000000 1 -3.000000
155 2 -238.925000 -959.093000 63.560800 1 1.000000 1 -3.000000
156 2 -244.811000 -955.993000 56.197000 1 1.000000 7 -3.000000
157 1 -270.189000 -920.340000 73.754600 1 1.000000 7 0.000000
158 3 -241.630000 -920.559000 94.077800 1 1.000000 7 0.000000
159 2 -278.151000 -885.015000 104.021000 1 1.000000 7 -3.000000
160 2 -269.698000 -882.948000 108.806000 1 1.000000 1 -3.000000
161 2 -262.092000 -883.807000 115.198000 1 1.000000 1 -3.000000
162 2 -254.327000 -886.223000 120.872000 1 1.000000 1 -3.000000
163 2 -245.104000 -886.638000 124.657000 1 1.000000 1 -3.000000
164 2 -235.537000 -888.874000 125.532000 1 1.000000 1 -3.000000
165 2 -226.071000 -890.255000 122.983000 1 1.000000 1 -3.000000
166 2 -217.204000 -890.602000 118.629000 1 1.000000 1 -3.000000
167 2 -208.027000 -889.772000 115.094000 1 1.000000 1 -3.000000
168 2 -198.367000 -889.655000 113.180000 1 1.000000 1 -3.000000
169 2 -188.548000 -888.590000 111.853000 1 1.000000 1 -3.000000
170 2 -179.827000 -887.274000 107.376000 1 1.000000 1 -3.000000
171 2 -171.788000 -883.018000 103.271000 1 1.000000 1 -3.000000
172 2 -164.294000 -876.488000 102.691000 1 1.000000 1 -3.000000
173 2 -158.362000 -868.678000 102.249000 1 1.000000 1 -3.000000
174 2 -152.145000 -861.298000 100.330000 1 1.000000 1 -3.000000
175 2 -144.611000 -854.830000 99.718500 1 1.000000 1 -3.000000
176 2 -136.863000 -848.712000 99.123000 1 1.000000 1 -3.000000
177 2 -130.372000 -841.290000 97.775300 1 1.000000 1 -3.000000
178 2 -123.585000 -834.239000 99.030500 1 1.000000 1 -3.000000
179 2 -116.567000 -827.367000 100.318000 1 1.000000 1 -3.000000
180 2 -111.045000 -820.247000 104.497000 1 1.000000 1 -3.000000
181 2 -105.379000 -814.023000 109.692000 1 1.000000 1 -3.000000
182 2 -99.833900 -808.117000 115.399000 1 1.000000 1 -3.000000
183 2 -96.214800 -800.816000 121.095000 1 1.000000 8 -3.000000
184 1 -125.647000 -802.270000 157.899000 1 1.000000 8 0.000000
185 3 -131.078000 -832.956000 142.156000 1 1.000000 8 0.000000
186 2 -157.622000 -823.218000 185.553000 1 1.000000 8 -3.000000
187 2 -154.810000 -832.414000 183.409000 1 1.000000 1 -3.000000
188 2 -152.915000 -841.819000 181.142000 1 1.000000 1 -3.000000
189 2 -151.226000 -850.754000 177.310000 1 1.000000 1 -3.000000
190 2 -150.618000 -858.742000 171.517000 1 1.000000 1 -3.000000
191 2 -149.543000 -866.008000 164.887000 1 1.000000 1 -3.000000
192 2 -146.389000 -872.728000 158.307000 1 1.000000 1 -3.000000
193 2 -142.364000 -879.294000 152.060000 1 1.000000 1 -3.000000
194 2 -139.823000 -885.854000 145.210000 1 1.000000 1 -3.000000
195 2 -138.168000 -893.655000 139.338000 1 1.000000 1 -3.000000
196 2 -137.496000 -901.289000 133.052000 1 1.000000 1 -3.000000
197 2 -137.866000 -909.301000 127.198000 1 1.000000 1 -3.000000
198 2 -140.069000 -916.973000 121.416000 1 1.000000 1 -3.000000
199 2 -142.064000 -924.210000 114.989000 1 1.000000 1 -3.000000
200 2 -143.552000 -931.464000 108.468000 1 1.000000 1 -3.000000
201 2 -146.976000 -937.163000 101.110000 1 1.000000 1 -3.000000
202 2 -150.559000 -944.564000 95.697600 1 1.000000 1 -3.000000
203 2 -153.079000 -952.510000 90.317200 1 1.000000 1 -3.000000
204 2 -158.334000 -958.301000 84.210100 1 1.000000 1 -3.000000
205 2 -164.707000 -963.723000 78.988800 1 1.000000 1 -3.000000
206 2 -169.128000 -972.174000 76.456400 1 1.000000 1 -3.000000
207 2 -171.665000 -981.215000 73.395300 1 1.000000 1 -3.000000
208 2 -173.317000 -990.690000 70.905100 1 1.000000 1 -3.000000
209 2 -176.125000 -999.778000 68.316400 1 1.000000 1 -3.000000
210 2 -179.130000 -1009.160000 68.048100 1 1.000000 9 -3.000000
211 1 -221.313000 -992.964000 54.384300 1 1.000000 9 0.000000
212 3 -199.234000 -967.962000 43.692100 1 1.000000 9 0.000000
213 2 -249.503000 -962.643000 31.733200 1 1.000000 9 -3.000000
214 2 -243.609000 -957.008000 26.192900 1 1.000000 1 -3.000000
215 2 -237.542000 -950.727000 21.512400 1 1.000000 1 -3.000000
216 2 -229.329000 -947.198000 17.455400 1 1.000000 1 -3.000000
217 2 -220.720000 -943.094000 14.823800 1 1.000000 1 -3.000000
218 2 -211.806000 -939.588000 12.404200 1 1.000000 1 -3.000000
219 2 -202.448000 -936.889000 10.704400 1 1.000000 1 -3.000000
220 2 -192.664000 -935.395000 9.907580 1 1.000000 1 -3.000000
221 2 -182.984000 -935.909000 11.815100 1 1.000000 1 -3.000000
222 2 -173.451000 -936.728000 14.699700 1 1.000000 1 -3.000000
223 2 -163.904000 -936.103000 16.955300 1 1.000000 1 -3.000000
224 2 -154.709000 -935.142000 20.480000 1 1.000000 1 -3.000000
225 2 -145.825000 -934.347000 24.850600 1 1.000000 1 -3.000000
226 2 -137.564000 -932.735000 29.920500 1 1.000000 1 -3.000000
227 2 -129.933000 -929.517000 35.368200 1 1.000000 1 -3.000000
228 2 -122.352000 -927.358000 41.234700 1 1.000000 1 -3.000000
229 2 -114.294000 -924.959000 46.352200 1 1.000000 1 -3.000000
230 2 -105.910000 -923.663000 51.469000 1 1.000000 1 -3.000000
231 2 -98.582500 -921.504000 57.825400 1 1.000000 1 -3.000000
232 2 -91.811900 -921.762000 65.017800 1 1.000000 1 -3.000000
233 2 -83.604800 -921.948000 70.459500 1 1.000000 1 -3.000000
234 2 -74.473100 -924.280000 73.485000 1 1.000000 1 -3.000000
235 2 -65.630200 -928.157000 75.648900 1 1.000000 1 -3.000000
236 2 -57.581100 -933.861000 77.092900 1 1.000000 1 -3.000000
237 2 -50.224200 -939.581000 80.664700 1 1.000000 10 -3.000000
238 1 -37.037600 -954.957000 38.019500 1 1.000000 10 0.000000
239 3 -66.096900 -936.754000 31.263200 1 1.000000 10 0.000000
240 2 -40.476900 -956.941000 -9.012610 1 1.000000 10 -3.000000
241 2 -46.438200 -949.036000 -9.783640 1 1.000000 1 -3.000000
242 2 -52.662400 -941.330000 -9.732290 1 1.000000 1 -3.000000
243 2 -58.595400 -933.840000 -12.182200 1 1.000000 1 -3.000000
244 2 -64.506500 -925.840000 -12.211400 1 1.000000 1 -3.000000
245 2 -71.223200 -918.946000 -10.062700 1 1.000000 1 -3.000000
246 2 -77.745000 -913.226000 -5.339140 1 1.000000 1 -3.000000
247 2 -85.275900 -907.485000 -2.529050 1 1.000000 1 -3.000000
248 2 -91.820300 -900.933000 0.894909 1 1.000000 1 -3.000000
249 2 -100.032000 -895.728000 2.536060 1 1.000000 1 -3.000000
250 2 -108.840000 -891.322000 3.756610 1 1.000000 1 -3.000000
251 2 -117.300000 -886.362000 5.062130 1 1.000000 1 -3.000000
252 2 -125.840000 -881.758000 6.621420 1 1.000000 1 -3.000000
253 2 -134.604000 -877.198000 7.221000 1 1.000000 1 -3.000000
254 2 -140.322000 -869.502000 9.655720 1 1.000000 1 -3.000000
255 2 -144.773000 -861.701000 13.863900 1 1.000000 1 -3.000000
256 2 -149.760000 -853.668000 16.991700 1 1.000000 1 -3.000000
257 2 -154.874000 -846.443000 21.493800 1 1.000000 1 -3.000000
258 2 -159.815000 -839.121000 25.962800 1 1.000000 1 -3.000000
259 2 -165.428000 -832.129000 30.224100 1 1.000000 1 -3.000000
260 2 -171.340000 -825.252000 34.237600 1 1.000000 1 -3.000000
261 2 -176.154000 -817.394000 37.713200 1 1.000000 1 -3.000000
262 2 -180.888000 -809.573000 41.494800 1 1.000000 1 -3.000000
263 2 -187.432000 -803.655000 45.959300 1 1.000000 1 -3.000000
264 2 -193.351000 -797.450000 50.865900 1 1.000000 11 -3.000000
265 1 -157.752000 -767.830000 60.072600 1 1.000000 11 0.000000
266 3 -146.644000 -785.281000 31.793100 1 1.000000 11 0.000000
267 2 -114.122000 -751.150000 53.607600 1 1.000000 11 -3.000000
268 2 -113.391000 -754.928000 44.480900 1 1.000000 1 -3.000000
269 2 -113.021000 -757.020000 34.767100 1 1.000000 1 -3.000000
270 2 -112.305000 -759.025000 25.108400 1 1.000000 1 -3.000000
271 2 -111.533000 -763.275000 16.198500 1 1.000000 1 -3.000000
272 2 -113.728000 -767.278000 7.444090 1 1.000000 1 -3.000000
273 2 -118.328000 -770.092000 -0.781198 1 1.000000 1 -3.000000
274 2 -122.610000 -772.819000 -9.281780 1 1.000000 1 -3.000000
275 2 -126.980000 -773.278000 -18.197800 1 1.000000 1 -3.000000
276 2 -129.575000 -773.915000 -27.722200 1 1.000000 1 -3.000000
277 2 -133.172000 -774.587000 -36.946500 1 1.000000 1 -3.000000
278 2 -134.211000 -773.789000 -46.764300 1 1.000000 1 -3.000000
279 2 -134.757000 -772.335000 -56.551800 1 1.000000 1 -3.000000
280 2 -136.251000 -771.587000 -66.316000 1 1.000000 1 -3.000000
281 2 -135.735000 -771.180000 -76.231900 1 1.000000 1 -3.000000
282 2 -133.350000 -767.138000 -84.942800 1 1.000000 1 -3.000000
283 2 -131.771000 -763.655000 -93.969900 1 1.000000 1 -3.000000
284 2 -130.082000 -760.468000 -103.224000 1 1.000000 1 -3.000000
285 2 -128.524000 -755.491000 -111.638000 1 1.000000 1 -3.000000
286 2 -126.149000 -751.241000 -120.331000 1 1.000000 1 -3.000000
287 2 -122.801000 -745.933000 -127.955000 1 1.000000 1 -3.000000
288 2 -118.739000 -740.184000 -134.919000 1 1.000000 1 -3.000000
289 2 -116.228000 -735.003000 -142.946000 1 1.000000 1 -3.000000
290 2 -114.081000 -730.901000 -151.671000 1 1.000000 1 -3.000000
291 2 -110.902000 -725.474000 -159.212000 1 1.000000 12 -3.000000
292 1 -104.476000 -764.945000 -184.233000 1 1.000000 12 0.000000
293 3 -129.804000 -773.761000 -161.646000 1 1.000000 12 0.000000
294 2 -114.448000 -809.512000 -196.084000 1 1.000000 12 -3.000000
295 2 -124.230000 -809.284000 -194.263000 1 1.000000 1 -3.000000
296 2 -132.552000 -809.311000 -188.951000 1 1.000000 1 -3.000000
297 2 -140.825000 -808.758000 -183.503000 1 1.000000 1 -3.000000
298 2 -148.982000 -809.620000 -177.986000 1 1.000000 1 -3.000000
299 2 -157.289000 -809.203000 -172.704000 1 1.000000 1 -3.000000
300 2 -166.087000 -808.054000 -168.321000 1 1.000000 1 -3.000000
301 2 -174.673000 -806.111000 -163.677000 1 1.000000 1 -3.000000
302 2 -183.837000 -805.035000 -160.271000 1 1.000000 1 -3.000000
303 2 -193.271000 -804.797000 -157.332000 1 1.000000 1 -3.000000
304 2 -202.423000 -804.708000 -153.490000 1 1.000000 1 -3.000000
305 2 -211.035000 -802.577000 -149.146000 1 1.000000 1 -3.000000
306 2 -219.031000 -800.894000 -143.477000 1 1.000000 1 -3.000000
307 2 -228.203000 -798.417000 -140.866000 1 1.000000 1 -3.000000
308 2 -237.075000 -796.547000 -136.857000 1 1.000000 1 -3.000000
309 2 -244.263000 -795.316000 -130.239000 1 1.000000 1 -3.000000
310 2 -252.672000 -793.701000 -125.313000 1 1.000000 1 -3.000000
311 2 -260.465000 -789.531000 -120.890000 1 1.000000 1 -3.000000
312 2 -269.198000 -785.088000 -119.237000 1 1.000000 1 -3.000000
313 2 -277.748000 -780.172000 -118.736000 1 1.000000 1 -3.000000
314 2 -287.062000 -777.187000 -120.195000 1 1.000000 1 -3.000000
315 2 -296.920000 -777.122000 -121.192000 1 1.000000 1 -3.000000
316 2 -305.894000 -777.691000 -125.174000 1 1.000000 1 -3.000000
317 2 -314.565000 -780.193000 -129.251000 1 1.000000 1 -3.000000
318 2 -323.654000 -780.551000 -133.084000 1 1.000000 13 -3.000000
319 1 -311.448000 -795.067000 -176.316000 1 1.000000 13 0.000000
320 3 -282.406000 -800.311000 -157.400000 1 1.000000 13 0.000000
321 2 -280.716000 -811.543000 -208.140000 1 1.000000 13 -3.000000
322 2 -272.971000 -813.696000 -202.302000 1 1.000000 1 -3.000000
323 2 -266.034000 -816.915000 -195.824000 1 1.000000 1 -3.000000
324 2 -258.746000 -819.743000 -189.735000 1 1.000000 1 -3.000000
325 2 -252.392000 -820.807000 -182.289000 1 1.000000 1 -3.000000
326 2 -248.048000 -824.019000 -174.066000 1 1.000000 1 -3.000000
327 2 -242.718000 -826.139000 -166.009000 1 1.000000 1 -3.000000
328 2 -235.743000 -825.412000 -159.073000 1 1.000000 1 -3.000000
329 2 -228.799000 -826.555000 -152.174000 1 1.000000 1 -3.000000
330 2 -223.164000 -827.751000 -144.097000 1 1.000000 1 -3.000000
331 2 -218.091000 -827.787000 -135.637000 1 1.000000 1 -3.000000
332 2 -214.477000 -826.750000 -126.514000 1 1.000000 1 -3.000000
333 2 -212.652000 -825.372000 -116.929000 1 1.000000 1 -3.000000
334 2 -211.535000 -822.741000 -107.434000 1 1.000000 1 -3.000000
335 2 -210.213000 -818.082000 -98.723400 1 1.000000 1 -3.000000
336 2 -208.682000 -812.283000 -90.698700 1 1.000000 1 -3.000000
337 2 -207.132000 -807.213000 -82.411700 1 1.000000 1 -3.000000
338 2 -206.066000 -801.042000 -74.798000 1 1.000000 1 -3.000000
339 2 -205.333000 -796.805000 -65.926100 1 1.000000 1 -3.000000
340 2 -205.770000 -791.887000 -57.383900 1 1.000000 1 -3.000000
341 2 -207.820000 -786.855000 -49.037600 1 1.000000 1 -3.000000
342 2 -209.849000 -782.374000 -40.568500 1 1.000000 1 -3.000000
343 2 -210.623000 -775.176000 -33.722700 1 1.000000 1 -3.000000
344 2 -215.167000 -768.714000 -27.704500 1 1.000000 1 -3.000000
345 2 -218.923000 -762.937000 -20.546800 1 1.000000 14 -3.000000
346 1 -185.088000 -731.302000 -29.614400 1 1.000000 14 0.000000
347 3 -187.752000 -748.921000 -59.762400 1 1.000000 14 0.000000
348 2 -151.688000 -711.742000 -56.588900 1 1.000000 14 -3.000000
349 2 -156.001000 -713.278000 -65.316600 1 1.000000 1 -3.000000
350 2 -160.529000 -716.277000 -73.542500 1 1.000000 1 -3.000000
351 2 -164.235000 -719.406000 -82.168600 1 1.000000 1 -3.000000
352 2 -167.448000 -722.480000 -91.027900 1 1.000000 1 -3.000000
353 2 -169.746000 -723.013000 -100.666000 1 1.000000 1 -3.000000
354 2 -171.449000 -723.374000 -110.363000 1 1.000000 1 -3.000000
355 2 -171.758000 -725.027000 -120.140000 1 1.000000 1 -3.000000
356 2 -173.007000 -726.628000 -129.834000 1 1.000000 1 -3.000000
357 2 -175.474000 -728.059000 -139.295000 1 1.000000 1 -3.000000
358 2 -179.054000 -729.442000 -148.448000 1 1.000000 1 -3.000000
359 2 -182.912000 -731.829000 -157.309000 1 1.000000 1 -3.000000
360 2 -188.016000 -734.907000 -165.233000 1 1.000000 1 -3.000000
361 2 -192.825000 -736.092000 -173.814000 1 1.000000 1 -3.000000
362 2 -196.068000 -735.759000 -183.209000 1 1.000000 1 -3.000000
363 2 -198.096000 -736.136000 -192.853000 1 1.000000 1 -3.000000
364 2 -199.413000 -737.160000 -202.634000 1 1.000000 1 -3.000000
365 2 -202.760000 -738.541000 -211.838000 1 1.000000 1 -3.000000
366 2 -206.588000 -739.439000 -220.879000 1 1.000000 1 -3.000000
367 2 -210.430000 -741.992000 -229.729000 1 1.000000 1 -3.000000
368 2 -216.718000 -744.344000 -237.087000 1 1.000000 1 -3.000000
369 2 -224.340000 -743.281000 -243.249000 1 1.000000 1 -3.000000
370 2 -233.058000 -742.353000 -247.708000 1 1.000000 1 -3.000000
371 2 -242.358000 -742.087000 -251.103000 1 1.000000 1 -3.000000
372 2 -250.733000 -739.616000 -255.772000 1 1.000000 15 -3.000000
373 1 -271.049000 -709.171000 -225.979000 1 1.000000 15 0.000000
374 3 -237.655000 -709.271000 -215.724000 1 1.000000 15 0.000000
375 2 -271.297000 -680.685000 -188.339000 1 1.000000 15 -3.000000
376 2 -261.564000 -679.360000 -189.446000 1 1.000000 1 -3.000000
377 2 -252.198000 -676.018000 -189.724000 1 1.000000 1 -3.000000
378 2 -242.456000 -674.946000 -188.814000 1 1.000000 1 -3.000000
379 2 -232.617000 -673.925000 -188.866000 1 1.000000 1 -3.000000
380 2 -222.908000 -674.635000 -190.540000 1 1.000000 1 -3.000000
381 2 -213.390000 -676.832000 -192.635000 1 1.000000 1 -3.000000
382 2 -204.557000 -680.153000 -195.796000 1 1.000000 1 -3.000000
383 2 -195.664000 -680.868000 -199.922000 1 1.000000 1 -3.000000
384 2 -186.685000 -682.503000 -203.723000 1 1.000000 1 -3.000000
385 2 -177.832000 -682.975000 -208.195000 1 1.000000 1 -3.000000
386 2 -169.813000 -683.898000 -213.983000 1 1.000000 1 -3.000000
387 2 -162.286000 -685.230000 -220.216000 1 1.000000 1 -3.000000
388 2 -155.748000 -687.175000 -227.438000 1 1.000000 1 -3.000000
389 2 -150.640000 -686.680000 -235.981000 1 1.000000 1 -3.000000
390 2 -146.246000 -687.615000 -244.805000 1 1.000000 1 -3.000000
391 2 -140.523000 -687.616000 -252.853000 1 1.000000 1 -3.000000
392 2 -135.298000 -686.897000 -261.185000 1 1.000000 1 -3.000000
393 2 -131.582000 -686.472000 -270.434000 1 1.000000 1 -3.000000
394 2 -129.340000 -688.701000 -279.834000 1 1.000000 1 -3.000000
395 2 -127.942000 -691.570000 -289.240000 1 1.000000 1 -3.000000
396 2 -126.345000 -692.317000 -298.967000 1 1.000000 1 -3.000000
397 2 -125.040000 -692.807000 -308.771000 1 1.000000 1 -3.000000
398 2 -126.405000 -692.776000 -318.574000 1 1.000000 1 -3.000000
399 2 -128.789000 -691.742000 -328.102000 1 1.000000 16 -3.000000
400 1 -130.664000 -644.658000 -330.825000 1 1.000000 16 0.000000
401 3 -115.434000 -650.311000 -299.853000 1 1.000000 16 0.000000
402 2 -121.553000 -601.083000 -315.206000 1 1.000000 16 -3.000000
403 2 -114.231000 -604.529000 -309.426000 1 1.000000 1 -3.000000
404 2 -106.448000 -606.715000 -303.634000 1 1.000000 1 -3.000000
405 2 -99.797600 -609.044000 -296.656000 1 1.000000 1 -3.000000
406 2 -92.494000 -612.857000 -291.153000 1 1.000000 1 -3.000000
407 2 -87.624100 -619.236000 -285.256000 1 1.000000 1 -3.000000
408 2 -83.065000 -625.120000 -278.728000 1 1.000000 1 -3.000000
409 2 -76.479000 -629.513000 -272.821000 1 1.000000 1 -3.000000
410 2 -69.621600 -633.576000 -266.975000 1 1.000000 1 -3.000000
411 2 -62.514800 -639.094000 -262.626000 1 1.000000 1 -3.000000
412 2 -56.027400 -643.836000 -256.923000 1 1.000000 1 -3.000000
413 2 -48.950500 -647.917000 -251.259000 1 1.000000 1 -3.000000
414 2 -41.541300 -652.175000 -246.268000 1 1.000000 1 -3.000000
415 2 -33.043400 -656.038000 -242.786000 1 1.000000 1 -3.000000
416 2 -26.186300 -660.179000 -237.029000 1 1.000000 1 -3.000000
417 2 -19.944600 -665.389000 -231.433000 1 1.000000 1 -3.000000
418 2 -15.188300 -672.282000 -226.194000 1 1.000000 1 -3.000000
419 2 -12.423400 -679.224000 -219.714000 1 1.000000 1 -3.000000
420 2 -10.305500 -687.253000 -214.383000 1 1.000000 1 -3.000000
421 2 -9.940730 -695.665000 -209.137000 1 1.000000 1 -3.000000
422 2 -7.809210 -704.665000 -205.397000 1 1.000000 1 -3.000000
423 2 -5.372830 -713.119000 -200.941000 1 1.000000 1 -3.000000
424 2 -4.169730 -722.863000 -199.958000 1 1.000000 1 -3.000000
425 2 -1.479800 -732.423000 -199.791000 1 1.000000 1 -3.000000
426 2 0.826931 -742.074000 -199.003000 1 1.000000 17 -3.000000
427 1 -4.491590 -754.239000 -244.272000 1 1.000000 17 0.000000
428 3 0.922712 -719.692000 -245.743000 1 1.000000 17 0.000000
429 2 -6.510520 -745.109000 -290.516000 1 1.000000 17 -3.000000
430 2 -2.538570 -736.311000 -288.852000 1 1.000000 1 -3.000000
431 2 2.516560 -727.797000 -288.252000 1 1.000000 1 -3.000000
432 2 9.178850 -720.678000 -286.808000 1 1.000000 1 -3.000000
433 2 16.771400 -714.634000 -285.108000 1 1.000000 1 -3.000000
434 2 24.119000 -708.151000 -283.617000 1 1.000000 1 -3.000000
435 2 31.321000 -702.125000 -280.792000 1 1.000000 1 -3.000000
436 2 38.493100 -695.481000 -278.879000 1 1.000000 1 -3.000000
437 2 45.675800 -688.603000 -279.815000 1 1.000000 1 -3.000000
438 2 52.789000 -681.731000 -280.950000 1 1.000000 1 -3.000000
439 2 59.929600 -674.902000 -281.484000 1 1.000000 1 -3.000000
440 2 65.982900 -667.007000 -281.958000 1 1.000000 1 -3.000000
441 2 71.283600 -658.727000 -283.482000 1 1.000000 1 -3.000000
442 2 77.835900 -651.262000 -282.625000 1 1.000000 1 -3.000000
443 2 83.029500 -643.172000 -280.203000 1 1.000000 1 -3.000000
444 2 88.060700 -634.899000 -277.967000 1 1.000000 1 -3.000000
445 2 88.207800 -625.780000 -274.191000 1 1.000000 1 -3.000000
446 2 88.126500 -617.063000 -269.461000 1 1.000000 1 -3.000000
447 2 88.427000 -607.654000 -266.273000 1 1.000000 1 -3.000000
448 2 88.707700 -598.191000 -263.544000 1 1.000000 1 -3.000000
449 2 85.673400 -589.275000 -260.912000 1 1.000000 1 -3.000000
450 2 82.115800 -581.185000 -256.459000 1 1.000000 1 -3.000000
451 2 76.524300 -573.516000 -253.617000 1 1.000000 1 -3.000000
452 2 69.142200 -567.193000 -251.964000 1 1.000000 1 -3.000000
453 2 61.854800 -560.699000 -252.707000 1 1.000000 18 -3.000000
454 1 24.751900 -588.728000 -244.788000 1 1.000000 18 0.000000
455 3 52.014800 -609.364000 -237.698000 1 1.000000 18 0.000000
456 2 4.475160 -629.006000 -230.891000 1 1.000000 18 -3.000000
457 2 12.488400 -631.677000 -225.701000 1 1.000000 1 -3.000000
458 2 19.988600 -634.333000 -219.809000 1 1.000000 1 -3.000000
459 2 27.749800 -635.852000 -213.860000 1 1.000000 1 -3.000000
460 2 36.479000 -637.620000 -209.555000 1 1.000000 1 -3.000000
461 2 45.892400 -638.688000 -206.714000 1 1.000000 1 -3.000000
462 2 55.457400 -638.476000 -204.411000 1 1.000000 1 -3.000000
463 2 64.735500 -635.467000 -202.648000 1 1.000000 1 -3.000000
464 2 73.349200 -630.572000 -202.764000 1 1.000000 1 -3.000000
465 2 82.587400 -627.007000 -202.906000 1 1.000000 1 -3.000000
466 2 91.216200 -622.199000 -203.886000 1 1.000000 1 -3.000000