LAMMPS data file

4067 atoms
4067 ellipsoids
4516 bonds
8882 angles
0 dihedrals

3 atom types
5 bond types
12 angle types
0 dihedral types

-4631.092947 4670.465898 xlo xhi
-4631.092947 4670.465898 ylo yhi
-4631.092947 4670.465898 zlo zhi

Masses

1 196016.000000
2 1950.000000
3 19500.000000

Atoms

1 2 -78.640400 -672.546000 169.164000 1 1.000000 1 -3.000000
2 2 -72.701400 -671.609000 161.290000 1 1.000000 1 -3.000000
3 2 -69.174800 -669.336000 152.326000 1 1.000000 1 -3.000000
4 2 -64.159300 -669.286000 143.779000 1 1.000000 1 -3.000000
5 2 -58.940500 -669.430000 135.422000 1 1.000000 1 -3.000000
6 2 -54.907800 -669.231000 126.398000 1 1.000000 1 -3.000000
7 2 -51.572600 -668.727000 117.060000 1 1.000000 1 -3.000000
8 2 -47.951000 -670.224000 107.894000 1 1.000000 1 -3.000000
9 2 -45.057000 -671.199000 98.455900 1 1.000000 1 -3.000000
10 2 -44.272100 -670.710000 88.604600 1 1.000000 1 -3.000000
11 2 -42.524400 -668.672000 79.040200 1 1.000000 1 -3.000000
12 2 -40.809100 -667.107000 69.400700 1 1.000000 1 -3.000000
13 2 -40.027000 -663.146000 60.396900 1 1.000000 1 -3.000000
14 2 -40.422600 -657.716000 52.096500 1 1.000000 1 -3.000000
15 2 -40.334000 -652.558000 43.691400 1 1.000000 1 -3.000000
16 2 -41.019600 -648.986000 34.534200 1 1.000000 1 -3.000000
17 2 -43.437300 -643.722000 26.605000 1 1.000000 1 -3.000000
18 2 -48.122100 -637.348000 20.579900 1 1.000000 1 -3.000000
19 2 -51.415700 -629.690000 15.401500 1 1.000000 1 -3.000000
20 2 -53.364500 -621.334000 10.420700 1 1.000000 1 -3.000000
21 2 -56.477000 -612.847000 6.472600 1 1.000000 2 -3.000000
22 1 -95.976200 -607.898000 31.888100 1 1.000000 2 0.000000
23 3 -73.983800 -623.533000 54.158200 1 1.000000 2 0.000000
24 2 -121.695000 -612.313000 71.218200 1 1.000000 2 -3.000000
25 2 -115.087000 -613.506000 78.473900 1 1.000000 1 -3.000000
26 2 -108.433000 -615.522000 85.539300 1 1.000000 1 -3.000000
27 2 -100.106000 -616.219000 90.686200 1 1.000000 1 -3.000000
28 2 -91.619300 -617.931000 95.592700 1 1.000000 1 -3.000000
29 2 -82.511200 -619.788000 98.955800 1 1.000000 1 -3.000000
30 2 -72.724800 -621.423000 99.515800 1 1.000000 1 -3.000000
31 2 -62.943200 -622.460000 98.765500 1 1.000000 1 -3.000000
32 2 -52.990500 -622.866000 98.375300 1 1.000000 1 -3.000000
33 2 -43.126800 -623.221000 98.724700 1 1.000000 1 -3.000000
34 2 -33.290600 -623.852000 97.646700 1 1.000000 1 -3.000000
35 2 -23.884200 -626.883000 97.697100 1 1.000000 1 -3.000000
36 2 -14.893100 -630.615000 96.060800 1 1.000000 1 -3.000000
37 2 -5.545990 -633.617000 94.593300 1 1.000000 1 -3.000000
38 2 4.049250 -634.501000 92.164700 1 1.000000 1 -3.000000
39 2 13.555100 -633.710000 89.445600 1 1.000000 1 -3.000000
40 2 22.985300 -633.218000 86.441700 1 1.000000 1 -3.000000
41 2 31.555800 -635.341000 81.947500 1 1.000000 1 -3.000000
42 2 40.474100 -637.518000 78.355000 1 1.000000 1 -3.000000
43 2 49.150700 -640.458000 74.783500 1 1.000000 1 -3.000000
44 2 58.627600 -640.875000 71.972700 1 1.000000 1 -3.000000
45 2 67.747100 -643.049000 68.650200 1 1.000000 1 -3.000000
46 2 76.862400 -646.466000 66.547500 1 1.000000 1 -3.000000
47 2 85.337900 -648.123000 61.861100 1 1.000000 1 -3.000000
48 2 93.277500 -647.911000 55.970800 1 1.000000 3 -3.000000
49 1 83.221500 -620.090000 19.248000 1 1.000000 3 0.000000
50 3 56.388800 -614.583000 41.010200 1 1.000000 3 0.000000
51 2 56.124200 -589.520000 -4.372880 1 1.000000 3 -3.000000
52 2 49.281900 -586.886000 2.225620 1 1.000000 1 -3.000000
53 2 44.214600 -583.887000 10.132400 1 1.000000 1 -3.000000
54 2 38.047100 -581.684000 17.672300 1 1.000000 1 -3.000000
55 2 33.080800 -579.565000 26.025200 1 1.000000 1 -3.000000
56 2 30.119300 -579.862000 35.452700 1 1.000000 1 -3.000000
57 2 28.376900 -579.517000 45.153400 1 1.000000 1 -3.000000
58 2 25.616000 -580.799000 54.497200 1 1.000000 1 -3.000000
59 2 22.396000 -580.844000 63.853900 1 1.000000 1 -3.000000
60 2 19.131000 -581.384000 73.238400 1 1.000000 1 -3.000000
61 2 15.072700 -582.439000 82.277500 1 1.000000 1 -3.000000
62 2 9.040300 -585.228000 89.598200 1 1.000000 1 -3.000000
63 2 3.587660 -589.149000 96.664600 1 1.000000 1 -3.000000
64 2 -2.338490 -593.223000 103.525000 1 1.000000 1 -3.000000
65 2 -8.141450 -597.076000 110.637000 1 1.000000 1 -3.000000
66 2 -14.037600 -599.747000 118.349000 1 1.000000 1 -3.000000
67 2 -19.498100 -605.696000 124.090000 1 1.000000 1 -3.000000
68 2 -24.682600 -612.478000 129.030000 1 1.000000 1 -3.000000
69 2 -29.974600 -619.677000 133.360000 1 1.000000 1 -3.000000
70 2 -35.197300 -626.418000 138.314000 1 1.000000 1 -3.000000
71 2 -41.237700 -632.428000 143.285000 1 1.000000 1 -3.000000
72 2 -46.225500 -638.595000 149.415000 1 1.000000 1 -3.000000
73 2 -53.324100 -643.363000 154.334000 1 1.000000 1 -3.000000
74 2 -58.486700 -647.611000 161.555000 1 1.000000 1 -3.000000
75 2 -63.861200 -650.771000 169.183000 1 1.000000 4 -3.000000
76 1 -74.349400 -612.479000 194.718000 1 1.000000 4 0.000000
77 3 -57.933300 -599.120000 166.875000 1 1.000000 4 0.000000
78 2 -75.874900 -566.018000 202.636000 1 1.000000 4 -3.000000
79 2 -74.566300 -561.395000 193.989000 1 1.000000 1 -3.000000
80 2 -71.949800 -556.550000 185.845000 1 1.000000 1 -3.000000
81 2 -68.612800 -555.482000 176.647000 1 1.000000 1 -3.000000
82 2 -64.974900 -554.451000 167.507000 1 1.000000 1 -3.000000
83 2 -62.054600 -552.409000 158.264000 1 1.000000 1 -3.000000
84 2 -59.647600 -549.581000 149.113000 1 1.000000 1 -3.000000
85 2 -58.550000 -546.967000 139.666000 1 1.000000 1 -3.000000
86 2 -55.861900 -543.612000 130.771000 1 1.000000 1 -3.000000
87 2 -54.588600 -538.859000 122.263000 1 1.000000 1 -3.000000
88 2 -53.829800 -534.528000 113.345000 1 1.000000 1 -3.000000
89 2 -54.452000 -529.753000 104.719000 1 1.000000 1 -3.000000
90 2 -55.584800 -522.482000 98.081100 1 1.000000 1 -3.000000
91 2 -57.116000 -514.274000 92.764600 1 1.000000 1 -3.000000
92 2 -56.779700 -506.177000 87.042200 1 1.000000 1 -3.000000
93 2 -56.054300 -498.624000 80.710500 1 1.000000 1 -3.000000
94 2 -53.916800 -492.568000 73.125400 1 1.000000 1 -3.000000
95 2 -53.590200 -484.397000 67.488300 1 1.000000 1 -3.000000
96 2 -52.647700 -475.476000 63.292100 1 1.000000 1 -3.000000
97 2 -51.146600 -467.269000 58.011500 1 1.000000 1 -3.000000
98 2 -47.407600 -458.734000 54.689700 1 1.000000 1 -3.000000
99 2 -41.581800 -450.668000 54.125700 1 1.000000 1 -3.000000
100 2 -35.617700 -442.820000 54.450700 1 1.000000 1 -3.000000
101 2 -30.691200 -434.251000 55.402100 1 1.000000 1 -3.000000
102 2 -26.846200 -425.142000 54.636100 1 1.000000 5 -3.000000
103 1 -39.028400 -415.327000 99.124200 1 1.000000 5 0.000000
104 3 -37.526000 -450.310000 98.858000 1 1.000000 5 0.000000
105 2 -51.316800 -426.935000 143.141000 1 1.000000 5 -3.000000
106 2 -46.228800 -435.138000 145.748000 1 1.000000 1 -3.000000
107 2 -42.368500 -444.236000 146.533000 1 1.000000 1 -3.000000
108 2 -37.775900 -452.741000 144.398000 1 1.000000 1 -3.000000
109 2 -33.601700 -461.371000 142.548000 1 1.000000 1 -3.000000
110 2 -30.332800 -469.916000 138.788000 1 1.000000 1 -3.000000
111 2 -28.690500 -477.928000 133.179000 1 1.000000 1 -3.000000
112 2 -25.613700 -486.842000 129.921000 1 1.000000 1 -3.000000
113 2 -20.526800 -495.241000 129.124000 1 1.000000 1 -3.000000
114 2 -15.254100 -503.223000 126.697000 1 1.000000 1 -3.000000
115 2 -11.478900 -511.800000 123.371000 1 1.000000 1 -3.000000
116 2 -6.157540 -518.656000 118.447000 1 1.000000 1 -3.000000
117 2 -2.474200 -526.628000 113.963000 1 1.000000 1 -3.000000
118 2 -0.936553 -534.279000 107.938000 1 1.000000 1 -3.000000
119 2 4.256130 -540.374000 102.335000 1 1.000000 1 -3.000000
120 2 10.471400 -546.613000 97.815300 1 1.000000 1 -3.000000
121 2 18.199200 -551.297000 93.834400 1 1.000000 1 -3.000000
122 2 26.318200 -554.346000 88.945700 1 1.000000 1 -3.000000
123 2 33.458700 -557.694000 82.960100 1 1.000000 1 -3.000000
124 2 40.307300 -559.873000 76.396000 1 1.000000 1 -3.000000
125 2 47.614700 -561.119000 69.726500 1 1.000000 1 -3.000000
126 2 54.489900 -561.702000 62.681700 1 1.000000 1 -3.000000
127 2 59.965000 -560.812000 54.513900 1 1.000000 1 -3.000000
128 2 64.829800 -558.798000 46.222600 1 1.000000 1 -3.000000
129 2 70.521500 -556.663000 38.433100 1 1.000000 6 -3.000000
130 1 42.761800 -524.208000 18.316400 1 1.000000 6 0.000000
131 3 32.165700 -524.333000 51.699600 1 1.000000 6 0.000000
132 2 7.989310 -492.372000 18.637100 1 1.000000 6 -3.000000
133 2 9.500780 -490.728000 28.256600 1 1.000000 1 -3.000000
134 2 8.895310 -488.705000 38.016300 1 1.000000 1 -3.000000
135 2 8.193220 -486.416000 47.593000 1 1.000000 1 -3.000000
136 2 8.713600 -486.884000 57.483200 1 1.000000 1 -3.000000
137 2 10.973500 -487.974000 67.082300 1 1.000000 1 -3.000000
138 2 15.881200 -489.801000 75.499000 1 1.000000 1 -3.000000
139 2 20.373500 -494.029000 83.245900 1 1.000000 1 -3.000000
140 2 24.041100 -498.565000 91.189800 1 1.000000 1 -3.000000
141 2 29.648200 -503.373000 97.830400 1 1.000000 1 -3.000000
142 2 33.967000 -508.308000 105.211000 1 1.000000 1 -3.000000
143 2 36.443200 -514.979000 112.204000 1 1.000000 1 -3.000000
144 2 40.691800 -520.097000 119.547000 1 1.000000 1 -3.000000
145 2 45.616600 -527.760000 123.389000 1 1.000000 1 -3.000000
146 2 45.458600 -536.335000 128.551000 1 1.000000 1 -3.000000
147 2 43.469900 -543.591000 135.030000 1 1.000000 1 -3.000000
148 2 43.765400 -552.170000 139.845000 1 1.000000 1 -3.000000
149 2 41.336500 -560.655000 144.318000 1 1.000000 1 -3.000000
150 2 38.435100 -568.391000 149.749000 1 1.000000 1 -3.000000
151 2 35.701000 -576.809000 154.255000 1 1.000000 1 -3.000000
152 2 34.933900 -585.395000 159.174000 1 1.000000 1 -3.000000
153 2 36.426700 -594.830000 161.711000 1 1.000000 1 -3.000000
154 2 40.661500 -603.476000 163.801000 1 1.000000 1 -3.000000
155 2 43.790100 -612.858000 164.142000 1 1.000000 1 -3.000000
156 2 45.180600 -622.514000 165.966000 1 1.000000 7 -3.000000
157 1 65.844200 -629.580000 124.107000 1 1.000000 7 0.000000
158 3 66.852200 -594.785000 127.796000 1 1.000000 7 0.000000
159 2 88.807700 -615.215000 85.429000 1 1.000000 7 -3.000000
160 2 90.730800 -605.849000 87.928200 1 1.000000 1 -3.000000
161 2 92.913900 -596.433000 90.281400 1 1.000000 1 -3.000000
162 2 93.852900 -587.298000 93.938100 1 1.000000 1 -3.000000
163 2 94.243600 -577.893000 96.900200 1 1.000000 1 -3.000000
164 2 94.994700 -569.368000 101.749000 1 1.000000 1 -3.000000
165 2 97.234500 -561.085000 106.611000 1 1.000000 1 -3.000000
166 2 100.099000 -552.525000 110.578000 1 1.000000 1 -3.000000
167 2 103.502000 -544.274000 115.075000 1 1.000000 1 -3.000000
168 2 107.044000 -536.160000 119.322000 1 1.000000 1 -3.000000
169 2 110.245000 -529.355000 125.844000 1 1.000000 1 -3.000000
170 2 114.998000 -522.497000 131.135000 1 1.000000 1 -3.000000
171 2 118.066000 -516.291000 138.222000 1 1.000000 1 -3.000000
172 2 121.417000 -511.041000 145.925000 1 1.000000 1 -3.000000
173 2 125.586000 -505.777000 153.213000 1 1.000000 1 -3.000000
174 2 128.872000 -500.265000 160.797000 1 1.000000 1 -3.000000
175 2 133.544000 -496.284000 168.573000 1 1.000000 1 -3.000000
176 2 137.894000 -493.741000 177.116000 1 1.000000 1 -3.000000
177 2 141.991000 -492.028000 185.911000 1 1.000000 1 -3.000000
178 2 144.534000 -492.622000 195.479000 1 1.000000 1 -3.000000
179 2 145.669000 -495.922000 204.759000 1 1.000000 1 -3.000000
180 2 147.558000 -499.978000 213.598000 1 1.000000 1 -3.000000
181 2 148.723000 -504.221000 222.583000 1 1.000000 1 -3.000000
182 2 150.182000 -509.508000 230.751000 1 1.000000 1 -3.000000
183 2 152.166000 -515.028000 238.725000 1 1.000000 8 -3.000000
184 1 174.996000 -482.431000 264.085000 1 1.000000 8 0.000000
185 3 163.028000 -464.310000 236.666000 1 1.000000 8 0.000000
186 2 189.521000 -438.484000 273.050000 1 1.000000 8 -3.000000
187 2 183.074000 -435.349000 266.263000 1 1.000000 1 -3.000000
188 2 177.368000 -429.820000 260.378000 1 1.000000 1 -3.000000
189 2 171.425000 -425.095000 254.043000 1 1.000000 1 -3.000000
190 2 163.439000 -421.444000 249.451000 1 1.000000 1 -3.000000
191 2 156.901000 -418.310000 242.833000 1 1.000000 1 -3.000000
192 2 152.136000 -419.348000 234.262000 1 1.000000 1 -3.000000
193 2 146.444000 -423.590000 227.261000 1 1.000000 1 -3.000000
194 2 139.919000 -428.716000 221.830000 1 1.000000 1 -3.000000
195 2 132.469000 -430.483000 215.544000 1 1.000000 1 -3.000000
196 2 125.487000 -434.132000 209.462000 1 1.000000 1 -3.000000
197 2 118.887000 -436.883000 202.642000 1 1.000000 1 -3.000000
198 2 110.779000 -440.286000 198.070000 1 1.000000 1 -3.000000
199 2 102.977000 -444.665000 193.821000 1 1.000000 1 -3.000000
200 2 95.087300 -450.260000 191.905000 1 1.000000 1 -3.000000
201 2 86.862400 -455.802000 190.955000 1 1.000000 1 -3.000000
202 2 79.899400 -462.869000 191.530000 1 1.000000 1 -3.000000
203 2 72.331600 -469.075000 190.335000 1 1.000000 1 -3.000000
204 2 65.850800 -476.096000 187.753000 1 1.000000 1 -3.000000
205 2 60.160600 -483.943000 185.876000 1 1.000000 1 -3.000000
206 2 52.286800 -488.944000 182.612000 1 1.000000 1 -3.000000
207 2 45.131700 -494.866000 179.041000 1 1.000000 1 -3.000000
208 2 37.822900 -498.878000 173.631000 1 1.000000 1 -3.000000
209 2 30.487800 -502.411000 167.995000 1 1.000000 1 -3.000000
210 2 24.065200 -507.139000 162.184000 1 1.000000 9 -3.000000
211 1 25.073400 -478.952000 124.393000 1 1.000000 9 0.000000
212 3 50.907900 -466.471000 144.346000 1 1.000000 9 0.000000
213 2 41.057700 -442.153000 99.587100 1 1.000000 9 -3.000000
214 2 50.526500 -442.591000 102.538000 1 1.000000 1 -3.000000
215 2 59.356800 -441.833000 106.934000 1 1.000000 1 -3.000000
216 2 67.506700 -440.335000 112.462000 1 1.000000 1 -3.000000
217 2 74.664600 -441.075000 119.254000 1 1.000000 1 -3.000000
218 2 82.289800 -443.089000 125.175000 1 1.000000 1 -3.000000
219 2 89.547500 -445.373000 131.566000 1 1.000000 1 -3.000000
220 2 97.369800 -449.089000 136.361000 1 1.000000 1 -3.000000
221 2 102.980000 -452.192000 143.873000 1 1.000000 1 -3.000000
222 2 108.934000 -452.974000 151.842000 1 1.000000 1 -3.000000
223 2 116.664000 -452.838000 158.129000 1 1.000000 1 -3.000000
224 2 123.470000 -453.258000 165.338000 1 1.000000 1 -3.000000
225 2 131.041000 -450.949000 171.236000 1 1.000000 1 -3.000000
226 2 138.154000 -448.126000 177.443000 1 1.000000 1 -3.000000
227 2 146.054000 -446.813000 183.295000 1 1.000000 1 -3.000000
228 2 154.192000 -445.793000 188.815000 1 1.000000 1 -3.000000
229 2 161.784000 -444.732000 195.245000 1 1.000000 1 -3.000000
230 2 170.424000 -443.556000 200.167000 1 1.000000 1 -3.000000
231 2 179.907000 -443.173000 202.970000 1 1.000000 1 -3.000000
232 2 189.105000 -441.091000 206.053000 1 1.000000 1 -3.000000
233 2 198.520000 -440.843000 209.192000 1 1.000000 1 -3.000000
234 2 207.609000 -438.871000 212.619000 1 1.000000 1 -3.000000
235 2 215.472000 -434.125000 216.393000 1 1.000000 1 -3.000000
236 2 223.918000 -429.440000 218.718000 1 1.000000 1 -3.000000
237 2 233.184000 -425.894000 219.325000 1 1.000000 10 -3.000000
238 1 221.474000 -383.100000 203.324000 1 1.000000 10 0.000000
239 3 190.413000 -397.943000 209.907000 1 1.000000 10 0.000000
240 2 190.642000 -350.235000 189.264000 1 1.000000 10 -3.000000
241 2 182.397000 -353.927000 193.316000 1 1.000000 1 -3.000000
242 2 174.122000 -357.608000 197.077000 1 1.000000 1 -3.000000
243 2 166.896000 -362.156000 202.086000 1 1.000000 1 -3.000000
244 2 160.432000 -367.076000 207.849000 1 1.000000 1 -3.000000
245 2 155.004000 -374.205000 211.955000 1 1.000000 1 -3.000000
246 2 149.952000 -380.633000 217.675000 1 1.000000 1 -3.000000
247 2 144.353000 -386.558000 223.364000 1 1.000000 1 -3.000000
248 2 137.783000 -392.576000 227.593000 1 1.000000 1 -3.000000
249 2 131.871000 -400.127000 230.144000 1 1.000000 1 -3.000000
250 2 123.999000 -405.911000 231.739000 1 1.000000 1 -3.000000
251 2 116.182000 -411.640000 233.556000 1 1.000000 1 -3.000000
252 2 109.145000 -418.439000 234.248000 1 1.000000 1 -3.000000
253 2 103.132000 -426.021000 236.407000 1 1.000000 1 -3.000000
254 2 98.484500 -434.610000 238.373000 1 1.000000 1 -3.000000
255 2 94.774700 -442.967000 242.314000 1 1.000000 1 -3.000000
256 2 89.994700 -451.512000 243.424000 1 1.000000 1 -3.000000
257 2 85.283300 -459.404000 246.994000 1 1.000000 1 -3.000000
258 2 79.352500 -466.211000 251.276000 1 1.000000 1 -3.000000
259 2 74.985600 -473.498000 256.372000 1 1.000000 1 -3.000000
260 2 71.566600 -480.334000 262.621000 1 1.000000 1 -3.000000
261 2 72.310400 -486.196000 270.524000 1 1.000000 1 -3.000000
262 2 72.856800 -491.780000 278.726000 1 1.000000 1 -3.000000
263 2 74.205200 -495.598000 287.654000 1 1.000000 1 -3.000000
264 2 74.884600 -500.403000 296.224000 1 1.000000 11 -3.000000
265 1 113.766000 -479.885000 313.389000 1 1.000000 11 0.000000
266 3 103.554000 -457.977000 288.164000 1 1.000000 11 0.000000
267 2 145.073000 -444.659000 316.425000 1 1.000000 11 -3.000000
268 2 139.796000 -436.991000 312.904000 1 1.000000 1 -3.000000
269 2 134.486000 -430.234000 308.069000 1 1.000000 1 -3.000000
270 2 130.191000 -423.215000 302.548000 1 1.000000 1 -3.000000
271 2 123.931000 -419.365000 295.918000 1 1.000000 1 -3.000000
272 2 116.492000 -415.073000 291.073000 1 1.000000 1 -3.000000
273 2 109.958000 -411.554000 284.468000 1 1.000000 1 -3.000000
274 2 103.551000 -407.014000 278.570000 1 1.000000 1 -3.000000
275 2 97.597100 -401.429000 272.935000 1 1.000000 1 -3.000000
276 2 90.988800 -396.894000 267.198000 1 1.000000 1 -3.000000
277 2 85.722000 -391.101000 261.172000 1 1.000000 1 -3.000000
278 2 83.026200 -383.673000 255.239000 1 1.000000 1 -3.000000
279 2 79.753300 -376.417000 249.445000 1 1.000000 1 -3.000000
280 2 77.327800 -369.899000 242.324000 1 1.000000 1 -3.000000
281 2 76.758600 -363.166000 235.083000 1 1.000000 1 -3.000000
282 2 74.167700 -356.640000 228.015000 1 1.000000 1 -3.000000
283 2 71.002400 -350.252000 221.100000 1 1.000000 1 -3.000000
284 2 69.385100 -342.467000 215.180000 1 1.000000 1 -3.000000
285 2 66.415200 -335.322000 209.086000 1 1.000000 1 -3.000000
286 2 63.002000 -329.221000 202.026000 1 1.000000 1 -3.000000
287 2 59.202500 -322.697000 195.653000 1 1.000000 1 -3.000000
288 2 55.060800 -314.674000 191.766000 1 1.000000 1 -3.000000
289 2 49.745500 -306.952000 188.565000 1 1.000000 1 -3.000000
290 2 43.559400 -300.470000 184.401000 1 1.000000 1 -3.000000
291 2 36.524100 -294.776000 180.379000 1 1.000000 12 -3.000000
292 1 4.837880 -300.464000 214.849000 1 1.000000 12 0.000000
293 3 35.235800 -307.492000 230.678000 1 1.000000 12 0.000000
294 2 -8.211180 -311.956000 258.715000 1 1.000000 12 -3.000000
295 2 0.259434 -309.878000 263.414000 1 1.000000 1 -3.000000
296 2 8.276110 -306.212000 268.169000 1 1.000000 1 -3.000000
297 2 17.382900 -304.014000 271.446000 1 1.000000 1 -3.000000
298 2 26.753800 -302.096000 273.650000 1 1.000000 1 -3.000000
299 2 36.456100 -301.352000 275.281000 1 1.000000 1 -3.000000
300 2 46.216400 -303.076000 273.972000 1 1.000000 1 -3.000000
301 2 55.614300 -302.404000 270.734000 1 1.000000 1 -3.000000
302 2 64.805800 -302.051000 267.147000 1 1.000000 1 -3.000000
303 2 73.001500 -302.676000 261.605000 1 1.000000 1 -3.000000
304 2 81.702900 -303.122000 256.898000 1 1.000000 1 -3.000000
305 2 90.260800 -303.251000 251.764000 1 1.000000 1 -3.000000
306 2 96.772000 -305.205000 244.603000 1 1.000000 1 -3.000000
307 2 102.183000 -307.061000 236.560000 1 1.000000 1 -3.000000
308 2 107.836000 -309.457000 228.839000 1 1.000000 1 -3.000000
309 2 115.158000 -311.755000 222.528000 1 1.000000 1 -3.000000
310 2 120.391000 -314.175000 214.398000 1 1.000000 1 -3.000000
311 2 123.739000 -316.843000 205.447000 1 1.000000 1 -3.000000
312 2 124.232000 -319.703000 195.933000 1 1.000000 1 -3.000000
313 2 124.038000 -321.869000 186.253000 1 1.000000 1 -3.000000
314 2 122.513000 -323.027000 176.568000 1 1.000000 1 -3.000000
315 2 121.387000 -320.979000 166.904000 1 1.000000 1 -3.000000
316 2 117.163000 -317.283000 158.617000 1 1.000000 1 -3.000000
317 2 113.259000 -314.906000 149.767000 1 1.000000 1 -3.000000
318 2 112.195000 -311.989000 140.318000 1 1.000000 13 -3.000000
319 1 104.488000 -266.262000 149.083000 1 1.000000 13 0.000000
320 3 120.735000 -277.409000 178.053000 1 1.000000 13 0.000000
321 2 104.975000 -227.897000 176.569000 1 1.000000 13 -3.000000
322 2 111.164000 -232.167000 182.966000 1 1.000000 1 -3.000000
323 2 118.555000 -234.624000 189.096000 1 1.000000 1 -3.000000
324 2 126.961000 -235.643000 194.333000 1 1.000000 1 -3.000000
325 2 134.064000 -241.195000 198.419000 1 1.000000 1 -3.000000
326 2 141.195000 -247.548000 200.961000 1 1.000000 1 -3.000000
327 2 149.400000 -252.493000 203.709000 1 1.000000 1 -3.000000
328 2 157.406000 -256.180000 208.348000 1 1.000000 1 -3.000000
329 2 166.148000 -259.345000 211.715000 1 1.000000 1 -3.000000
330 2 175.154000 -262.494000 214.275000 1 1.000000 1 -3.000000
331 2 184.758000 -263.005000 216.509000 1 1.000000 1 -3.000000
332 2 194.270000 -261.848000 219.008000 1 1.000000 1 -3.000000
333 2 204.050000 -260.836000 220.327000 1 1.000000 1 -3.000000
334 2 213.622000 -259.440000 222.239000 1 1.000000 1 -3.000000
335 2 223.511000 -260.141000 222.497000 1 1.000000 1 -3.000000
336 2 233.349000 -260.071000 221.535000 1 1.000000 1 -3.000000
337 2 243.123000 -260.874000 220.881000 1 1.000000 1 -3.000000
338 2 252.896000 -262.522000 221.661000 1 1.000000 1 -3.000000
339 2 262.545000 -261.955000 219.872000 1 1.000000 1 -3.000000
340 2 272.401000 -260.945000 220.540000 1 1.000000 1 -3.000000
341 2 281.811000 -258.472000 222.081000 1 1.000000 1 -3.000000
342 2 291.185000 -256.243000 224.440000 1 1.000000 1 -3.000000
343 2 300.965000 -257.278000 224.861000 1 1.000000 1 -3.000000
344 2 310.595000 -259.241000 223.920000 1 1.000000 1 -3.000000
345 2 320.472000 -258.899000 222.538000 1 1.000000 14 -3.000000
346 1 321.386000 -305.323000 231.103000 1 1.000000 14 0.000000
347 3 290.862000 -300.747000 214.689000 1 1.000000 14 0.000000
348 2 303.865000 -349.013000 228.676000 1 1.000000 14 -3.000000
349 2 299.040000 -347.407000 220.212000 1 1.000000 1 -3.000000
350 2 292.608000 -346.035000 212.911000 1 1.000000 1 -3.000000
351 2 286.505000 -343.969000 205.376000 1 1.000000 1 -3.000000
352 2 279.695000 -341.262000 198.647000 1 1.000000 1 -3.000000
353 2 274.208000 -335.939000 192.234000 1 1.000000 1 -3.000000
354 2 270.538000 -328.999000 186.187000 1 1.000000 1 -3.000000
355 2 266.400000 -322.867000 179.542000 1 1.000000 1 -3.000000
356 2 262.988000 -317.125000 172.335000 1 1.000000 1 -3.000000
357 2 260.463000 -312.488000 164.044000 1 1.000000 1 -3.000000
358 2 256.501000 -307.990000 156.180000 1 1.000000 1 -3.000000
359 2 252.987000 -303.268000 148.182000 1 1.000000 1 -3.000000
360 2 248.123000 -298.924000 140.721000 1 1.000000 1 -3.000000
361 2 244.078000 -295.217000 132.440000 1 1.000000 1 -3.000000
362 2 240.362000 -293.056000 123.590000 1 1.000000 1 -3.000000
363 2 238.169000 -289.333000 114.752000 1 1.000000 1 -3.000000
364 2 233.478000 -286.475000 106.583000 1 1.000000 1 -3.000000
365 2 227.783000 -282.503000 99.562600 1 1.000000 1 -3.000000
366 2 221.101000 -278.169000 93.632900 1 1.000000 1 -3.000000
367 2 213.431000 -275.160000 88.133400 1 1.000000 1 -3.000000
368 2 203.817000 -272.849000 86.367100 1 1.000000 1 -3.000000
369 2 194.339000 -270.573000 84.999100 1 1.000000 1 -3.000000
370 2 184.788000 -270.163000 82.298300 1 1.000000 1 -3.000000
371 2 175.282000 -272.624000 81.528200 1 1.000000 1 -3.000000
372 2 165.682000 -274.878000 81.341000 1 1.000000 15 -3.000000
373 1 158.209000 -310.367000 111.500000 1 1.000000 15 0.000000
374 3 190.623000 -299.787000 119.552000 1 1.000000 15 0.000000
375 2 170.211000 -338.426000 147.531000 1 1.000000 15 -3.000000
376 2 178.540000 -333.880000 150.454000 1 1.000000 1 -3.000000
377 2 186.414000 -329.193000 154.326000 1 1.000000 1 -3.000000
378 2 194.756000 -324.520000 157.092000 1 1.000000 1 -3.000000
379 2 202.323000 -318.372000 158.828000 1 1.000000 1 -3.000000
380 2 208.553000 -310.714000 158.986000 1 1.000000 1 -3.000000
381 2 212.237000 -301.571000 159.209000 1 1.000000 1 -3.000000
382 2 214.893000 -292.066000 159.499000 1 1.000000 1 -3.000000
383 2 219.224000 -283.190000 159.672000 1 1.000000 1 -3.000000
384 2 223.325000 -274.226000 158.770000 1 1.000000 1 -3.000000
385 2 227.735000 -265.336000 158.076000 1 1.000000 1 -3.000000
386 2 232.820000 -256.865000 157.991000 1 1.000000 1 -3.000000
387 2 239.886000 -249.980000 157.476000 1 1.000000 1 -3.000000
388 2 246.630000 -242.732000 156.941000 1 1.000000 1 -3.000000
389 2 253.931000 -236.197000 155.375000 1 1.000000 1 -3.000000
390 2 261.404000 -229.836000 153.896000 1 1.000000 1 -3.000000
391 2 270.091000 -225.241000 154.807000 1 1.000000 1 -3.000000
392 2 279.500000 -222.180000 155.061000 1 1.000000 1 -3.000000
393 2 289.189000 -220.713000 153.655000 1 1.000000 1 -3.000000
394 2 298.806000 -219.047000 152.475000 1 1.000000 1 -3.000000
395 2 308.734000 -218.858000 152.265000 1 1.000000 1 -3.000000
396 2 318.560000 -219.448000 152.322000 1 1.000000 1 -3.000000
397 2 328.247000 -221.368000 152.563000 1 1.000000 1 -3.000000
398 2 337.575000 -224.437000 154.068000 1 1.000000 1 -3.000000
399 2 346.733000 -227.252000 156.568000 1 1.000000 16 -3.000000
400 1 341.308000 -273.779000 161.985000 1 1.000000 16 0.000000
401 3 309.539000 -263.141000 151.891000 1 1.000000 16 0.000000
402 2 316.362000 -313.845000 160.544000 1 1.000000 16 -3.000000
403 2 308.940000 -311.853000 154.228000 1 1.000000 1 -3.000000
404 2 302.962000 -308.110000 147.282000 1 1.000000 1 -3.000000
405 2 296.957000 -303.426000 140.968000 1 1.000000 1 -3.000000
406 2 291.470000 -297.867000 134.796000 1 1.000000 1 -3.000000
407 2 285.086000 -291.758000 130.444000 1 1.000000 1 -3.000000
408 2 279.160000 -284.728000 126.738000 1 1.000000 1 -3.000000
409 2 272.999000 -278.781000 121.834000 1 1.000000 1 -3.000000
410 2 265.873000 -273.409000 117.505000 1 1.000000 1 -3.000000
411 2 259.717000 -266.948000 113.165000 1 1.000000 1 -3.000000
412 2 253.371000 -259.909000 110.080000 1 1.000000 1 -3.000000
413 2 245.476000 -253.929000 109.971000 1 1.000000 1 -3.000000
414 2 237.219000 -248.536000 109.141000 1 1.000000 1 -3.000000
415 2 229.391000 -242.690000 107.881000 1 1.000000 1 -3.000000
416 2 221.463000 -236.750000 107.654000 1 1.000000 1 -3.000000
417 2 214.851000 -229.319000 107.763000 1 1.000000 1 -3.000000
418 2 207.446000 -223.067000 105.565000 1 1.000000 1 -3.000000
419 2 199.971000 -216.945000 107.546000 1 1.000000 1 -3.000000
420 2 192.031000 -211.833000 110.420000 1 1.000000 1 -3.000000
421 2 184.506000 -206.544000 114.058000 1 1.000000 1 -3.000000
422 2 177.557000 -200.583000 117.794000 1 1.000000 1 -3.000000
423 2 171.504000 -192.740000 117.994000 1 1.000000 1 -3.000000
424 2 164.837000 -185.407000 117.118000 1 1.000000 1 -3.000000
425 2 158.408000 -177.908000 117.751000 1 1.000000 1 -3.000000
426 2 152.179000 -170.449000 119.058000 1 1.000000 17 -3.000000
427 1 180.953000 -138.908000 98.930100 1 1.000000 17 0.000000
428 3 195.833000 -169.546000 90.819600 1 1.000000 17 0.000000
429 2 220.144000 -126.230000 75.900700 1 1.000000 17 -3.000000
430 2 224.339000 -134.759000 72.991500 1 1.000000 1 -3.000000
431 2 228.186000 -143.422000 70.206500 1 1.000000 1 -3.000000
432 2 230.099000 -152.528000 66.999000 1 1.000000 1 -3.000000
433 2 231.208000 -162.243000 65.546200 1 1.000000 1 -3.000000
434 2 230.414000 -171.963000 63.654600 1 1.000000 1 -3.000000
435 2 227.207000 -181.350000 62.673900 1 1.000000 1 -3.000000
436 2 222.932000 -190.196000 61.651800 1 1.000000 1 -3.000000
437 2 216.861000 -197.981000 61.275000 1 1.000000 1 -3.000000
438 2 209.556000 -204.612000 60.309600 1 1.000000 1 -3.000000
439 2 202.397000 -211.193000 58.345700 1 1.000000 1 -3.000000
440 2 194.738000 -217.345000 57.543700 1 1.000000 1 -3.000000
441 2 186.111000 -221.849000 55.386100 1 1.000000 1 -3.000000
442 2 178.198000 -227.485000 53.397000 1 1.000000 1 -3.000000
443 2 170.999000 -233.564000 50.729100 1 1.000000 1 -3.000000
444 2 163.870000 -240.187000 48.980600 1 1.000000 1 -3.000000
445 2 156.007000 -246.137000 50.068100 1 1.000000 1 -3.000000
446 2 147.533000 -251.267000 50.801900 1 1.000000 1 -3.000000
447 2 139.501000 -257.045000 51.957700 1 1.000000 1 -3.000000
448 2 131.608000 -262.725000 50.127300 1 1.000000 1 -3.000000
449 2 122.964000 -267.498000 48.903200 1 1.000000 1 -3.000000
450 2 113.530000 -269.073000 46.483000 1 1.000000 1 -3.000000
451 2 103.973000 -268.081000 43.952800 1 1.000000 1 -3.000000
452 2 94.728600 -267.678000 40.280700 1 1.000000 1 -3.000000
453 2 85.675500 -267.828000 36.333000 1 1.000000 18 -3.000000
454 1 75.194600 -223.525000 48.835700 1 1.000000 18 0.000000
455 3 110.202000 -223.455000 47.508100 1 1.000000 18 0.000000
456 2 86.374100 -179.286000 60.964300 1 1.000000 18 -3.000000
457 2 95.651500 -177.817000 57.761500 1 1.000000 1 -3.000000
458 2 105.190000 -179.609000 55.560200 1 1.000000 1 -3.000000
459 2 114.578000 -178.838000 52.586600 1 1.000000 1 -3.000000
460 2 123.541000 -179.831000 48.419800 1 1.000000 1 -3.000000
461 2 130.932000 -184.236000 43.601400 1 1.000000 1 -3.000000
462 2 136.542000 -188.518000 36.667200 1 1.000000 1 -3.000000
463 2 142.197000 -194.504000 31.020600 1 1.000000 1 -3.000000
464 2 148.194000 -198.172000 24.052500 1 1.000000 1 -3.000000
465 2 155.712000 -200.654000 18.101700 1 1.000000 1 -3.000000
466 2 164.389000 -202.766000 13.793600 1 1.000000 1 -3.000000
467 2 172.875000 -204.897000 9.144780 1 1.000000 1 -3.000000
468 2 181.227000 -208.116000 4.862270 1 1.000000 1 -3.000000
469 2 188.893000 -210.970000 -0.770656 1 1.000000 1 -3.000000
470 2 196.199000 -213.977000 -6.766290 1 1.000000 1 -3.000000
471 2 203.397000 -216.242000 -13.194900 1 1.000000 1 -3.000000
472 2 209.553000 -217.551000 -20.751800 1 1.000000 1 -3.000000
473 2 215.208000 -219.549000 -28.623900 1 1.000000 1 -3.000000
474 2 220.834000 -222.831000 -35.974700 1 1.000000 1 -3.000000
475 2 226.945000 -225.696000 -43.224800 1 1.000000 1 -3.000000
476 2 232.106000 -230.271000 -50.314600 1 1.000000 1 -3.000000
477 2 236.298000 -235.373000 -57.763300 1 1.000000 1 -3.000000
478 2 237.348000 -241.018000 -65.852800 1 1.000000 1 -3.000000