LAMMPS data file

4067 atoms
4067 ellipsoids
4516 bonds
8882 angles
0 dihedrals

3 atom types
5 bond types
12 angle types
0 dihedral types

-4631.092947 4670.465898 xlo xhi
-4631.092947 4670.465898 ylo yhi
-4631.092947 4670.465898 zlo zhi

Masses

1 196016.000000
2 1950.000000
3 19500.000000

Atoms

1 2 18.432200 -791.082000 775.122000 1 1.000000 1 -3.000000
2 2 9.109680 -794.002000 773.315000 1 1.000000 1 -3.000000
3 2 0.391201 -798.602000 772.763000 1 1.000000 1 -3.000000
4 2 -9.133970 -801.280000 773.040000 1 1.000000 1 -3.000000
5 2 -18.468100 -801.498000 776.399000 1 1.000000 1 -3.000000
6 2 -27.747700 -802.103000 779.761000 1 1.000000 1 -3.000000
7 2 -36.825200 -800.162000 783.107000 1 1.000000 1 -3.000000
8 2 -45.578600 -797.538000 786.788000 1 1.000000 1 -3.000000
9 2 -54.559000 -794.738000 789.932000 1 1.000000 1 -3.000000
10 2 -64.045900 -793.088000 792.178000 1 1.000000 1 -3.000000
11 2 -73.569300 -792.258000 794.784000 1 1.000000 1 -3.000000
12 2 -83.258900 -790.710000 795.812000 1 1.000000 1 -3.000000
13 2 -92.941900 -788.503000 795.541000 1 1.000000 1 -3.000000
14 2 -102.830000 -788.287000 796.926000 1 1.000000 1 -3.000000
15 2 -111.971000 -790.139000 800.249000 1 1.000000 1 -3.000000
16 2 -121.817000 -790.972000 801.016000 1 1.000000 1 -3.000000
17 2 -131.393000 -793.135000 801.917000 1 1.000000 1 -3.000000
18 2 -140.748000 -794.478000 804.938000 1 1.000000 1 -3.000000
19 2 -150.141000 -795.713000 807.717000 1 1.000000 1 -3.000000
20 2 -158.559000 -797.865000 812.307000 1 1.000000 1 -3.000000
21 2 -167.554000 -800.029000 815.829000 1 1.000000 2 -3.000000
22 1 -154.607000 -793.224000 860.705000 1 1.000000 2 0.000000
23 3 -130.794000 -774.995000 842.606000 1 1.000000 2 0.000000
24 2 -129.214000 -772.205000 894.534000 1 1.000000 2 -3.000000
25 2 -123.086000 -766.203000 889.500000 1 1.000000 1 -3.000000
26 2 -117.408000 -759.945000 884.358000 1 1.000000 1 -3.000000
27 2 -112.510000 -753.975000 878.160000 1 1.000000 1 -3.000000
28 2 -107.236000 -750.249000 870.778000 1 1.000000 1 -3.000000
29 2 -102.521000 -746.280000 863.030000 1 1.000000 1 -3.000000
30 2 -97.795000 -744.088000 854.675000 1 1.000000 1 -3.000000
31 2 -94.560400 -740.104000 846.204000 1 1.000000 1 -3.000000
32 2 -92.888300 -734.529000 838.217000 1 1.000000 1 -3.000000
33 2 -90.547600 -728.342000 830.920000 1 1.000000 1 -3.000000
34 2 -88.148300 -720.550000 825.317000 1 1.000000 1 -3.000000
35 2 -88.273500 -712.659000 819.430000 1 1.000000 1 -3.000000
36 2 -88.114600 -705.840000 812.150000 1 1.000000 1 -3.000000
37 2 -88.709900 -699.237000 804.885000 1 1.000000 1 -3.000000
38 2 -90.559600 -692.750000 797.569000 1 1.000000 1 -3.000000
39 2 -92.062000 -686.604000 790.057000 1 1.000000 1 -3.000000
40 2 -94.498700 -681.261000 782.149000 1 1.000000 1 -3.000000
41 2 -96.803500 -676.759000 773.688000 1 1.000000 1 -3.000000
42 2 -98.479600 -674.810000 764.170000 1 1.000000 1 -3.000000
43 2 -99.095800 -673.551000 754.210000 1 1.000000 1 -3.000000
44 2 -101.366000 -671.815000 744.686000 1 1.000000 1 -3.000000
45 2 -105.439000 -667.442000 736.805000 1 1.000000 1 -3.000000
46 2 -108.609000 -662.134000 729.075000 1 1.000000 1 -3.000000
47 2 -113.565000 -656.808000 722.377000 1 1.000000 1 -3.000000
48 2 -117.592000 -650.743000 715.740000 1 1.000000 3 -3.000000
49 1 -159.008000 -648.609000 738.274000 1 1.000000 3 0.000000
50 3 -135.599000 -649.954000 764.269000 1 1.000000 3 0.000000
51 2 -186.114000 -650.803000 776.841000 1 1.000000 3 -3.000000
52 2 -179.325000 -645.418000 781.686000 1 1.000000 1 -3.000000
53 2 -172.946000 -640.144000 787.172000 1 1.000000 1 -3.000000
54 2 -165.718000 -637.126000 793.161000 1 1.000000 1 -3.000000
55 2 -158.138000 -633.348000 798.225000 1 1.000000 1 -3.000000
56 2 -150.739000 -627.016000 800.355000 1 1.000000 1 -3.000000
57 2 -142.446000 -621.852000 801.899000 1 1.000000 1 -3.000000
58 2 -134.460000 -616.298000 803.690000 1 1.000000 1 -3.000000
59 2 -129.009000 -609.727000 808.701000 1 1.000000 1 -3.000000
60 2 -123.586000 -602.055000 811.886000 1 1.000000 1 -3.000000
61 2 -116.583000 -596.348000 816.099000 1 1.000000 1 -3.000000
62 2 -109.865000 -590.434000 820.468000 1 1.000000 1 -3.000000
63 2 -103.296000 -584.422000 824.635000 1 1.000000 1 -3.000000
64 2 -96.936700 -578.393000 829.343000 1 1.000000 1 -3.000000
65 2 -90.235000 -572.880000 834.292000 1 1.000000 1 -3.000000
66 2 -83.367200 -567.563000 838.892000 1 1.000000 1 -3.000000
67 2 -75.855400 -564.018000 844.387000 1 1.000000 1 -3.000000
68 2 -68.486900 -560.285000 849.803000 1 1.000000 1 -3.000000
69 2 -62.178100 -556.196000 856.300000 1 1.000000 1 -3.000000
70 2 -55.609000 -555.078000 863.547000 1 1.000000 1 -3.000000
71 2 -50.187900 -552.742000 871.502000 1 1.000000 1 -3.000000
72 2 -43.475300 -551.744000 878.714000 1 1.000000 1 -3.000000
73 2 -37.108300 -549.848000 886.049000 1 1.000000 1 -3.000000
74 2 -31.773200 -547.384000 893.916000 1 1.000000 1 -3.000000
75 2 -25.557200 -545.793000 901.504000 1 1.000000 4 -3.000000
76 1 -4.506180 -585.853000 888.236000 1 1.000000 4 0.000000
77 3 -12.922300 -570.698000 857.701000 1 1.000000 4 0.000000
78 2 10.521600 -617.039000 856.119000 1 1.000000 4 -3.000000
79 2 10.161700 -610.761000 848.392000 1 1.000000 1 -3.000000
80 2 9.916350 -604.422000 840.780000 1 1.000000 1 -3.000000
81 2 10.477700 -597.844000 833.404000 1 1.000000 1 -3.000000
82 2 12.899900 -590.855000 826.825000 1 1.000000 1 -3.000000
83 2 13.732000 -584.427000 819.385000 1 1.000000 1 -3.000000
84 2 14.010800 -578.598000 811.392000 1 1.000000 1 -3.000000
85 2 13.627700 -572.776000 803.372000 1 1.000000 1 -3.000000
86 2 12.847600 -569.346000 794.114000 1 1.000000 1 -3.000000
87 2 11.916700 -565.702000 784.913000 1 1.000000 1 -3.000000
88 2 10.500400 -561.770000 775.948000 1 1.000000 1 -3.000000
89 2 11.470200 -558.986000 766.480000 1 1.000000 1 -3.000000
90 2 13.923800 -555.277000 757.689000 1 1.000000 1 -3.000000
91 2 18.129200 -549.592000 750.748000 1 1.000000 1 -3.000000
92 2 22.694900 -543.394000 744.598000 1 1.000000 1 -3.000000
93 2 26.897900 -536.734000 738.482000 1 1.000000 1 -3.000000
94 2 31.885600 -531.311000 731.848000 1 1.000000 1 -3.000000
95 2 35.180300 -527.041000 723.537000 1 1.000000 1 -3.000000
96 2 39.550300 -522.309000 716.014000 1 1.000000 1 -3.000000
97 2 43.034100 -516.629000 708.709000 1 1.000000 1 -3.000000
98 2 47.790900 -510.277000 702.646000 1 1.000000 1 -3.000000
99 2 53.623900 -503.421000 698.327000 1 1.000000 1 -3.000000
100 2 61.064000 -497.317000 696.236000 1 1.000000 1 -3.000000
101 2 68.294300 -490.832000 694.491000 1 1.000000 1 -3.000000
102 2 74.440300 -483.088000 693.319000 1 1.000000 5 -3.000000
103 1 106.126000 -501.416000 723.078000 1 1.000000 5 0.000000
104 3 84.248000 -528.121000 717.149000 1 1.000000 5 0.000000
105 2 123.234000 -535.665000 750.692000 1 1.000000 5 -3.000000
106 2 120.026000 -544.098000 746.451000 1 1.000000 1 -3.000000
107 2 115.785000 -551.404000 741.253000 1 1.000000 1 -3.000000
108 2 112.360000 -558.928000 735.682000 1 1.000000 1 -3.000000
109 2 107.487000 -565.542000 730.039000 1 1.000000 1 -3.000000
110 2 101.622000 -569.258000 722.973000 1 1.000000 1 -3.000000
111 2 94.280800 -572.316000 717.070000 1 1.000000 1 -3.000000
112 2 86.753300 -573.728000 710.698000 1 1.000000 1 -3.000000
113 2 77.896100 -573.769000 706.474000 1 1.000000 1 -3.000000
114 2 71.223300 -573.385000 699.164000 1 1.000000 1 -3.000000
115 2 65.652000 -572.952000 691.001000 1 1.000000 1 -3.000000
116 2 62.878200 -572.068000 681.636000 1 1.000000 1 -3.000000
117 2 61.497700 -570.066000 672.116000 1 1.000000 1 -3.000000
118 2 61.362700 -568.705000 662.290000 1 1.000000 1 -3.000000
119 2 62.086500 -564.318000 653.458000 1 1.000000 1 -3.000000
120 2 63.057200 -559.327000 644.929000 1 1.000000 1 -3.000000
121 2 62.539600 -555.316000 635.905000 1 1.000000 1 -3.000000
122 2 60.901700 -551.031000 627.148000 1 1.000000 1 -3.000000
123 2 60.479000 -547.721000 617.881000 1 1.000000 1 -3.000000
124 2 62.113000 -543.681000 608.981000 1 1.000000 1 -3.000000
125 2 65.575300 -541.066000 600.084000 1 1.000000 1 -3.000000
126 2 70.733300 -537.747000 592.241000 1 1.000000 1 -3.000000
127 2 76.857600 -535.296000 584.876000 1 1.000000 1 -3.000000
128 2 84.201600 -533.673000 578.450000 1 1.000000 1 -3.000000
129 2 91.312900 -530.772000 572.171000 1 1.000000 6 -3.000000
130 1 128.801000 -546.962000 595.757000 1 1.000000 6 0.000000
131 3 101.941000 -563.251000 611.247000 1 1.000000 6 0.000000
132 2 149.754000 -573.063000 628.976000 1 1.000000 6 -3.000000
133 2 143.938000 -580.579000 631.461000 1 1.000000 1 -3.000000
134 2 136.797000 -587.303000 633.579000 1 1.000000 1 -3.000000
135 2 128.483000 -592.514000 634.496000 1 1.000000 1 -3.000000
136 2 119.468000 -596.650000 634.440000 1 1.000000 1 -3.000000
137 2 111.587000 -602.398000 632.525000 1 1.000000 1 -3.000000
138 2 102.930000 -605.545000 628.994000 1 1.000000 1 -3.000000
139 2 94.525200 -604.614000 623.869000 1 1.000000 1 -3.000000
140 2 86.214400 -602.359000 618.908000 1 1.000000 1 -3.000000
141 2 76.734300 -601.866000 616.122000 1 1.000000 1 -3.000000
142 2 67.047800 -601.950000 614.282000 1 1.000000 1 -3.000000
143 2 57.188300 -601.038000 614.445000 1 1.000000 1 -3.000000
144 2 47.836400 -598.965000 612.040000 1 1.000000 1 -3.000000
145 2 38.366600 -597.520000 609.515000 1 1.000000 1 -3.000000
146 2 28.638500 -596.953000 607.484000 1 1.000000 1 -3.000000
147 2 19.049500 -596.345000 605.254000 1 1.000000 1 -3.000000
148 2 9.383440 -596.370000 603.205000 1 1.000000 1 -3.000000
149 2 -0.235133 -597.116000 600.781000 1 1.000000 1 -3.000000
150 2 -9.828960 -599.211000 599.218000 1 1.000000 1 -3.000000
151 2 -19.276400 -601.499000 601.093000 1 1.000000 1 -3.000000
152 2 -28.975100 -603.201000 602.483000 1 1.000000 1 -3.000000
153 2 -38.730500 -602.124000 601.434000 1 1.000000 1 -3.000000
154 2 -47.713500 -604.731000 598.251000 1 1.000000 1 -3.000000
155 2 -56.931900 -604.225000 594.500000 1 1.000000 1 -3.000000
156 2 -66.093200 -605.953000 591.118000 1 1.000000 7 -3.000000
157 1 -56.865500 -614.675000 545.698000 1 1.000000 7 0.000000
158 3 -26.082400 -620.277000 561.414000 1 1.000000 7 0.000000
159 2 -29.081000 -628.734000 510.253000 1 1.000000 7 -3.000000
160 2 -21.721200 -632.192000 515.832000 1 1.000000 1 -3.000000
161 2 -16.024600 -637.948000 521.495000 1 1.000000 1 -3.000000
162 2 -9.881420 -643.355000 527.014000 1 1.000000 1 -3.000000
163 2 -3.967450 -648.431000 533.266000 1 1.000000 1 -3.000000
164 2 2.133770 -649.796000 540.935000 1 1.000000 1 -3.000000
165 2 7.677860 -650.395000 549.114000 1 1.000000 1 -3.000000
166 2 13.295600 -652.371000 557.094000 1 1.000000 1 -3.000000
167 2 18.468600 -652.830000 565.449000 1 1.000000 1 -3.000000
168 2 22.889500 -652.861000 574.220000 1 1.000000 1 -3.000000
169 2 25.920300 -652.042000 583.636000 1 1.000000 1 -3.000000
170 2 27.793300 -651.605000 593.359000 1 1.000000 1 -3.000000
171 2 30.287300 -653.565000 602.726000 1 1.000000 1 -3.000000
172 2 32.006700 -654.822000 612.360000 1 1.000000 1 -3.000000
173 2 33.777500 -658.515000 621.350000 1 1.000000 1 -3.000000
174 2 37.007800 -662.196000 629.906000 1 1.000000 1 -3.000000
175 2 39.658900 -664.221000 639.268000 1 1.000000 1 -3.000000
176 2 40.397100 -662.564000 649.038000 1 1.000000 1 -3.000000
177 2 42.288700 -660.232000 658.441000 1 1.000000 1 -3.000000
178 2 45.785800 -657.509000 667.326000 1 1.000000 1 -3.000000
179 2 50.128400 -654.958000 675.919000 1 1.000000 1 -3.000000
180 2 52.922600 -653.555000 685.234000 1 1.000000 1 -3.000000
181 2 55.441000 -651.490000 694.505000 1 1.000000 1 -3.000000
182 2 55.525700 -650.344000 704.325000 1 1.000000 1 -3.000000
183 2 56.056700 -646.114000 713.331000 1 1.000000 8 -3.000000
184 1 14.874000 -661.954000 730.012000 1 1.000000 8 0.000000
185 3 12.965800 -669.212000 695.754000 1 1.000000 8 0.000000
186 2 -28.441500 -680.066000 725.127000 1 1.000000 8 -3.000000
187 2 -27.659300 -683.713000 715.998000 1 1.000000 1 -3.000000
188 2 -27.063100 -688.381000 707.304000 1 1.000000 1 -3.000000
189 2 -25.848000 -691.646000 698.029000 1 1.000000 1 -3.000000
190 2 -23.833000 -693.455000 688.529000 1 1.000000 1 -3.000000
191 2 -18.771200 -696.186000 680.386000 1 1.000000 1 -3.000000
192 2 -13.601200 -698.314000 672.223000 1 1.000000 1 -3.000000
193 2 -9.018120 -702.213000 664.413000 1 1.000000 1 -3.000000
194 2 -5.350020 -705.299000 655.777000 1 1.000000 1 -3.000000
195 2 -0.321169 -707.865000 647.753000 1 1.000000 1 -3.000000
196 2 5.387150 -711.306000 640.388000 1 1.000000 1 -3.000000
197 2 10.858700 -713.710000 632.524000 1 1.000000 1 -3.000000
198 2 17.207100 -716.590000 625.510000 1 1.000000 1 -3.000000
199 2 22.406000 -718.456000 617.423000 1 1.000000 1 -3.000000
200 2 27.220600 -720.335000 608.842000 1 1.000000 1 -3.000000
201 2 32.816800 -721.542000 600.746000 1 1.000000 1 -3.000000
202 2 38.827400 -721.062000 592.857000 1 1.000000 1 -3.000000
203 2 45.582700 -720.798000 585.608000 1 1.000000 1 -3.000000
204 2 53.078700 -719.232000 579.235000 1 1.000000 1 -3.000000
205 2 61.060800 -716.419000 573.944000 1 1.000000 1 -3.000000
206 2 69.555300 -714.642000 569.164000 1 1.000000 1 -3.000000
207 2 78.152000 -713.710000 564.367000 1 1.000000 1 -3.000000
208 2 87.274900 -712.637000 560.445000 1 1.000000 1 -3.000000
209 2 96.664300 -713.095000 557.411000 1 1.000000 1 -3.000000
210 2 105.805000 -714.037000 553.729000 1 1.000000 9 -3.000000
211 1 115.277000 -756.337000 572.278000 1 1.000000 9 0.000000
212 3 80.308600 -755.192000 572.528000 1 1.000000 9 0.000000
213 2 103.240000 -796.880000 593.275000 1 1.000000 9 -3.000000
214 2 94.816100 -797.531000 588.257000 1 1.000000 1 -3.000000
215 2 86.716000 -798.955000 582.691000 1 1.000000 1 -3.000000
216 2 79.206800 -800.625000 576.382000 1 1.000000 1 -3.000000
217 2 72.743900 -800.607000 568.815000 1 1.000000 1 -3.000000
218 2 65.461500 -800.956000 562.082000 1 1.000000 1 -3.000000
219 2 59.718600 -801.425000 554.082000 1 1.000000 1 -3.000000
220 2 53.232400 -803.193000 546.757000 1 1.000000 1 -3.000000
221 2 45.680400 -803.721000 540.389000 1 1.000000 1 -3.000000
222 2 39.136600 -805.057000 533.139000 1 1.000000 1 -3.000000
223 2 32.214000 -805.897000 526.129000 1 1.000000 1 -3.000000
224 2 26.265800 -807.877000 518.432000 1 1.000000 1 -3.000000
225 2 20.693700 -810.457000 510.738000 1 1.000000 1 -3.000000
226 2 14.625400 -813.491000 503.417000 1 1.000000 1 -3.000000
227 2 9.103460 -817.494000 496.278000 1 1.000000 1 -3.000000
228 2 3.494630 -821.609000 489.162000 1 1.000000 1 -3.000000
229 2 0.553873 -827.440000 481.702000 1 1.000000 1 -3.000000
230 2 -0.522502 -832.799000 473.428000 1 1.000000 1 -3.000000
231 2 -3.744210 -839.337000 466.780000 1 1.000000 1 -3.000000
232 2 -5.873670 -846.023000 459.846000 1 1.000000 1 -3.000000
233 2 -6.772030 -852.894000 452.771000 1 1.000000 1 -3.000000
234 2 -6.516040 -858.474000 444.655000 1 1.000000 1 -3.000000
235 2 -4.633030 -865.158000 437.601000 1 1.000000 1 -3.000000
236 2 -1.422460 -871.511000 430.632000 1 1.000000 1 -3.000000
237 2 1.716060 -877.075000 423.086000 1 1.000000 10 -3.000000
238 1 47.071700 -864.288000 424.023000 1 1.000000 10 0.000000
239 3 36.445100 -858.604000 456.777000 1 1.000000 10 0.000000
240 2 86.123600 -848.494000 445.345000 1 1.000000 10 -3.000000
241 2 84.083900 -850.090000 455.004000 1 1.000000 1 -3.000000
242 2 81.301000 -853.825000 463.736000 1 1.000000 1 -3.000000
243 2 77.773100 -855.837000 472.792000 1 1.000000 1 -3.000000
244 2 74.631700 -857.229000 482.026000 1 1.000000 1 -3.000000
245 2 67.856700 -858.726000 489.080000 1 1.000000 1 -3.000000
246 2 60.332000 -858.633000 495.532000 1 1.000000 1 -3.000000
247 2 51.769600 -858.366000 500.568000 1 1.000000 1 -3.000000
248 2 43.858600 -858.393000 506.438000 1 1.000000 1 -3.000000
249 2 34.834300 -857.241000 510.488000 1 1.000000 1 -3.000000
250 2 25.733700 -856.332000 514.316000 1 1.000000 1 -3.000000
251 2 16.774800 -855.353000 518.505000 1 1.000000 1 -3.000000
252 2 8.334170 -853.491000 523.465000 1 1.000000 1 -3.000000
253 2 -0.107739 -850.548000 527.652000 1 1.000000 1 -3.000000
254 2 -7.549620 -846.488000 532.768000 1 1.000000 1 -3.000000
255 2 -14.852500 -842.167000 537.879000 1 1.000000 1 -3.000000
256 2 -21.051200 -838.599000 544.711000 1 1.000000 1 -3.000000
257 2 -26.494900 -832.759000 550.534000 1 1.000000 1 -3.000000
258 2 -31.142600 -826.003000 556.035000 1 1.000000 1 -3.000000
259 2 -37.146200 -820.042000 561.213000 1 1.000000 1 -3.000000
260 2 -41.245800 -814.145000 568.056000 1 1.000000 1 -3.000000
261 2 -42.102600 -807.173000 575.159000 1 1.000000 1 -3.000000
262 2 -41.473800 -798.740000 580.454000 1 1.000000 1 -3.000000
263 2 -40.427200 -790.600000 585.950000 1 1.000000 1 -3.000000
264 2 -40.082100 -782.491000 591.659000 1 1.000000 11 -3.000000
265 1 -75.077000 -756.629000 573.308000 1 1.000000 11 0.000000
266 3 -62.924500 -774.510000 545.695000 1 1.000000 11 0.000000
267 2 -102.408000 -741.740000 537.874000 1 1.000000 11 -3.000000
268 2 -101.189000 -748.567000 530.781000 1 1.000000 1 -3.000000
269 2 -98.871900 -755.064000 523.683000 1 1.000000 1 -3.000000
270 2 -96.548500 -762.324000 517.546000 1 1.000000 1 -3.000000
271 2 -93.417100 -770.437000 512.785000 1 1.000000 1 -3.000000
272 2 -89.571700 -779.379000 511.071000 1 1.000000 1 -3.000000
273 2 -87.509100 -789.029000 510.173000 1 1.000000 1 -3.000000
274 2 -81.618400 -796.837000 512.126000 1 1.000000 1 -3.000000
275 2 -72.874500 -801.529000 512.161000 1 1.000000 1 -3.000000
276 2 -63.082400 -802.654000 512.431000 1 1.000000 1 -3.000000
277 2 -53.489600 -803.981000 514.547000 1 1.000000 1 -3.000000
278 2 -44.539600 -803.658000 518.814000 1 1.000000 1 -3.000000
279 2 -35.680400 -802.452000 523.274000 1 1.000000 1 -3.000000
280 2 -28.664400 -800.706000 529.991000 1 1.000000 1 -3.000000
281 2 -24.368200 -796.595000 537.902000 1 1.000000 1 -3.000000
282 2 -21.921400 -792.950000 546.797000 1 1.000000 1 -3.000000
283 2 -19.381600 -787.083000 554.398000 1 1.000000 1 -3.000000
284 2 -18.296400 -781.205000 562.225000 1 1.000000 1 -3.000000
285 2 -17.250900 -776.555000 570.964000 1 1.000000 1 -3.000000
286 2 -17.922000 -772.419000 579.957000 1 1.000000 1 -3.000000
287 2 -18.766900 -767.442000 588.361000 1 1.000000 1 -3.000000
288 2 -21.507800 -761.253000 595.662000 1 1.000000 1 -3.000000
289 2 -23.023100 -755.823000 603.770000 1 1.000000 1 -3.000000
290 2 -26.995500 -750.121000 610.829000 1 1.000000 1 -3.000000
291 2 -31.171800 -742.694000 615.739000 1 1.000000 12 -3.000000
292 1 -0.736484 -755.667000 649.381000 1 1.000000 12 0.000000
293 3 12.851000 -769.841000 620.355000 1 1.000000 12 0.000000
294 2 37.215000 -778.788000 665.294000 1 1.000000 12 -3.000000
295 2 40.407600 -782.432000 656.563000 1 1.000000 1 -3.000000
296 2 45.147800 -782.706000 647.922000 1 1.000000 1 -3.000000
297 2 49.572600 -782.893000 639.078000 1 1.000000 1 -3.000000
298 2 54.544000 -784.198000 630.638000 1 1.000000 1 -3.000000
299 2 56.229300 -783.713000 620.939000 1 1.000000 1 -3.000000
300 2 54.131100 -783.345000 611.290000 1 1.000000 1 -3.000000
301 2 50.711500 -783.388000 602.033000 1 1.000000 1 -3.000000
302 2 48.573900 -784.147000 592.453000 1 1.000000 1 -3.000000
303 2 47.804900 -784.191000 582.631000 1 1.000000 1 -3.000000
304 2 47.332200 -783.051000 572.814000 1 1.000000 1 -3.000000
305 2 48.639100 -782.396000 563.036000 1 1.000000 1 -3.000000
306 2 49.751400 -780.146000 553.492000 1 1.000000 1 -3.000000
307 2 51.407600 -776.598000 544.448000 1 1.000000 1 -3.000000
308 2 50.568600 -774.288000 534.846000 1 1.000000 1 -3.000000
309 2 51.422400 -772.953000 525.064000 1 1.000000 1 -3.000000
310 2 52.133500 -770.874000 515.451000 1 1.000000 1 -3.000000
311 2 53.041400 -769.211000 505.787000 1 1.000000 1 -3.000000
312 2 54.579800 -766.123000 496.513000 1 1.000000 1 -3.000000
313 2 54.033100 -763.665000 486.894000 1 1.000000 1 -3.000000
314 2 53.359800 -761.139000 477.404000 1 1.000000 1 -3.000000
315 2 53.035100 -757.469000 468.179000 1 1.000000 1 -3.000000
316 2 52.978900 -752.290000 459.740000 1 1.000000 1 -3.000000
317 2 53.803600 -747.038000 451.348000 1 1.000000 1 -3.000000
318 2 53.213200 -742.423000 442.565000 1 1.000000 13 -3.000000
319 1 68.924700 -700.666000 457.945000 1 1.000000 13 0.000000
320 3 75.520500 -722.104000 484.871000 1 1.000000 13 0.000000
321 2 90.481100 -672.621000 489.190000 1 1.000000 13 -3.000000
322 2 94.561200 -679.662000 494.684000 1 1.000000 1 -3.000000
323 2 99.982100 -685.944000 500.030000 1 1.000000 1 -3.000000
324 2 104.110000 -693.420000 505.102000 1 1.000000 1 -3.000000
325 2 106.996000 -702.259000 508.514000 1 1.000000 1 -3.000000
326 2 108.885000 -711.814000 510.010000 1 1.000000 1 -3.000000
327 2 111.672000 -720.898000 512.728000 1 1.000000 1 -3.000000
328 2 114.320000 -730.137000 515.085000 1 1.000000 1 -3.000000
329 2 117.820000 -738.906000 518.007000 1 1.000000 1 -3.000000
330 2 121.426000 -747.817000 520.220000 1 1.000000 1 -3.000000
331 2 124.826000 -756.938000 522.224000 1 1.000000 1 -3.000000
332 2 129.008000 -764.734000 526.709000 1 1.000000 1 -3.000000
333 2 135.294000 -769.823000 532.420000 1 1.000000 1 -3.000000
334 2 140.466000 -775.255000 538.822000 1 1.000000 1 -3.000000
335 2 143.977000 -778.772000 547.499000 1 1.000000 1 -3.000000
336 2 147.789000 -780.620000 556.390000 1 1.000000 1 -3.000000
337 2 152.192000 -780.646000 565.300000 1 1.000000 1 -3.000000
338 2 154.785000 -780.878000 574.803000 1 1.000000 1 -3.000000
339 2 156.872000 -778.298000 584.107000 1 1.000000 1 -3.000000
340 2 156.410000 -776.257000 593.874000 1 1.000000 1 -3.000000
341 2 156.380000 -775.904000 603.763000 1 1.000000 1 -3.000000
342 2 155.346000 -777.119000 613.529000 1 1.000000 1 -3.000000
343 2 154.337000 -779.087000 623.202000 1 1.000000 1 -3.000000
344 2 151.048000 -781.733000 632.095000 1 1.000000 1 -3.000000
345 2 146.044000 -784.536000 640.312000 1 1.000000 14 -3.000000
346 1 117.266000 -819.013000 625.959000 1 1.000000 14 0.000000
347 3 137.685000 -813.486000 598.074000 1 1.000000 14 0.000000
348 2 101.715000 -850.724000 594.652000 1 1.000000 14 -3.000000
349 2 110.206000 -853.654000 590.525000 1 1.000000 1 -3.000000
350 2 118.843000 -853.911000 585.675000 1 1.000000 1 -3.000000
351 2 127.698000 -854.464000 581.444000 1 1.000000 1 -3.000000
352 2 137.352000 -853.179000 579.392000 1 1.000000 1 -3.000000
353 2 147.013000 -852.465000 577.528000 1 1.000000 1 -3.000000
354 2 156.574000 -850.017000 577.604000 1 1.000000 1 -3.000000
355 2 166.116000 -847.256000 576.570000 1 1.000000 1 -3.000000
356 2 175.969000 -846.493000 575.706000 1 1.000000 1 -3.000000
357 2 185.790000 -846.286000 576.395000 1 1.000000 1 -3.000000
358 2 195.639000 -845.595000 577.234000 1 1.000000 1 -3.000000
359 2 205.091000 -845.588000 579.972000 1 1.000000 1 -3.000000
360 2 214.818000 -844.804000 582.178000 1 1.000000 1 -3.000000
361 2 224.287000 -842.621000 583.878000 1 1.000000 1 -3.000000
362 2 232.544000 -838.152000 586.956000 1 1.000000 1 -3.000000
363 2 241.325000 -833.816000 588.516000 1 1.000000 1 -3.000000
364 2 247.968000 -827.328000 591.912000 1 1.000000 1 -3.000000
365 2 254.486000 -820.826000 595.716000 1 1.000000 1 -3.000000
366 2 258.776000 -814.377000 601.866000 1 1.000000 1 -3.000000
367 2 263.497000 -807.967000 607.908000 1 1.000000 1 -3.000000
368 2 267.848000 -801.585000 614.194000 1 1.000000 1 -3.000000
369 2 270.449000 -798.671000 623.328000 1 1.000000 1 -3.000000
370 2 271.358000 -795.194000 632.539000 1 1.000000 1 -3.000000
371 2 271.550000 -791.016000 641.487000 1 1.000000 1 -3.000000
372 2 271.283000 -786.303000 650.177000 1 1.000000 15 -3.000000
373 1 265.554000 -826.471000 674.215000 1 1.000000 15 0.000000
374 3 266.275000 -837.174000 640.904000 1 1.000000 15 0.000000
375 2 261.634000 -873.347000 677.776000 1 1.000000 15 -3.000000
376 2 264.619000 -875.849000 668.749000 1 1.000000 1 -3.000000
377 2 268.669000 -878.374000 660.050000 1 1.000000 1 -3.000000
378 2 271.297000 -880.079000 650.675000 1 1.000000 1 -3.000000
379 2 275.065000 -880.225000 641.478000 1 1.000000 1 -3.000000
380 2 278.948000 -878.548000 632.539000 1 1.000000 1 -3.000000
381 2 283.289000 -877.446000 623.674000 1 1.000000 1 -3.000000
382 2 288.530000 -877.310000 615.206000 1 1.000000 1 -3.000000
383 2 292.062000 -875.531000 606.160000 1 1.000000 1 -3.000000
384 2 295.087000 -871.964000 597.397000 1 1.000000 1 -3.000000
385 2 295.423000 -866.881000 588.903000 1 1.000000 1 -3.000000
386 2 296.148000 -861.363000 580.744000 1 1.000000 1 -3.000000
387 2 297.719000 -854.068000 574.272000 1 1.000000 1 -3.000000
388 2 300.036000 -846.887000 567.801000 1 1.000000 1 -3.000000
389 2 302.102000 -840.696000 560.363000 1 1.000000 1 -3.000000
390 2 304.412000 -834.865000 552.835000 1 1.000000 1 -3.000000
391 2 304.107000 -828.081000 545.660000 1 1.000000 1 -3.000000
392 2 303.748000 -820.583000 539.184000 1 1.000000 1 -3.000000
393 2 302.394000 -812.988000 533.055000 1 1.000000 1 -3.000000
394 2 300.693000 -805.010000 527.392000 1 1.000000 1 -3.000000
395 2 299.990000 -796.511000 522.364000 1 1.000000 1 -3.000000
396 2 300.952000 -787.366000 518.708000 1 1.000000 1 -3.000000
397 2 301.601000 -778.134000 515.035000 1 1.000000 1 -3.000000
398 2 303.305000 -768.895000 511.766000 1 1.000000 1 -3.000000
399 2 306.967000 -760.022000 509.361000 1 1.000000 16 -3.000000
400 1 351.245000 -758.067000 525.486000 1 1.000000 16 0.000000
401 3 344.279000 -792.321000 525.249000 1 1.000000 16 0.000000
402 2 391.664000 -777.268000 540.286000 1 1.000000 16 -3.000000
403 2 390.934000 -785.447000 534.726000 1 1.000000 1 -3.000000
404 2 389.702000 -793.186000 528.648000 1 1.000000 1 -3.000000
405 2 388.224000 -802.407000 525.725000 1 1.000000 1 -3.000000
406 2 384.282000 -811.413000 524.308000 1 1.000000 1 -3.000000
407 2 379.605000 -819.200000 520.356000 1 1.000000 1 -3.000000
408 2 374.134000 -826.712000 517.239000 1 1.000000 1 -3.000000
409 2 367.842000 -833.805000 514.333000 1 1.000000 1 -3.000000
410 2 364.953000 -843.019000 512.779000 1 1.000000 1 -3.000000
411 2 362.168000 -852.384000 514.464000 1 1.000000 1 -3.000000
412 2 363.481000 -862.216000 515.441000 1 1.000000 1 -3.000000
413 2 365.424000 -871.466000 518.277000 1 1.000000 1 -3.000000
414 2 366.318000 -880.345000 522.433000 1 1.000000 1 -3.000000
415 2 366.291000 -887.945000 528.905000 1 1.000000 1 -3.000000
416 2 366.677000 -891.172000 538.268000 1 1.000000 1 -3.000000
417 2 365.976000 -892.562000 548.046000 1 1.000000 1 -3.000000
418 2 364.623000 -892.769000 557.830000 1 1.000000 1 -3.000000
419 2 363.639000 -890.570000 567.407000 1 1.000000 1 -3.000000
420 2 363.024000 -887.032000 576.668000 1 1.000000 1 -3.000000
421 2 362.745000 -881.089000 584.585000 1 1.000000 1 -3.000000
422 2 362.984000 -873.498000 590.869000 1 1.000000 1 -3.000000
423 2 364.912000 -864.954000 595.513000 1 1.000000 1 -3.000000
424 2 365.766000 -856.677000 600.920000 1 1.000000 1 -3.000000
425 2 367.236000 -847.389000 604.042000 1 1.000000 1 -3.000000
426 2 369.505000 -838.492000 607.818000 1 1.000000 17 -3.000000
427 1 392.212000 -818.852000 571.443000 1 1.000000 17 0.000000
428 3 375.499000 -845.859000 556.701000 1 1.000000 17 0.000000
429 2 405.850000 -816.771000 526.280000 1 1.000000 17 -3.000000
430 2 402.415000 -826.053000 525.026000 1 1.000000 1 -3.000000
431 2 400.434000 -835.489000 522.958000 1 1.000000 1 -3.000000
432 2 398.972000 -844.964000 520.178000 1 1.000000 1 -3.000000
433 2 401.495000 -853.547000 515.896000 1 1.000000 1 -3.000000
434 2 403.309000 -862.818000 512.835000 1 1.000000 1 -3.000000
435 2 405.320000 -871.079000 507.827000 1 1.000000 1 -3.000000
436 2 407.658000 -879.044000 502.501000 1 1.000000 1 -3.000000
437 2 409.805000 -885.885000 495.663000 1 1.000000 1 -3.000000
438 2 412.871000 -892.583000 488.905000 1 1.000000 1 -3.000000
439 2 415.473000 -897.912000 480.944000 1 1.000000 1 -3.000000
440 2 419.862000 -901.416000 472.810000 1 1.000000 1 -3.000000
441 2 425.260000 -904.582000 465.159000 1 1.000000 1 -3.000000
442 2 429.391000 -906.028000 456.249000 1 1.000000 1 -3.000000
443 2 432.996000 -906.918000 447.012000 1 1.000000 1 -3.000000
444 2 434.752000 -909.289000 437.518000 1 1.000000 1 -3.000000
445 2 436.297000 -911.240000 427.980000 1 1.000000 1 -3.000000
446 2 437.268000 -913.373000 418.160000 1 1.000000 1 -3.000000
447 2 438.422000 -916.459000 408.843000 1 1.000000 1 -3.000000
448 2 437.573000 -920.382000 399.793000 1 1.000000 1 -3.000000
449 2 434.578000 -925.177000 391.652000 1 1.000000 1 -3.000000
450 2 430.900000 -930.692000 384.223000 1 1.000000 1 -3.000000
451 2 424.187000 -935.655000 378.752000 1 1.000000 1 -3.000000
452 2 417.960000 -941.237000 373.505000 1 1.000000 1 -3.000000
453 2 412.287000 -946.837000 367.686000 1 1.000000 18 -3.000000
454 1 380.568000 -955.105000 401.657000 1 1.000000 18 0.000000
455 3 393.347000 -923.597000 410.112000 1 1.000000 18 0.000000
456 2 354.892000 -942.748000 439.241000 1 1.000000 18 -3.000000
457 2 355.008000 -932.894000 438.190000 1 1.000000 1 -3.000000
458 2 355.956000 -923.261000 436.093000 1 1.000000 1 -3.000000
459 2 358.957000 -913.863000 436.003000 1 1.000000 1 -3.000000
460 2 362.362000 -904.642000 434.843000 1 1.000000 1 -3.000000
461 2 366.666000 -896.613000 430.754000 1 1.000000 1 -3.000000
462 2 372.804000 -890.140000 426.459000 1 1.000000 1 -3.000000
463 2 380.080000 -884.285000 423.023000 1 1.000000 1 -3.000000
464 2 387.690000 -879.035000 419.546000 1 1.000000 1 -3.000000
465 2 395.706000 -875.278000 415.076000 1 1.000000 1 -3.000000
466 2 404.269000 -873.578000 410.416000 1 1.000000 1 -3.000000
467 2 412.379000 -872.588000 404.924000 1 1.000000 1 -3.000000
468 2 420.047000 -870.477000 398.956000 1 1.000000 1 -3.000000
469 2 428.493000 -866.894000 395.198000 1 1.000000 1 -3.000000
470 2 437.954000 -865.189000 393.019000 1 1.000000 1 -3.000000
471 2 447.786000 -864.045000 392.498000 1 1.000000 1 -3.000000
472 2 457.541000 -865.239000 391.177000 1 1.000000 1 -3.000000
473 2 467.043000 -867.607000 390.523000 1 1.000000 1 -3.000000
474 2 476.030000 -871.435000 388.816000 1 1.000000 1 -3.000000
475 2 483.746000 -875.107000 383.877000 1 1.000000 1 -3.000000