LAMMPS data file

4067 atoms
4067 ellipsoids
4516 bonds
8882 angles
0 dihedrals

3 atom types
5 bond types
12 angle types
0 dihedral types

-4631.092947 4670.465898 xlo xhi
-4631.092947 4670.465898 ylo yhi
-4631.092947 4670.465898 zlo zhi

Masses

1 196016.000000
2 1950.000000
3 19500.000000

Atoms

1 2 106.085000 -485.808000 579.848000 1 1.000000 1 -3.000000
2 2 112.105000 -485.956000 587.654000 1 1.000000 1 -3.000000
3 2 117.735000 -486.408000 595.766000 1 1.000000 1 -3.000000
4 2 122.708000 -486.802000 604.289000 1 1.000000 1 -3.000000
5 2 127.831000 -488.384000 612.648000 1 1.000000 1 -3.000000
6 2 133.420000 -487.956000 620.806000 1 1.000000 1 -3.000000
7 2 138.513000 -486.184000 629.109000 1 1.000000 1 -3.000000
8 2 142.299000 -483.651000 637.948000 1 1.000000 1 -3.000000
9 2 146.148000 -478.999000 645.845000 1 1.000000 1 -3.000000
10 2 149.051000 -472.992000 653.164000 1 1.000000 1 -3.000000
11 2 154.310000 -467.278000 659.331000 1 1.000000 1 -3.000000
12 2 161.293000 -462.779000 664.579000 1 1.000000 1 -3.000000
13 2 168.883000 -461.029000 670.727000 1 1.000000 1 -3.000000
14 2 175.930000 -459.390000 677.437000 1 1.000000 1 -3.000000
15 2 179.769000 -457.536000 686.324000 1 1.000000 1 -3.000000
16 2 184.595000 -456.340000 694.916000 1 1.000000 1 -3.000000
17 2 188.240000 -454.858000 704.025000 1 1.000000 1 -3.000000
18 2 193.262000 -453.478000 712.468000 1 1.000000 1 -3.000000
19 2 199.408000 -453.187000 720.166000 1 1.000000 1 -3.000000
20 2 205.440000 -452.127000 728.001000 1 1.000000 1 -3.000000
21 2 212.818000 -450.397000 734.315000 1 1.000000 2 -3.000000
22 1 242.799000 -421.131000 712.734000 1 1.000000 2 0.000000
23 3 214.569000 -420.214000 692.058000 1 1.000000 2 0.000000
24 2 256.444000 -393.550000 676.929000 1 1.000000 2 -3.000000
25 2 249.436000 -391.885000 670.106000 1 1.000000 1 -3.000000
26 2 241.072000 -391.685000 664.855000 1 1.000000 1 -3.000000
27 2 231.787000 -391.449000 661.422000 1 1.000000 1 -3.000000
28 2 222.151000 -391.887000 659.273000 1 1.000000 1 -3.000000
29 2 212.363000 -391.345000 658.880000 1 1.000000 1 -3.000000
30 2 202.618000 -392.588000 657.701000 1 1.000000 1 -3.000000
31 2 192.742000 -393.031000 656.681000 1 1.000000 1 -3.000000
32 2 183.016000 -390.933000 657.174000 1 1.000000 1 -3.000000
33 2 173.654000 -389.654000 660.286000 1 1.000000 1 -3.000000
34 2 164.207000 -388.590000 662.995000 1 1.000000 1 -3.000000
35 2 155.185000 -385.580000 665.855000 1 1.000000 1 -3.000000
36 2 146.269000 -382.687000 669.046000 1 1.000000 1 -3.000000
37 2 138.080000 -379.461000 673.686000 1 1.000000 1 -3.000000
38 2 129.115000 -376.879000 677.038000 1 1.000000 1 -3.000000
39 2 119.763000 -375.816000 680.124000 1 1.000000 1 -3.000000
40 2 109.929000 -374.663000 680.363000 1 1.000000 1 -3.000000
41 2 100.388000 -374.019000 682.772000 1 1.000000 1 -3.000000
42 2 91.304200 -373.653000 686.678000 1 1.000000 1 -3.000000
43 2 82.524800 -371.618000 690.813000 1 1.000000 1 -3.000000
44 2 73.278300 -368.809000 693.083000 1 1.000000 1 -3.000000
45 2 63.439300 -367.778000 694.195000 1 1.000000 1 -3.000000
46 2 53.661300 -368.266000 695.906000 1 1.000000 1 -3.000000
47 2 43.969200 -369.998000 696.329000 1 1.000000 1 -3.000000
48 2 34.369800 -372.282000 695.601000 1 1.000000 3 -3.000000
49 1 26.353200 -379.992000 649.719000 1 1.000000 3 0.000000
50 3 61.360100 -379.847000 651.877000 1 1.000000 3 0.000000
51 2 39.935500 -386.462000 604.991000 1 1.000000 3 -3.000000
52 2 49.777600 -387.381000 605.653000 1 1.000000 1 -3.000000
53 2 59.341300 -388.370000 607.951000 1 1.000000 1 -3.000000
54 2 68.889600 -386.615000 609.479000 1 1.000000 1 -3.000000
55 2 78.633300 -384.759000 610.610000 1 1.000000 1 -3.000000
56 2 87.418100 -384.151000 615.169000 1 1.000000 1 -3.000000
57 2 96.088200 -382.385000 619.723000 1 1.000000 1 -3.000000
58 2 105.268000 -379.865000 622.286000 1 1.000000 1 -3.000000
59 2 114.174000 -378.118000 626.245000 1 1.000000 1 -3.000000
60 2 122.442000 -375.104000 630.902000 1 1.000000 1 -3.000000
61 2 130.254000 -371.441000 635.677000 1 1.000000 1 -3.000000
62 2 137.773000 -368.722000 641.440000 1 1.000000 1 -3.000000
63 2 144.421000 -363.882000 646.846000 1 1.000000 1 -3.000000
64 2 149.870000 -356.991000 651.489000 1 1.000000 1 -3.000000
65 2 153.547000 -349.972000 657.394000 1 1.000000 1 -3.000000
66 2 158.988000 -344.763000 663.817000 1 1.000000 1 -3.000000
67 2 165.252000 -339.746000 669.517000 1 1.000000 1 -3.000000
68 2 172.721000 -335.515000 674.442000 1 1.000000 1 -3.000000
69 2 179.623000 -330.321000 679.311000 1 1.000000 1 -3.000000
70 2 184.590000 -324.060000 685.104000 1 1.000000 1 -3.000000
71 2 189.222000 -317.842000 691.354000 1 1.000000 1 -3.000000
72 2 194.355000 -312.672000 698.045000 1 1.000000 1 -3.000000
73 2 198.989000 -306.613000 704.328000 1 1.000000 1 -3.000000
74 2 201.921000 -298.657000 709.342000 1 1.000000 1 -3.000000
75 2 202.396000 -291.674000 716.392000 1 1.000000 4 -3.000000
76 1 216.388000 -258.870000 685.534000 1 1.000000 4 0.000000
77 3 223.569000 -288.911000 669.017000 1 1.000000 4 0.000000
78 2 235.130000 -244.565000 644.671000 1 1.000000 4 -3.000000
79 2 234.791000 -253.673000 640.657000 1 1.000000 1 -3.000000
80 2 235.205000 -262.362000 635.921000 1 1.000000 1 -3.000000
81 2 235.528000 -271.085000 631.313000 1 1.000000 1 -3.000000
82 2 236.181000 -279.858000 626.892000 1 1.000000 1 -3.000000
83 2 235.241000 -289.334000 624.199000 1 1.000000 1 -3.000000
84 2 232.524000 -298.841000 624.631000 1 1.000000 1 -3.000000
85 2 228.187000 -307.469000 626.497000 1 1.000000 1 -3.000000
86 2 222.559000 -315.462000 628.556000 1 1.000000 1 -3.000000
87 2 218.059000 -323.630000 631.911000 1 1.000000 1 -3.000000
88 2 214.072000 -331.653000 636.243000 1 1.000000 1 -3.000000
89 2 211.669000 -339.818000 641.147000 1 1.000000 1 -3.000000
90 2 208.100000 -347.611000 646.159000 1 1.000000 1 -3.000000
91 2 204.654000 -354.051000 652.723000 1 1.000000 1 -3.000000
92 2 202.479000 -360.475000 659.945000 1 1.000000 1 -3.000000
93 2 200.257000 -367.069000 666.972000 1 1.000000 1 -3.000000
94 2 200.899000 -373.377000 674.554000 1 1.000000 1 -3.000000
95 2 201.828000 -380.073000 681.759000 1 1.000000 1 -3.000000
96 2 202.740000 -386.167000 689.552000 1 1.000000 1 -3.000000
97 2 203.550000 -391.681000 697.787000 1 1.000000 1 -3.000000
98 2 204.148000 -394.576000 707.194000 1 1.000000 1 -3.000000
99 2 204.386000 -395.965000 717.034000 1 1.000000 1 -3.000000
100 2 205.026000 -394.732000 726.823000 1 1.000000 1 -3.000000
101 2 204.723000 -393.634000 736.670000 1 1.000000 1 -3.000000
102 2 205.017000 -393.756000 746.537000 1 1.000000 5 -3.000000
103 1 216.085000 -347.915000 748.920000 1 1.000000 5 0.000000
104 3 203.216000 -351.371000 716.560000 1 1.000000 5 0.000000
105 2 216.221000 -303.677000 732.439000 1 1.000000 5 -3.000000
106 2 216.074000 -307.119000 723.181000 1 1.000000 1 -3.000000
107 2 216.998000 -310.265000 713.874000 1 1.000000 1 -3.000000
108 2 219.983000 -315.082000 705.831000 1 1.000000 1 -3.000000
109 2 224.285000 -321.114000 699.261000 1 1.000000 1 -3.000000
110 2 228.942000 -324.123000 690.984000 1 1.000000 1 -3.000000
111 2 235.154000 -327.032000 683.911000 1 1.000000 1 -3.000000
112 2 242.005000 -331.138000 678.077000 1 1.000000 1 -3.000000
113 2 245.298000 -338.557000 672.589000 1 1.000000 1 -3.000000
114 2 248.599000 -347.096000 668.776000 1 1.000000 1 -3.000000
115 2 255.266000 -353.921000 666.269000 1 1.000000 1 -3.000000
116 2 262.984000 -359.775000 664.295000 1 1.000000 1 -3.000000
117 2 269.224000 -366.727000 661.104000 1 1.000000 1 -3.000000
118 2 273.131000 -374.838000 657.145000 1 1.000000 1 -3.000000
119 2 276.468000 -382.406000 651.700000 1 1.000000 1 -3.000000
120 2 282.190000 -389.510000 647.845000 1 1.000000 1 -3.000000
121 2 287.676000 -396.848000 644.122000 1 1.000000 1 -3.000000
122 2 293.895000 -403.711000 640.638000 1 1.000000 1 -3.000000
123 2 301.235000 -410.343000 639.351000 1 1.000000 1 -3.000000
124 2 308.809000 -416.758000 638.763000 1 1.000000 1 -3.000000
125 2 316.869000 -422.272000 639.757000 1 1.000000 1 -3.000000
126 2 325.408000 -426.546000 642.209000 1 1.000000 1 -3.000000
127 2 333.736000 -430.653000 645.633000 1 1.000000 1 -3.000000
128 2 342.588000 -432.336000 649.831000 1 1.000000 1 -3.000000
129 2 350.659000 -435.949000 654.218000 1 1.000000 6 -3.000000
130 1 336.692000 -436.671000 699.295000 1 1.000000 6 0.000000
131 3 306.539000 -434.520000 681.658000 1 1.000000 6 0.000000
132 2 304.383000 -432.850000 733.439000 1 1.000000 6 -3.000000
133 2 297.108000 -437.504000 728.578000 1 1.000000 1 -3.000000
134 2 289.229000 -441.135000 723.793000 1 1.000000 1 -3.000000
135 2 282.360000 -446.149000 718.609000 1 1.000000 1 -3.000000
136 2 275.957000 -448.068000 711.281000 1 1.000000 1 -3.000000
137 2 270.473000 -451.436000 703.766000 1 1.000000 1 -3.000000
138 2 266.062000 -454.081000 695.320000 1 1.000000 1 -3.000000
139 2 262.143000 -454.596000 686.281000 1 1.000000 1 -3.000000
140 2 257.917000 -457.909000 677.969000 1 1.000000 1 -3.000000
141 2 251.298000 -458.454000 670.695000 1 1.000000 1 -3.000000
142 2 243.832000 -458.353000 664.180000 1 1.000000 1 -3.000000
143 2 235.846000 -458.018000 658.428000 1 1.000000 1 -3.000000
144 2 229.481000 -458.276000 650.765000 1 1.000000 1 -3.000000
145 2 225.007000 -457.718000 641.860000 1 1.000000 1 -3.000000
146 2 221.111000 -460.223000 633.145000 1 1.000000 1 -3.000000
147 2 218.205000 -464.621000 624.705000 1 1.000000 1 -3.000000
148 2 215.149000 -468.997000 616.335000 1 1.000000 1 -3.000000
149 2 210.977000 -472.401000 608.108000 1 1.000000 1 -3.000000
150 2 207.717000 -474.574000 598.990000 1 1.000000 1 -3.000000
151 2 204.409000 -478.936000 590.802000 1 1.000000 1 -3.000000
152 2 202.517000 -485.056000 583.237000 1 1.000000 1 -3.000000
153 2 198.756000 -491.714000 576.868000 1 1.000000 1 -3.000000
154 2 194.966000 -498.350000 570.522000 1 1.000000 1 -3.000000
155 2 190.906000 -505.857000 565.402000 1 1.000000 1 -3.000000
156 2 188.541000 -514.026000 560.357000 1 1.000000 7 -3.000000
157 1 220.519000 -509.697000 525.959000 1 1.000000 7 0.000000
158 3 235.006000 -492.133000 552.562000 1 1.000000 7 0.000000
159 2 260.582000 -493.255000 507.335000 1 1.000000 7 -3.000000
160 2 264.788000 -492.818000 516.313000 1 1.000000 1 -3.000000
161 2 268.813000 -491.188000 525.205000 1 1.000000 1 -3.000000
162 2 273.416000 -489.525000 533.795000 1 1.000000 1 -3.000000
163 2 276.318000 -489.683000 543.281000 1 1.000000 1 -3.000000
164 2 280.102000 -490.305000 552.422000 1 1.000000 1 -3.000000
165 2 280.356000 -489.760000 562.287000 1 1.000000 1 -3.000000
166 2 282.704000 -488.580000 571.873000 1 1.000000 1 -3.000000
167 2 281.929000 -488.485000 581.685000 1 1.000000 1 -3.000000
168 2 280.970000 -488.861000 591.471000 1 1.000000 1 -3.000000
169 2 278.361000 -491.814000 600.556000 1 1.000000 1 -3.000000
170 2 275.263000 -495.252000 609.379000 1 1.000000 1 -3.000000
171 2 271.119000 -498.552000 617.913000 1 1.000000 1 -3.000000
172 2 266.081000 -500.634000 626.192000 1 1.000000 1 -3.000000
173 2 260.922000 -502.131000 634.448000 1 1.000000 1 -3.000000
174 2 255.866000 -502.627000 643.034000 1 1.000000 1 -3.000000
175 2 251.593000 -504.741000 651.760000 1 1.000000 1 -3.000000
176 2 248.244000 -509.606000 659.687000 1 1.000000 1 -3.000000
177 2 244.748000 -513.860000 667.911000 1 1.000000 1 -3.000000
178 2 241.543000 -516.729000 676.854000 1 1.000000 1 -3.000000
179 2 238.666000 -522.682000 684.108000 1 1.000000 1 -3.000000
180 2 236.229000 -530.029000 690.338000 1 1.000000 1 -3.000000
181 2 233.933000 -538.325000 695.238000 1 1.000000 1 -3.000000
182 2 231.787000 -546.747000 699.931000 1 1.000000 1 -3.000000
183 2 228.670000 -554.285000 705.598000 1 1.000000 8 -3.000000
184 1 240.111000 -587.016000 673.656000 1 1.000000 8 0.000000
185 3 254.033000 -557.734000 660.335000 1 1.000000 8 0.000000
186 2 258.946000 -601.596000 632.990000 1 1.000000 8 -3.000000
187 2 261.163000 -592.347000 630.127000 1 1.000000 1 -3.000000
188 2 266.022000 -584.123000 627.592000 1 1.000000 1 -3.000000
189 2 271.348000 -575.848000 627.094000 1 1.000000 1 -3.000000
190 2 276.432000 -567.581000 625.552000 1 1.000000 1 -3.000000
191 2 281.940000 -559.354000 626.069000 1 1.000000 1 -3.000000
192 2 284.823000 -549.978000 627.211000 1 1.000000 1 -3.000000
193 2 289.021000 -541.066000 628.005000 1 1.000000 1 -3.000000
194 2 292.552000 -531.830000 628.225000 1 1.000000 1 -3.000000
195 2 297.528000 -523.376000 629.506000 1 1.000000 1 -3.000000
196 2 301.452000 -514.687000 631.913000 1 1.000000 1 -3.000000
197 2 306.654000 -506.570000 634.064000 1 1.000000 1 -3.000000
198 2 312.015000 -498.702000 636.797000 1 1.000000 1 -3.000000
199 2 318.725000 -491.628000 638.420000 1 1.000000 1 -3.000000
200 2 326.101000 -485.441000 640.783000 1 1.000000 1 -3.000000
201 2 333.895000 -480.239000 644.120000 1 1.000000 1 -3.000000
202 2 341.700000 -474.791000 646.851000 1 1.000000 1 -3.000000
203 2 348.478000 -468.653000 650.299000 1 1.000000 1 -3.000000
204 2 354.085000 -461.754000 654.694000 1 1.000000 1 -3.000000
205 2 360.860000 -455.492000 658.484000 1 1.000000 1 -3.000000
206 2 368.867000 -449.949000 660.207000 1 1.000000 1 -3.000000
207 2 377.291000 -444.842000 659.355000 1 1.000000 1 -3.000000
208 2 385.859000 -440.791000 656.723000 1 1.000000 1 -3.000000
209 2 394.790000 -436.961000 654.714000 1 1.000000 1 -3.000000
210 2 403.603000 -432.966000 652.779000 1 1.000000 9 -3.000000
211 1 421.007000 -469.731000 628.901000 1 1.000000 9 0.000000
212 3 386.476000 -474.504000 626.769000 1 1.000000 9 0.000000
213 2 417.002000 -508.272000 601.911000 1 1.000000 9 -3.000000
214 2 407.259000 -507.529000 600.580000 1 1.000000 1 -3.000000
215 2 397.432000 -506.729000 599.077000 1 1.000000 1 -3.000000
216 2 388.300000 -504.500000 595.937000 1 1.000000 1 -3.000000
217 2 379.795000 -500.836000 592.353000 1 1.000000 1 -3.000000
218 2 371.834000 -495.687000 589.338000 1 1.000000 1 -3.000000
219 2 364.649000 -489.091000 587.833000 1 1.000000 1 -3.000000
220 2 356.691000 -483.230000 587.987000 1 1.000000 1 -3.000000
221 2 347.866000 -478.716000 587.761000 1 1.000000 1 -3.000000
222 2 338.476000 -475.654000 588.973000 1 1.000000 1 -3.000000
223 2 329.189000 -472.194000 590.005000 1 1.000000 1 -3.000000
224 2 320.326000 -468.298000 591.900000 1 1.000000 1 -3.000000
225 2 311.091000 -465.131000 593.292000 1 1.000000 1 -3.000000
226 2 302.827000 -459.805000 594.731000 1 1.000000 1 -3.000000
227 2 293.844000 -455.735000 595.681000 1 1.000000 1 -3.000000
228 2 284.321000 -452.860000 595.446000 1 1.000000 1 -3.000000
229 2 274.885000 -450.034000 594.801000 1 1.000000 1 -3.000000
230 2 265.145000 -448.504000 593.747000 1 1.000000 1 -3.000000
231 2 255.997000 -448.292000 590.160000 1 1.000000 1 -3.000000
232 2 246.817000 -451.097000 587.541000 1 1.000000 1 -3.000000
233 2 237.800000 -455.002000 586.154000 1 1.000000 1 -3.000000
234 2 228.883000 -458.929000 585.924000 1 1.000000 1 -3.000000
235 2 220.259000 -463.556000 584.248000 1 1.000000 1 -3.000000
236 2 212.068000 -468.543000 581.780000 1 1.000000 1 -3.000000
237 2 203.951000 -471.831000 577.274000 1 1.000000 10 -3.000000
238 1 187.201000 -427.871000 573.953000 1 1.000000 10 0.000000
239 3 203.342000 -427.893000 604.935000 1 1.000000 10 0.000000
240 2 179.015000 -384.389000 590.323000 1 1.000000 10 -3.000000
241 2 184.362000 -384.307000 598.669000 1 1.000000 1 -3.000000
242 2 190.164000 -384.873000 606.649000 1 1.000000 1 -3.000000
243 2 195.701000 -385.623000 614.844000 1 1.000000 1 -3.000000
244 2 203.269000 -386.663000 621.248000 1 1.000000 1 -3.000000
245 2 211.182000 -389.454000 626.415000 1 1.000000 1 -3.000000
246 2 219.691000 -393.373000 629.487000 1 1.000000 1 -3.000000
247 2 227.883000 -398.147000 632.212000 1 1.000000 1 -3.000000
248 2 235.670000 -402.792000 636.253000 1 1.000000 1 -3.000000
249 2 243.137000 -407.247000 640.889000 1 1.000000 1 -3.000000
250 2 251.224000 -412.051000 643.753000 1 1.000000 1 -3.000000
251 2 258.386000 -417.390000 648.122000 1 1.000000 1 -3.000000
252 2 265.913000 -423.212000 650.929000 1 1.000000 1 -3.000000
253 2 273.075000 -428.825000 654.865000 1 1.000000 1 -3.000000
254 2 280.479000 -433.582000 659.527000 1 1.000000 1 -3.000000
255 2 286.102000 -439.745000 664.903000 1 1.000000 1 -3.000000
256 2 291.254000 -446.268000 670.207000 1 1.000000 1 -3.000000
257 2 295.986000 -452.794000 676.000000 1 1.000000 1 -3.000000
258 2 301.595000 -459.226000 681.011000 1 1.000000 1 -3.000000
259 2 309.797000 -463.245000 684.975000 1 1.000000 1 -3.000000
260 2 315.973000 -468.347000 690.987000 1 1.000000 1 -3.000000
261 2 322.716000 -472.336000 697.052000 1 1.000000 1 -3.000000
262 2 330.305000 -475.790000 702.495000 1 1.000000 1 -3.000000
263 2 337.845000 -478.365000 708.410000 1 1.000000 1 -3.000000
264 2 342.308000 -482.328000 716.295000 1 1.000000 11 -3.000000
265 1 320.641000 -523.898000 710.668000 1 1.000000 11 0.000000
266 3 321.362000 -510.624000 678.248000 1 1.000000 11 0.000000
267 2 301.840000 -558.416000 684.542000 1 1.000000 11 -3.000000
268 2 305.210000 -553.795000 676.464000 1 1.000000 1 -3.000000
269 2 309.996000 -550.616000 668.366000 1 1.000000 1 -3.000000
270 2 315.191000 -547.504000 660.527000 1 1.000000 1 -3.000000
271 2 320.427000 -544.945000 652.503000 1 1.000000 1 -3.000000
272 2 325.956000 -540.459000 645.723000 1 1.000000 1 -3.000000
273 2 330.275000 -535.835000 638.143000 1 1.000000 1 -3.000000
274 2 333.413000 -530.342000 630.536000 1 1.000000 1 -3.000000
275 2 338.651000 -528.362000 622.353000 1 1.000000 1 -3.000000
276 2 344.001000 -528.954000 614.065000 1 1.000000 1 -3.000000
277 2 349.360000 -529.062000 605.844000 1 1.000000 1 -3.000000
278 2 353.596000 -530.594000 597.008000 1 1.000000 1 -3.000000
279 2 359.162000 -533.119000 589.247000 1 1.000000 1 -3.000000
280 2 363.901000 -535.506000 580.945000 1 1.000000 1 -3.000000
281 2 367.607000 -538.181000 572.184000 1 1.000000 1 -3.000000
282 2 371.005000 -539.876000 563.092000 1 1.000000 1 -3.000000
283 2 374.605000 -540.814000 553.834000 1 1.000000 1 -3.000000
284 2 376.934000 -541.673000 544.251000 1 1.000000 1 -3.000000
285 2 377.572000 -542.769000 534.403000 1 1.000000 1 -3.000000
286 2 378.664000 -545.272000 524.852000 1 1.000000 1 -3.000000
287 2 379.828000 -546.908000 515.185000 1 1.000000 1 -3.000000
288 2 383.266000 -549.477000 506.233000 1 1.000000 1 -3.000000
289 2 386.688000 -551.412000 497.121000 1 1.000000 1 -3.000000
290 2 391.300000 -552.291000 488.393000 1 1.000000 1 -3.000000
291 2 395.169000 -552.546000 479.337000 1 1.000000 12 -3.000000
292 1 440.200000 -557.070000 492.645000 1 1.000000 12 0.000000
293 3 423.132000 -554.522000 522.955000 1 1.000000 12 0.000000
294 2 475.013000 -555.918000 524.502000 1 1.000000 12 -3.000000
295 2 470.302000 -558.410000 532.771000 1 1.000000 1 -3.000000
296 2 464.857000 -561.200000 540.514000 1 1.000000 1 -3.000000
297 2 458.623000 -565.000000 547.255000 1 1.000000 1 -3.000000
298 2 451.764000 -568.946000 553.180000 1 1.000000 1 -3.000000
299 2 443.506000 -572.354000 557.619000 1 1.000000 1 -3.000000
300 2 435.102000 -575.213000 562.134000 1 1.000000 1 -3.000000
301 2 426.150000 -578.282000 565.059000 1 1.000000 1 -3.000000
302 2 416.994000 -581.652000 566.834000 1 1.000000 1 -3.000000
303 2 407.829000 -585.496000 565.854000 1 1.000000 1 -3.000000
304 2 400.658000 -592.174000 564.662000 1 1.000000 1 -3.000000
305 2 393.967000 -599.231000 562.795000 1 1.000000 1 -3.000000
306 2 387.979000 -607.135000 562.539000 1 1.000000 1 -3.000000
307 2 382.769000 -615.489000 563.037000 1 1.000000 1 -3.000000
308 2 377.172000 -623.698000 564.376000 1 1.000000 1 -3.000000
309 2 372.075000 -632.207000 564.422000 1 1.000000 1 -3.000000
310 2 368.642000 -641.474000 563.524000 1 1.000000 1 -3.000000
311 2 365.156000 -650.742000 563.453000 1 1.000000 1 -3.000000
312 2 361.044000 -659.789000 564.372000 1 1.000000 1 -3.000000
313 2 355.731000 -667.976000 563.490000 1 1.000000 1 -3.000000
314 2 351.617000 -676.459000 560.698000 1 1.000000 1 -3.000000
315 2 344.870000 -682.866000 556.999000 1 1.000000 1 -3.000000
316 2 338.687000 -688.407000 551.549000 1 1.000000 1 -3.000000
317 2 333.097000 -692.489000 544.461000 1 1.000000 1 -3.000000
318 2 325.279000 -697.722000 541.422000 1 1.000000 13 -3.000000
319 1 307.906000 -661.911000 516.100000 1 1.000000 13 0.000000
320 3 338.873000 -649.770000 527.048000 1 1.000000 13 0.000000
321 2 310.337000 -619.114000 496.338000 1 1.000000 13 -3.000000
322 2 320.085000 -617.565000 495.438000 1 1.000000 1 -3.000000
323 2 329.850000 -616.737000 496.728000 1 1.000000 1 -3.000000
324 2 339.734000 -616.790000 496.949000 1 1.000000 1 -3.000000
325 2 349.517000 -617.500000 498.356000 1 1.000000 1 -3.000000
326 2 358.643000 -620.114000 501.109000 1 1.000000 1 -3.000000
327 2 366.723000 -624.132000 505.144000 1 1.000000 1 -3.000000
328 2 374.461000 -629.227000 508.695000 1 1.000000 1 -3.000000
329 2 382.816000 -634.220000 510.562000 1 1.000000 1 -3.000000
330 2 391.568000 -636.899000 514.396000 1 1.000000 1 -3.000000
331 2 399.451000 -639.141000 519.856000 1 1.000000 1 -3.000000
332 2 407.071000 -640.835000 525.849000 1 1.000000 1 -3.000000
333 2 415.427000 -643.108000 530.803000 1 1.000000 1 -3.000000
334 2 423.725000 -645.216000 535.782000 1 1.000000 1 -3.000000
335 2 431.251000 -649.326000 540.702000 1 1.000000 1 -3.000000
336 2 437.579000 -653.640000 546.977000 1 1.000000 1 -3.000000
337 2 444.062000 -657.088000 553.617000 1 1.000000 1 -3.000000
338 2 450.750000 -660.310000 560.080000 1 1.000000 1 -3.000000
339 2 456.239000 -662.679000 568.006000 1 1.000000 1 -3.000000
340 2 461.155000 -665.547000 576.122000 1 1.000000 1 -3.000000
341 2 465.363000 -669.299000 584.287000 1 1.000000 1 -3.000000
342 2 468.796000 -675.093000 591.469000 1 1.000000 1 -3.000000
343 2 471.594000 -682.405000 597.459000 1 1.000000 1 -3.000000
344 2 473.582000 -688.825000 604.830000 1 1.000000 1 -3.000000
345 2 476.876000 -695.834000 611.134000 1 1.000000 14 -3.000000
346 1 440.161000 -723.734000 601.255000 1 1.000000 14 0.000000
347 3 445.871000 -706.955000 571.098000 1 1.000000 14 0.000000
348 2 406.527000 -740.848000 572.979000 1 1.000000 14 -3.000000
349 2 410.758000 -738.214000 564.520000 1 1.000000 1 -3.000000
350 2 415.632000 -736.863000 555.983000 1 1.000000 1 -3.000000
351 2 422.250000 -736.063000 548.612000 1 1.000000 1 -3.000000
352 2 429.796000 -734.803000 542.335000 1 1.000000 1 -3.000000
353 2 437.257000 -734.451000 535.916000 1 1.000000 1 -3.000000
354 2 442.654000 -735.595000 527.593000 1 1.000000 1 -3.000000
355 2 449.526000 -736.334000 520.456000 1 1.000000 1 -3.000000
356 2 452.559000 -735.749000 511.054000 1 1.000000 1 -3.000000
357 2 456.928000 -734.942000 502.367000 1 1.000000 1 -3.000000
358 2 462.777000 -734.661000 494.344000 1 1.000000 1 -3.000000
359 2 466.817000 -735.851000 485.449000 1 1.000000 1 -3.000000
360 2 472.039000 -735.468000 476.953000 1 1.000000 1 -3.000000
361 2 476.031000 -732.768000 468.266000 1 1.000000 1 -3.000000
362 2 480.061000 -731.298000 459.404000 1 1.000000 1 -3.000000
363 2 483.152000 -728.541000 450.464000 1 1.000000 1 -3.000000
364 2 486.337000 -725.623000 441.512000 1 1.000000 1 -3.000000
365 2 491.433000 -723.122000 433.389000 1 1.000000 1 -3.000000
366 2 496.410000 -721.292000 424.987000 1 1.000000 1 -3.000000
367 2 499.413000 -718.622000 415.972000 1 1.000000 1 -3.000000
368 2 499.702000 -712.014000 408.518000 1 1.000000 1 -3.000000
369 2 501.809000 -704.802000 402.028000 1 1.000000 1 -3.000000
370 2 504.989000 -696.802000 397.173000 1 1.000000 1 -3.000000
371 2 509.248000 -688.763000 393.154000 1 1.000000 1 -3.000000
372 2 514.085000 -681.673000 388.211000 1 1.000000 15 -3.000000
373 1 521.668000 -657.266000 427.898000 1 1.000000 15 0.000000
374 3 526.165000 -690.413000 437.926000 1 1.000000 15 0.000000
375 2 534.011000 -653.233000 473.223000 1 1.000000 15 -3.000000
376 2 537.683000 -662.024000 476.118000 1 1.000000 1 -3.000000
377 2 542.040000 -670.254000 479.625000 1 1.000000 1 -3.000000
378 2 546.405000 -679.110000 479.804000 1 1.000000 1 -3.000000
379 2 549.047000 -688.466000 478.169000 1 1.000000 1 -3.000000
380 2 549.982000 -697.996000 475.892000 1 1.000000 1 -3.000000
381 2 550.955000 -706.719000 471.218000 1 1.000000 1 -3.000000
382 2 552.342000 -715.267000 466.275000 1 1.000000 1 -3.000000
383 2 552.635000 -723.018000 460.107000 1 1.000000 1 -3.000000
384 2 553.972000 -731.196000 454.695000 1 1.000000 1 -3.000000
385 2 555.490000 -739.552000 449.642000 1 1.000000 1 -3.000000
386 2 557.957000 -748.276000 445.507000 1 1.000000 1 -3.000000
387 2 559.902000 -755.685000 439.186000 1 1.000000 1 -3.000000
388 2 562.685000 -764.391000 435.482000 1 1.000000 1 -3.000000
389 2 563.506000 -773.796000 432.704000 1 1.000000 1 -3.000000
390 2 563.029000 -783.269000 429.978000 1 1.000000 1 -3.000000
391 2 562.049000 -792.902000 428.323000 1 1.000000 1 -3.000000
392 2 559.771000 -802.595000 428.608000 1 1.000000 1 -3.000000
393 2 557.420000 -812.329000 428.324000 1 1.000000 1 -3.000000
394 2 554.370000 -821.703000 428.694000 1 1.000000 1 -3.000000
395 2 550.947000 -830.896000 427.840000 1 1.000000 1 -3.000000
396 2 547.275000 -839.644000 424.804000 1 1.000000 1 -3.000000
397 2 541.759000 -846.323000 420.079000 1 1.000000 1 -3.000000
398 2 536.751000 -852.122000 413.870000 1 1.000000 1 -3.000000
399 2 531.089000 -859.245000 409.977000 1 1.000000 16 -3.000000
400 1 496.892000 -829.767000 396.218000 1 1.000000 16 0.000000
401 3 524.639000 -808.790000 399.497000 1 1.000000 16 0.000000
402 2 480.668000 -787.949000 381.525000 1 1.000000 16 -3.000000
403 2 489.117000 -784.303000 377.903000 1 1.000000 1 -3.000000
404 2 498.483000 -782.578000 375.077000 1 1.000000 1 -3.000000
405 2 506.099000 -781.123000 369.012000 1 1.000000 1 -3.000000
406 2 514.729000 -779.886000 364.195000 1 1.000000 1 -3.000000
407 2 522.673000 -780.407000 358.296000 1 1.000000 1 -3.000000
408 2 529.521000 -782.860000 351.550000 1 1.000000 1 -3.000000
409 2 537.947000 -783.578000 346.486000 1 1.000000 1 -3.000000
410 2 546.504000 -785.669000 342.093000 1 1.000000 1 -3.000000
411 2 554.857000 -789.690000 338.694000 1 1.000000 1 -3.000000
412 2 563.832000 -793.384000 336.865000 1 1.000000 1 -3.000000
413 2 572.816000 -796.557000 334.314000 1 1.000000 1 -3.000000
414 2 582.191000 -799.798000 335.064000 1 1.000000 1 -3.000000
415 2 591.600000 -801.769000 337.417000 1 1.000000 1 -3.000000
416 2 601.154000 -801.652000 339.932000 1 1.000000 1 -3.000000
417 2 610.741000 -801.024000 342.472000 1 1.000000 1 -3.000000
418 2 620.351000 -799.815000 344.545000 1 1.000000 1 -3.000000
419 2 629.551000 -799.351000 348.228000 1 1.000000 1 -3.000000
420 2 638.423000 -797.841000 352.294000 1 1.000000 1 -3.000000
421 2 646.246000 -796.273000 358.131000 1 1.000000 1 -3.000000
422 2 654.709000 -794.096000 362.830000 1 1.000000 1 -3.000000
423 2 663.647000 -794.450000 366.989000 1 1.000000 1 -3.000000
424 2 671.961000 -796.290000 371.972000 1 1.000000 1 -3.000000
425 2 679.695000 -798.297000 377.810000 1 1.000000 1 -3.000000
426 2 688.119000 -799.605000 382.770000 1 1.000000 17 -3.000000
427 1 680.451000 -844.066000 396.672000 1 1.000000 17 0.000000
428 3 657.261000 -839.623000 370.914000 1 1.000000 17 0.000000
429 2 659.567000 -886.245000 393.457000 1 1.000000 17 -3.000000
430 2 657.116000 -888.014000 383.984000 1 1.000000 1 -3.000000
431 2 656.159000 -887.897000 374.232000 1 1.000000 1 -3.000000
432 2 652.764000 -884.575000 365.571000 1 1.000000 1 -3.000000
433 2 651.798000 -880.844000 356.430000 1 1.000000 1 -3.000000
434 2 649.081000 -876.480000 347.942000 1 1.000000 1 -3.000000
435 2 649.643000 -871.265000 339.502000 1 1.000000 1 -3.000000
436 2 650.790000 -866.712000 330.860000 1 1.000000 1 -3.000000
437 2 651.822000 -862.108000 322.125000 1 1.000000 1 -3.000000
438 2 655.095000 -857.763000 313.882000 1 1.000000 1 -3.000000
439 2 655.755000 -852.564000 305.509000 1 1.000000 1 -3.000000
440 2 656.522000 -847.862000 296.930000 1 1.000000 1 -3.000000
441 2 656.317000 -843.728000 288.002000 1 1.000000 1 -3.000000
442 2 654.418000 -838.867000 279.613000 1 1.000000 1 -3.000000
443 2 657.186000 -833.047000 272.093000 1 1.000000 1 -3.000000
444 2 659.285000 -827.418000 264.190000 1 1.000000 1 -3.000000
445 2 660.445000 -825.503000 254.569000 1 1.000000 1 -3.000000
446 2 662.067000 -823.738000 244.960000 1 1.000000 1 -3.000000
447 2 663.341000 -821.481000 235.378000 1 1.000000 1 -3.000000
448 2 664.636000 -817.892000 226.173000 1 1.000000 1 -3.000000
449 2 666.805000 -814.886000 217.015000 1 1.000000 1 -3.000000
450 2 667.791000 -813.641000 207.220000 1 1.000000 1 -3.000000
451 2 669.867000 -814.954000 197.593000 1 1.000000 1 -3.000000
452 2 670.296000 -816.206000 187.781000 1 1.000000 1 -3.000000
453 2 670.443000 -817.182000 177.926000 1 1.000000 18 -3.000000
454 1 656.041000 -861.967000 174.136000 1 1.000000 18 0.000000
455 3 645.760000 -853.009000 206.308000 1 1.000000 18 0.000000
456 2 637.021000 -901.757000 190.992000 1 1.000000 18 -3.000000
457 2 630.729000 -898.153000 197.737000 1 1.000000 1 -3.000000
458 2 624.327000 -893.403000 203.613000 1 1.000000 1 -3.000000
459 2 619.099000 -888.347000 210.273000 1 1.000000 1 -3.000000
460 2 615.853000 -882.496000 217.456000 1 1.000000 1 -3.000000
461 2 613.016000 -874.938000 223.169000 1 1.000000 1 -3.000000
462 2 610.292000 -867.104000 228.592000 1 1.000000 1 -3.000000
463 2 605.922000 -859.838000 233.597000 1 1.000000 1 -3.000000
464 2 602.221000 -852.396000 238.987000 1 1.000000 1 -3.000000
465 2 598.232000 -845.543000 244.897000 1 1.000000 1 -3.000000
466 2 592.669000 -839.143000 249.944000 1 1.000000 1 -3.000000
467 2 587.300000 -834.910000 257.134000 1 1.000000 1 -3.000000
468 2 583.415000 -829.246000 264.211000 1 1.000000 1 -3.000000
469 2 579.425000 -823.581000 271.189000 1 1.000000 1 -3.000000
470 2 576.630000 -815.149000 275.345000 1 1.000000 1 -3.000000
471 2 573.978000 -806.586000 279.516000 1 1.000000 1 -3.000000
472 2 572.949000 -798.537000 285.175000 1 1.000000 1 -3.000000
473 2 569.976000 -789.580000 288.134000 1 1.000000 1 -3.000000