LAMMPS data file

4067 atoms
4067 ellipsoids
4516 bonds
8882 angles
0 dihedrals

3 atom types
5 bond types
12 angle types
0 dihedral types

-4631.092947 4670.465898 xlo xhi
-4631.092947 4670.465898 ylo yhi
-4631.092947 4670.465898 zlo zhi

Masses

1 196016.000000
2 1950.000000
3 19500.000000

Atoms

1 2 219.567000 66.932000 249.738000 1 1.000000 1 -3.000000
2 2 211.757000 65.990000 243.672000 1 1.000000 1 -3.000000
3 2 204.284000 67.737800 237.495000 1 1.000000 1 -3.000000
4 2 197.448000 69.160200 230.433000 1 1.000000 1 -3.000000
5 2 190.576000 71.799000 223.868000 1 1.000000 1 -3.000000
6 2 182.447000 73.624300 218.462000 1 1.000000 1 -3.000000
7 2 174.292000 77.437400 214.368000 1 1.000000 1 -3.000000
8 2 167.095000 82.444300 209.921000 1 1.000000 1 -3.000000
9 2 160.034000 87.224300 204.844000 1 1.000000 1 -3.000000
10 2 153.326000 91.422600 198.922000 1 1.000000 1 -3.000000
11 2 147.611000 96.236200 192.398000 1 1.000000 1 -3.000000
12 2 142.120000 101.607000 186.140000 1 1.000000 1 -3.000000
13 2 137.130000 108.486000 181.062000 1 1.000000 1 -3.000000
14 2 132.722000 116.890000 178.295000 1 1.000000 1 -3.000000
15 2 127.601000 125.233000 176.653000 1 1.000000 1 -3.000000
16 2 120.896000 132.228000 174.848000 1 1.000000 1 -3.000000
17 2 114.039000 139.355000 175.254000 1 1.000000 1 -3.000000
18 2 108.096000 147.232000 174.202000 1 1.000000 1 -3.000000
19 2 101.451000 154.476000 174.051000 1 1.000000 1 -3.000000
20 2 95.918600 162.617000 175.471000 1 1.000000 1 -3.000000
21 2 89.047700 168.348000 179.541000 1 1.000000 2 -3.000000
22 1 110.239000 183.239000 218.937000 1 1.000000 2 0.000000
23 3 136.276000 168.245000 201.012000 1 1.000000 2 0.000000
24 2 147.348000 188.138000 247.664000 1 1.000000 2 -3.000000
25 2 153.635000 188.704000 240.004000 1 1.000000 1 -3.000000
26 2 160.628000 188.530000 233.004000 1 1.000000 1 -3.000000
27 2 167.296000 189.377000 225.653000 1 1.000000 1 -3.000000
28 2 173.491000 187.181000 218.230000 1 1.000000 1 -3.000000
29 2 177.312000 183.095000 210.048000 1 1.000000 1 -3.000000
30 2 180.273000 180.024000 201.127000 1 1.000000 1 -3.000000
31 2 183.754000 176.683000 192.514000 1 1.000000 1 -3.000000
32 2 188.188000 174.180000 183.926000 1 1.000000 1 -3.000000
33 2 192.635000 175.912000 175.224000 1 1.000000 1 -3.000000
34 2 194.023000 178.302000 165.718000 1 1.000000 1 -3.000000
35 2 191.617000 179.843000 156.165000 1 1.000000 1 -3.000000
36 2 188.288000 181.842000 147.122000 1 1.000000 1 -3.000000
37 2 187.492000 184.467000 137.604000 1 1.000000 1 -3.000000
38 2 187.783000 189.895000 129.375000 1 1.000000 1 -3.000000
39 2 189.205000 196.189000 121.719000 1 1.000000 1 -3.000000
40 2 191.847000 203.579000 115.612000 1 1.000000 1 -3.000000
41 2 196.563000 209.589000 109.264000 1 1.000000 1 -3.000000
42 2 200.479000 215.667000 102.471000 1 1.000000 1 -3.000000
43 2 203.246000 224.483000 98.927200 1 1.000000 1 -3.000000
44 2 206.618000 232.987000 95.234700 1 1.000000 1 -3.000000
45 2 210.507000 241.995000 94.644300 1 1.000000 1 -3.000000
46 2 213.697000 251.338000 94.778700 1 1.000000 1 -3.000000
47 2 216.357000 260.887000 95.442500 1 1.000000 1 -3.000000
48 2 219.464000 270.214000 96.226000 1 1.000000 3 -3.000000
49 1 209.435000 277.836000 141.674000 1 1.000000 3 0.000000
50 3 210.289000 243.002000 139.451000 1 1.000000 3 0.000000
51 2 196.514000 264.014000 184.920000 1 1.000000 3 -3.000000
52 2 199.727000 254.982000 182.573000 1 1.000000 1 -3.000000
53 2 203.034000 245.587000 183.246000 1 1.000000 1 -3.000000
54 2 205.294000 235.926000 183.340000 1 1.000000 1 -3.000000
55 2 208.437000 226.548000 182.100000 1 1.000000 1 -3.000000
56 2 215.031000 219.867000 178.982000 1 1.000000 1 -3.000000
57 2 222.067000 215.377000 173.828000 1 1.000000 1 -3.000000
58 2 227.094000 211.282000 166.429000 1 1.000000 1 -3.000000
59 2 231.790000 206.612000 159.002000 1 1.000000 1 -3.000000
60 2 237.646000 201.524000 152.898000 1 1.000000 1 -3.000000
61 2 243.133000 196.462000 146.396000 1 1.000000 1 -3.000000
62 2 251.203000 193.527000 141.392000 1 1.000000 1 -3.000000
63 2 256.792000 190.190000 133.873000 1 1.000000 1 -3.000000
64 2 260.655000 190.229000 124.769000 1 1.000000 1 -3.000000
65 2 263.407000 191.062000 115.285000 1 1.000000 1 -3.000000
66 2 267.008000 189.952000 106.096000 1 1.000000 1 -3.000000
67 2 268.790000 191.977000 96.573800 1 1.000000 1 -3.000000
68 2 272.017000 192.492000 87.268200 1 1.000000 1 -3.000000
69 2 276.604000 193.019000 78.440000 1 1.000000 1 -3.000000
70 2 281.633000 194.420000 69.979600 1 1.000000 1 -3.000000
71 2 287.924000 194.632000 62.429600 1 1.000000 1 -3.000000
72 2 294.741000 192.218000 55.732800 1 1.000000 1 -3.000000
73 2 301.883000 188.695000 49.824600 1 1.000000 1 -3.000000
74 2 309.952000 185.188000 45.155900 1 1.000000 1 -3.000000
75 2 316.605000 179.500000 40.540300 1 1.000000 4 -3.000000
76 1 346.803000 189.544000 75.405100 1 1.000000 4 0.000000
77 3 316.999000 182.742000 92.370300 1 1.000000 4 0.000000
78 2 359.462000 192.163000 120.799000 1 1.000000 4 -3.000000
79 2 352.541000 185.240000 121.765000 1 1.000000 1 -3.000000
80 2 347.977000 176.618000 123.658000 1 1.000000 1 -3.000000
81 2 342.074000 168.855000 125.288000 1 1.000000 1 -3.000000
82 2 335.950000 161.272000 126.240000 1 1.000000 1 -3.000000
83 2 330.017000 153.461000 127.866000 1 1.000000 1 -3.000000
84 2 323.287000 146.831000 130.789000 1 1.000000 1 -3.000000
85 2 317.923000 139.356000 134.345000 1 1.000000 1 -3.000000
86 2 313.380000 132.135000 139.324000 1 1.000000 1 -3.000000
87 2 307.625000 124.735000 142.711000 1 1.000000 1 -3.000000
88 2 303.361000 116.434000 145.944000 1 1.000000 1 -3.000000
89 2 298.060000 110.303000 151.622000 1 1.000000 1 -3.000000
90 2 293.779000 104.613000 158.471000 1 1.000000 1 -3.000000
91 2 288.836000 99.664500 165.476000 1 1.000000 1 -3.000000
92 2 286.514000 95.058800 173.917000 1 1.000000 1 -3.000000
93 2 283.093000 90.731800 182.150000 1 1.000000 1 -3.000000
94 2 280.599000 88.194700 191.363000 1 1.000000 1 -3.000000
95 2 277.889000 85.758400 200.568000 1 1.000000 1 -3.000000
96 2 272.474000 82.259600 208.078000 1 1.000000 1 -3.000000
97 2 266.505000 79.772000 215.613000 1 1.000000 1 -3.000000
98 2 261.383000 81.557500 223.864000 1 1.000000 1 -3.000000
99 2 256.399000 85.261900 231.549000 1 1.000000 1 -3.000000
100 2 250.355000 89.002800 238.476000 1 1.000000 1 -3.000000
101 2 244.549000 93.609200 245.001000 1 1.000000 1 -3.000000
102 2 238.670000 96.959100 252.190000 1 1.000000 5 -3.000000
103 1 213.103000 124.050000 223.194000 1 1.000000 5 0.000000
104 3 230.297000 102.898000 201.225000 1 1.000000 5 0.000000
105 2 196.041000 136.280000 180.938000 1 1.000000 5 -3.000000
106 2 201.396000 128.868000 177.079000 1 1.000000 1 -3.000000
107 2 205.576000 121.688000 171.864000 1 1.000000 1 -3.000000
108 2 209.950000 114.743000 166.336000 1 1.000000 1 -3.000000
109 2 213.735000 106.783000 161.779000 1 1.000000 1 -3.000000
110 2 217.909000 98.757600 157.847000 1 1.000000 1 -3.000000
111 2 220.930000 90.712200 152.864000 1 1.000000 1 -3.000000
112 2 223.396000 81.986300 148.890000 1 1.000000 1 -3.000000
113 2 226.023000 74.826100 142.597000 1 1.000000 1 -3.000000
114 2 228.430000 67.504700 136.337000 1 1.000000 1 -3.000000
115 2 231.001000 60.070400 130.194000 1 1.000000 1 -3.000000
116 2 233.859000 52.210100 124.730000 1 1.000000 1 -3.000000
117 2 235.639000 44.498800 118.800000 1 1.000000 1 -3.000000
118 2 237.476000 36.541800 113.205000 1 1.000000 1 -3.000000
119 2 237.588000 28.226000 107.967000 1 1.000000 1 -3.000000
120 2 238.696000 21.347900 100.951000 1 1.000000 1 -3.000000
121 2 238.412000 15.948500 92.830900 1 1.000000 1 -3.000000
122 2 238.920000 10.407600 84.548600 1 1.000000 1 -3.000000
123 2 237.360000 4.929850 76.452300 1 1.000000 1 -3.000000
124 2 233.683000 1.206550 68.055600 1 1.000000 1 -3.000000
125 2 228.177000 0.047961 59.916100 1 1.000000 1 -3.000000
126 2 226.046000 3.204350 50.754800 1 1.000000 1 -3.000000
127 2 222.260000 4.994860 41.799400 1 1.000000 1 -3.000000
128 2 218.464000 5.997890 32.662600 1 1.000000 1 -3.000000
129 2 213.599000 7.262010 24.174900 1 1.000000 6 -3.000000
130 1 235.752000 -25.714000 -1.269120 1 1.000000 6 0.000000
131 3 259.774000 -16.197000 22.387300 1 1.000000 6 0.000000
132 2 272.089000 -54.325200 -10.762500 1 1.000000 6 -3.000000
133 2 276.529000 -53.296400 -1.924100 1 1.000000 1 -3.000000
134 2 280.501000 -52.948300 7.156670 1 1.000000 1 -3.000000
135 2 284.110000 -53.736400 16.347900 1 1.000000 1 -3.000000
136 2 285.844000 -52.763800 26.016300 1 1.000000 1 -3.000000
137 2 284.083000 -51.169300 35.568200 1 1.000000 1 -3.000000
138 2 279.178000 -51.427200 44.149800 1 1.000000 1 -3.000000
139 2 273.295000 -51.246200 52.068700 1 1.000000 1 -3.000000
140 2 268.104000 -51.991500 60.477000 1 1.000000 1 -3.000000
141 2 262.190000 -52.778500 68.371800 1 1.000000 1 -3.000000
142 2 254.738000 -53.443300 74.839800 1 1.000000 1 -3.000000
143 2 245.929000 -53.000800 79.455100 1 1.000000 1 -3.000000
144 2 237.071000 -51.767700 83.676500 1 1.000000 1 -3.000000
145 2 228.872000 -51.417300 89.211600 1 1.000000 1 -3.000000
146 2 223.367000 -51.477200 97.505500 1 1.000000 1 -3.000000
147 2 217.858000 -50.985300 105.792000 1 1.000000 1 -3.000000
148 2 212.042000 -49.169800 113.627000 1 1.000000 1 -3.000000
149 2 206.465000 -49.231700 121.790000 1 1.000000 1 -3.000000
150 2 202.653000 -47.664400 130.775000 1 1.000000 1 -3.000000
151 2 197.055000 -48.009300 138.950000 1 1.000000 1 -3.000000
152 2 189.771000 -49.106200 145.477000 1 1.000000 1 -3.000000
153 2 183.416000 -53.314500 151.942000 1 1.000000 1 -3.000000
154 2 177.283000 -57.213100 158.711000 1 1.000000 1 -3.000000
155 2 171.588000 -63.272300 164.187000 1 1.000000 1 -3.000000
156 2 163.787000 -67.697200 168.371000 1 1.000000 7 -3.000000
157 1 162.419000 -108.172000 144.245000 1 1.000000 7 0.000000
158 3 188.127000 -90.352700 128.564000 1 1.000000 7 0.000000
159 2 175.811000 -137.053000 109.406000 1 1.000000 7 -3.000000
160 2 184.674000 -133.720000 106.419000 1 1.000000 1 -3.000000
161 2 192.755000 -129.384000 102.624000 1 1.000000 1 -3.000000
162 2 199.714000 -123.095000 99.312200 1 1.000000 1 -3.000000
163 2 206.535000 -116.370000 96.679000 1 1.000000 1 -3.000000
164 2 212.875000 -109.031000 94.637000 1 1.000000 1 -3.000000
165 2 217.584000 -100.468000 93.783700 1 1.000000 1 -3.000000
166 2 225.310000 -94.291300 94.125000 1 1.000000 1 -3.000000
167 2 234.443000 -90.601000 93.930200 1 1.000000 1 -3.000000
168 2 243.878000 -88.630700 91.944100 1 1.000000 1 -3.000000
169 2 253.365000 -85.755600 91.209500 1 1.000000 1 -3.000000
170 2 262.866000 -83.439400 90.112600 1 1.000000 1 -3.000000
171 2 272.590000 -81.777400 89.521700 1 1.000000 1 -3.000000
172 2 282.151000 -81.316900 87.082500 1 1.000000 1 -3.000000
173 2 291.219000 -83.303600 83.638000 1 1.000000 1 -3.000000
174 2 300.642000 -83.879500 80.474200 1 1.000000 1 -3.000000
175 2 310.182000 -82.826400 78.136200 1 1.000000 1 -3.000000
176 2 318.191000 -83.777900 72.487900 1 1.000000 1 -3.000000
177 2 326.356000 -85.374300 67.037000 1 1.000000 1 -3.000000
178 2 335.487000 -87.690300 63.877700 1 1.000000 1 -3.000000
179 2 344.489000 -89.114400 60.031200 1 1.000000 1 -3.000000
180 2 352.459000 -89.891400 54.276800 1 1.000000 1 -3.000000
181 2 359.537000 -90.829400 47.383400 1 1.000000 1 -3.000000
182 2 366.084000 -89.736500 40.173500 1 1.000000 1 -3.000000
183 2 373.930000 -88.337900 34.312400 1 1.000000 8 -3.000000
184 1 349.387000 -72.600300 -2.818560 1 1.000000 8 0.000000
185 3 327.385000 -67.613100 23.845700 1 1.000000 8 0.000000
186 2 310.339000 -56.369100 -23.816800 1 1.000000 8 -3.000000
187 2 306.631000 -52.611600 -15.488500 1 1.000000 1 -3.000000
188 2 304.495000 -47.600500 -7.246520 1 1.000000 1 -3.000000
189 2 301.768000 -41.189300 -0.304523 1 1.000000 1 -3.000000
190 2 302.840000 -34.834700 7.249750 1 1.000000 1 -3.000000
191 2 301.298000 -29.727100 15.603900 1 1.000000 1 -3.000000
192 2 299.764000 -25.899300 24.553100 1 1.000000 1 -3.000000
193 2 297.272000 -26.072700 34.097100 1 1.000000 1 -3.000000
194 2 295.554000 -27.002800 43.822900 1 1.000000 1 -3.000000
195 2 294.186000 -26.360800 53.623100 1 1.000000 1 -3.000000
196 2 295.215000 -22.197400 62.547300 1 1.000000 1 -3.000000
197 2 293.402000 -20.248000 72.072400 1 1.000000 1 -3.000000
198 2 291.854000 -18.238600 81.629300 1 1.000000 1 -3.000000
199 2 293.470000 -15.867000 91.092900 1 1.000000 1 -3.000000
200 2 294.635000 -12.286600 100.296000 1 1.000000 1 -3.000000
201 2 295.580000 -9.534150 109.656000 1 1.000000 1 -3.000000
202 2 297.521000 -7.360440 119.087000 1 1.000000 1 -3.000000
203 2 300.648000 -3.245840 127.586000 1 1.000000 1 -3.000000
204 2 301.725000 1.469140 136.183000 1 1.000000 1 -3.000000
205 2 304.506000 5.990700 144.478000 1 1.000000 1 -3.000000
206 2 307.170000 7.179940 153.973000 1 1.000000 1 -3.000000
207 2 312.256000 7.867880 162.418000 1 1.000000 1 -3.000000
208 2 318.022000 7.526780 170.475000 1 1.000000 1 -3.000000
209 2 324.343000 5.195600 177.863000 1 1.000000 1 -3.000000
210 2 330.056000 4.129790 185.779000 1 1.000000 9 -3.000000
211 1 337.870000 -42.245600 181.768000 1 1.000000 9 0.000000
212 3 328.091000 -32.989100 149.483000 1 1.000000 9 0.000000
213 2 341.142000 -82.641300 157.656000 1 1.000000 9 -3.000000
214 2 340.801000 -78.918000 148.480000 1 1.000000 1 -3.000000
215 2 338.699000 -75.406400 139.380000 1 1.000000 1 -3.000000
216 2 337.523000 -71.821600 130.268000 1 1.000000 1 -3.000000
217 2 336.147000 -67.081200 121.610000 1 1.000000 1 -3.000000
218 2 334.952000 -60.727300 113.982000 1 1.000000 1 -3.000000
219 2 334.444000 -54.589500 106.248000 1 1.000000 1 -3.000000
220 2 331.307000 -49.426000 98.255100 1 1.000000 1 -3.000000
221 2 329.332000 -43.353100 90.789700 1 1.000000 1 -3.000000
222 2 327.903000 -37.323300 83.089000 1 1.000000 1 -3.000000
223 2 326.735000 -30.863700 75.657000 1 1.000000 1 -3.000000
224 2 326.156000 -25.195700 67.565400 1 1.000000 1 -3.000000
225 2 326.133000 -20.728800 58.830400 1 1.000000 1 -3.000000
226 2 324.177000 -16.291400 50.144800 1 1.000000 1 -3.000000
227 2 325.622000 -12.560200 41.050700 1 1.000000 1 -3.000000
228 2 326.469000 -9.114800 31.806400 1 1.000000 1 -3.000000
229 2 327.780000 -4.925980 22.855000 1 1.000000 1 -3.000000
230 2 327.611000 -0.325645 14.081700 1 1.000000 1 -3.000000
231 2 325.802000 4.855570 5.827600 1 1.000000 1 -3.000000
232 2 326.091000 11.199500 -1.816310 1 1.000000 1 -3.000000
233 2 327.680000 15.989500 -10.331200 1 1.000000 1 -3.000000
234 2 325.684000 20.674100 -18.774900 1 1.000000 1 -3.000000
235 2 323.253000 24.765200 -27.515400 1 1.000000 1 -3.000000
236 2 320.832000 28.546700 -36.375300 1 1.000000 1 -3.000000
237 2 318.966000 31.767300 -45.619300 1 1.000000 10 -3.000000
238 1 272.699000 35.688300 -37.340300 1 1.000000 10 0.000000
239 3 285.815000 28.091400 -5.811880 1 1.000000 10 0.000000
240 2 234.260000 32.610700 -10.121100 1 1.000000 10 -3.000000
241 2 238.552000 33.330600 -1.164300 1 1.000000 1 -3.000000
242 2 242.711000 31.454100 7.607870 1 1.000000 1 -3.000000
243 2 246.487000 28.589600 16.314300 1 1.000000 1 -3.000000
244 2 252.260000 27.593500 24.233800 1 1.000000 1 -3.000000
245 2 259.542000 26.756100 30.755600 1 1.000000 1 -3.000000
246 2 267.597000 24.391600 36.058600 1 1.000000 1 -3.000000
247 2 275.068000 20.675900 41.517900 1 1.000000 1 -3.000000
248 2 282.568000 16.307600 46.259800 1 1.000000 1 -3.000000
249 2 291.642000 14.361600 49.738300 1 1.000000 1 -3.000000
250 2 301.313000 14.686800 51.928600 1 1.000000 1 -3.000000
251 2 311.066000 16.313600 52.319700 1 1.000000 1 -3.000000
252 2 320.776000 17.791700 53.482900 1 1.000000 1 -3.000000
253 2 330.097000 20.540700 55.289000 1 1.000000 1 -3.000000
254 2 338.066000 25.085200 58.929700 1 1.000000 1 -3.000000
255 2 346.569000 29.839300 60.694500 1 1.000000 1 -3.000000
256 2 355.202000 34.084300 62.739100 1 1.000000 1 -3.000000
257 2 362.890000 39.741400 65.254200 1 1.000000 1 -3.000000
258 2 371.942000 43.251900 67.140800 1 1.000000 1 -3.000000
259 2 381.180000 46.048400 69.158900 1 1.000000 1 -3.000000
260 2 389.983000 50.094300 71.121100 1 1.000000 1 -3.000000
261 2 397.915000 55.919500 71.618300 1 1.000000 1 -3.000000
262 2 405.811000 61.896600 71.285700 1 1.000000 1 -3.000000
263 2 412.924000 68.750000 71.873700 1 1.000000 1 -3.000000
264 2 420.185000 75.380200 70.924100 1 1.000000 11 -3.000000
265 1 410.402000 96.809700 30.039900 1 1.000000 11 0.000000
266 3 380.545000 80.104100 37.677900 1 1.000000 11 0.000000
267 2 381.384000 110.405000 -4.600820 1 1.000000 11 -3.000000
268 2 373.391000 105.076000 -2.212360 1 1.000000 1 -3.000000
269 2 364.935000 101.103000 0.904266 1 1.000000 1 -3.000000
270 2 355.939000 98.437400 4.060160 1 1.000000 1 -3.000000
271 2 348.620000 95.808800 10.107500 1 1.000000 1 -3.000000
272 2 342.484000 94.445900 17.752900 1 1.000000 1 -3.000000
273 2 335.757000 93.718300 24.928400 1 1.000000 1 -3.000000
274 2 328.318000 94.834300 31.367600 1 1.000000 1 -3.000000
275 2 320.282000 93.765400 37.006100 1 1.000000 1 -3.000000
276 2 311.023000 92.348600 40.317100 1 1.000000 1 -3.000000
277 2 302.851000 87.116300 42.055100 1 1.000000 1 -3.000000
278 2 294.278000 82.209800 42.363300 1 1.000000 1 -3.000000
279 2 286.129000 76.684800 43.275000 1 1.000000 1 -3.000000
280 2 277.244000 72.381600 44.345100 1 1.000000 1 -3.000000
281 2 268.725000 67.409800 45.287800 1 1.000000 1 -3.000000
282 2 261.882000 60.701900 47.772600 1 1.000000 1 -3.000000
283 2 255.082000 53.614700 48.947800 1 1.000000 1 -3.000000
284 2 248.826000 46.113600 48.997200 1 1.000000 1 -3.000000
285 2 244.980000 37.013500 49.194000 1 1.000000 1 -3.000000
286 2 238.716000 29.380000 49.328800 1 1.000000 1 -3.000000
287 2 231.109000 23.133400 49.390500 1 1.000000 1 -3.000000
288 2 222.849000 17.739300 50.569500 1 1.000000 1 -3.000000
289 2 214.396000 13.862800 54.058100 1 1.000000 1 -3.000000
290 2 205.203000 11.149100 56.303500 1 1.000000 1 -3.000000
291 2 195.683000 8.530230 56.964200 1 1.000000 12 -3.000000
292 1 206.328000 -36.690300 64.935200 1 1.000000 12 0.000000
293 3 233.899000 -25.004500 47.029600 1 1.000000 12 0.000000
294 2 233.584000 -74.972900 60.943600 1 1.000000 12 -3.000000
295 2 236.716000 -74.953400 51.518700 1 1.000000 1 -3.000000
296 2 240.593000 -77.976600 43.024000 1 1.000000 1 -3.000000
297 2 245.586000 -80.614700 34.954500 1 1.000000 1 -3.000000
298 2 249.476000 -83.979300 26.478100 1 1.000000 1 -3.000000
299 2 253.741000 -85.798300 17.691100 1 1.000000 1 -3.000000
300 2 258.634000 -89.824200 10.008300 1 1.000000 1 -3.000000
301 2 262.997000 -94.389300 2.307850 1 1.000000 1 -3.000000
302 2 266.626000 -100.810000 -4.293400 1 1.000000 1 -3.000000
303 2 271.088000 -108.352000 -8.831890 1 1.000000 1 -3.000000
304 2 273.903000 -115.199000 -15.389800 1 1.000000 1 -3.000000
305 2 276.249000 -123.383000 -20.521000 1 1.000000 1 -3.000000
306 2 278.173000 -132.339000 -24.206000 1 1.000000 1 -3.000000
307 2 279.803000 -141.512000 -27.611400 1 1.000000 1 -3.000000
308 2 283.733000 -149.342000 -32.295500 1 1.000000 1 -3.000000
309 2 286.420000 -156.192000 -38.853400 1 1.000000 1 -3.000000
310 2 289.694000 -161.451000 -46.561900 1 1.000000 1 -3.000000
311 2 292.783000 -168.464000 -52.920800 1 1.000000 1 -3.000000
312 2 295.571000 -175.147000 -59.715000 1 1.000000 1 -3.000000
313 2 301.284000 -180.754000 -65.615200 1 1.000000 1 -3.000000
314 2 306.968000 -185.326000 -72.242000 1 1.000000 1 -3.000000
315 2 312.272000 -187.936000 -80.170700 1 1.000000 1 -3.000000
316 2 317.623000 -192.139000 -87.259700 1 1.000000 1 -3.000000
317 2 324.432000 -196.130000 -93.292100 1 1.000000 1 -3.000000
318 2 331.487000 -200.093000 -98.908800 1 1.000000 13 -3.000000
319 1 361.830000 -165.101000 -89.874700 1 1.000000 13 0.000000
320 3 345.177000 -169.401000 -59.411200 1 1.000000 13 0.000000
321 2 380.993000 -131.917000 -62.399500 1 1.000000 13 -3.000000
322 2 380.023000 -135.552000 -53.181800 1 1.000000 1 -3.000000
323 2 377.309000 -138.596000 -44.156600 1 1.000000 1 -3.000000
324 2 376.652000 -144.649000 -36.336000 1 1.000000 1 -3.000000
325 2 373.155000 -151.108000 -29.741900 1 1.000000 1 -3.000000
326 2 368.803000 -158.004000 -24.017900 1 1.000000 1 -3.000000
327 2 364.330000 -165.310000 -19.096100 1 1.000000 1 -3.000000
328 2 363.120000 -172.139000 -11.984600 1 1.000000 1 -3.000000
329 2 363.133000 -178.973000 -4.854860 1 1.000000 1 -3.000000
330 2 364.225000 -185.677000 2.382670 1 1.000000 1 -3.000000
331 2 364.487000 -192.978000 9.043740 1 1.000000 1 -3.000000
332 2 366.017000 -199.934000 15.939700 1 1.000000 1 -3.000000
333 2 367.731000 -208.175000 21.258500 1 1.000000 1 -3.000000
334 2 368.069000 -216.983000 25.609900 1 1.000000 1 -3.000000
335 2 367.901000 -225.656000 30.435000 1 1.000000 1 -3.000000
336 2 369.042000 -232.860000 37.184000 1 1.000000 1 -3.000000
337 2 371.233000 -239.220000 44.349400 1 1.000000 1 -3.000000
338 2 373.457000 -245.321000 51.851900 1 1.000000 1 -3.000000
339 2 375.530000 -251.914000 58.944400 1 1.000000 1 -3.000000
340 2 379.125000 -255.370000 67.462600 1 1.000000 1 -3.000000
341 2 381.436000 -257.987000 76.696800 1 1.000000 1 -3.000000
342 2 382.566000 -258.416000 86.513700 1 1.000000 1 -3.000000
343 2 383.594000 -257.708000 96.350500 1 1.000000 1 -3.000000
344 2 385.191000 -254.443000 105.583000 1 1.000000 1 -3.000000
345 2 386.886000 -250.087000 114.310000 1 1.000000 14 -3.000000
346 1 351.216000 -219.288000 116.114000 1 1.000000 14 0.000000
347 3 343.483000 -238.845000 88.121100 1 1.000000 14 0.000000
348 2 311.786000 -199.324000 99.521000 1 1.000000 14 -3.000000
349 2 308.528000 -207.397000 94.848000 1 1.000000 1 -3.000000
350 2 305.064000 -215.914000 91.285800 1 1.000000 1 -3.000000
351 2 301.295000 -224.514000 88.007800 1 1.000000 1 -3.000000
352 2 300.214000 -233.400000 83.875800 1 1.000000 1 -3.000000
353 2 300.528000 -241.782000 78.569000 1 1.000000 1 -3.000000
354 2 303.210000 -249.862000 73.453900 1 1.000000 1 -3.000000
355 2 305.551000 -259.176000 71.098800 1 1.000000 1 -3.000000
356 2 305.866000 -268.828000 68.551200 1 1.000000 1 -3.000000
357 2 307.342000 -278.580000 67.859500 1 1.000000 1 -3.000000
358 2 310.164000 -287.771000 65.293400 1 1.000000 1 -3.000000
359 2 314.255000 -296.543000 62.863100 1 1.000000 1 -3.000000
360 2 319.325000 -304.858000 61.126200 1 1.000000 1 -3.000000
361 2 324.050000 -313.300000 58.907000 1 1.000000 1 -3.000000
362 2 329.999000 -320.755000 56.105600 1 1.000000 1 -3.000000
363 2 337.974000 -325.973000 53.915500 1 1.000000 1 -3.000000
364 2 345.365000 -332.262000 51.936000 1 1.000000 1 -3.000000
365 2 352.576000 -338.804000 50.423300 1 1.000000 1 -3.000000
366 2 359.805000 -345.099000 48.116300 1 1.000000 1 -3.000000
367 2 366.539000 -352.241000 46.923400 1 1.000000 1 -3.000000
368 2 373.002000 -359.050000 43.464500 1 1.000000 1 -3.000000
369 2 377.510000 -367.191000 39.946800 1 1.000000 1 -3.000000
370 2 382.340000 -374.495000 35.345400 1 1.000000 1 -3.000000
371 2 388.510000 -381.498000 32.051600 1 1.000000 1 -3.000000
372 2 396.727000 -385.969000 28.963600 1 1.000000 15 -3.000000
373 1 413.053000 -395.041000 72.307100 1 1.000000 15 0.000000
374 3 379.317000 -387.750000 77.931400 1 1.000000 15 0.000000
375 2 409.431000 -395.870000 119.328000 1 1.000000 15 -3.000000
376 2 399.579000 -396.620000 120.146000 1 1.000000 1 -3.000000
377 2 389.786000 -397.451000 120.647000 1 1.000000 1 -3.000000
378 2 379.934000 -396.772000 121.166000 1 1.000000 1 -3.000000
379 2 369.960000 -396.805000 121.818000 1 1.000000 1 -3.000000
380 2 360.174000 -397.612000 120.689000 1 1.000000 1 -3.000000
381 2 350.289000 -398.289000 119.476000 1 1.000000 1 -3.000000
382 2 340.440000 -398.936000 119.977000 1 1.000000 1 -3.000000
383 2 331.126000 -401.946000 121.217000 1 1.000000 1 -3.000000
384 2 322.456000 -404.857000 124.801000 1 1.000000 1 -3.000000
385 2 314.094000 -408.355000 128.673000 1 1.000000 1 -3.000000
386 2 304.977000 -412.278000 128.702000 1 1.000000 1 -3.000000
387 2 295.932000 -415.861000 130.647000 1 1.000000 1 -3.000000
388 2 287.145000 -418.683000 134.398000 1 1.000000 1 -3.000000
389 2 278.003000 -420.844000 137.642000 1 1.000000 1 -3.000000
390 2 268.904000 -419.839000 141.455000 1 1.000000 1 -3.000000
391 2 259.539000 -419.918000 144.694000 1 1.000000 1 -3.000000
392 2 250.824000 -421.417000 149.159000 1 1.000000 1 -3.000000
393 2 242.371000 -421.899000 154.329000 1 1.000000 1 -3.000000
394 2 234.718000 -423.796000 160.291000 1 1.000000 1 -3.000000
395 2 227.279000 -423.644000 166.741000 1 1.000000 1 -3.000000
396 2 218.196000 -423.196000 170.630000 1 1.000000 1 -3.000000
397 2 208.851000 -422.862000 173.842000 1 1.000000 1 -3.000000
398 2 199.566000 -420.588000 176.538000 1 1.000000 1 -3.000000
399 2 189.898000 -418.805000 177.844000 1 1.000000 16 -3.000000
400 1 186.374000 -376.917000 156.489000 1 1.000000 16 0.000000
401 3 210.092000 -393.926000 137.048000 1 1.000000 16 0.000000
402 2 197.389000 -345.483000 123.019000 1 1.000000 16 -3.000000
403 2 204.455000 -350.675000 118.515000 1 1.000000 1 -3.000000
404 2 210.932000 -355.364000 112.589000 1 1.000000 1 -3.000000
405 2 216.941000 -361.181000 107.247000 1 1.000000 1 -3.000000
406 2 220.355000 -368.987000 102.227000 1 1.000000 1 -3.000000
407 2 222.581000 -377.058000 96.996300 1 1.000000 1 -3.000000
408 2 222.724000 -386.774000 94.812600 1 1.000000 1 -3.000000
409 2 224.128000 -395.858000 91.030100 1 1.000000 1 -3.000000
410 2 225.490000 -403.995000 85.530800 1 1.000000 1 -3.000000
411 2 228.332000 -412.698000 81.789600 1 1.000000 1 -3.000000
412 2 229.015000 -422.056000 78.519500 1 1.000000 1 -3.000000
413 2 224.870000 -428.679000 72.366000 1 1.000000 1 -3.000000
414 2 223.334000 -436.208000 65.988000 1 1.000000 1 -3.000000
415 2 221.591000 -441.857000 57.975800 1 1.000000 1 -3.000000
416 2 218.565000 -445.994000 49.494700 1 1.000000 1 -3.000000
417 2 214.173000 -451.427000 42.430900 1 1.000000 1 -3.000000
418 2 211.878000 -456.953000 34.561000 1 1.000000 1 -3.000000
419 2 207.683000 -460.958000 26.491300 1 1.000000 1 -3.000000
420 2 204.155000 -466.455000 19.128600 1 1.000000 1 -3.000000
421 2 201.762000 -470.905000 10.662800 1 1.000000 1 -3.000000
422 2 200.382000 -476.513000 2.638150 1 1.000000 1 -3.000000
423 2 199.171000 -482.135000 -5.419710 1 1.000000 1 -3.000000
424 2 200.401000 -487.421000 -13.681600 1 1.000000 1 -3.000000
425 2 204.048000 -493.010000 -20.918000 1 1.000000 1 -3.000000
426 2 209.351000 -499.012000 -26.825200 1 1.000000 17 -3.000000
427 1 236.594000 -528.027000 -1.477500 1 1.000000 17 0.000000
428 3 216.271000 -512.875000 22.613200 1 1.000000 17 0.000000
429 2 250.096000 -549.147000 38.481200 1 1.000000 17 -3.000000
430 2 242.073000 -546.649000 43.751400 1 1.000000 1 -3.000000
431 2 234.790000 -544.532000 50.145900 1 1.000000 1 -3.000000
432 2 225.939000 -543.261000 54.196800 1 1.000000 1 -3.000000
433 2 217.085000 -540.604000 57.816600 1 1.000000 1 -3.000000
434 2 208.150000 -536.773000 59.605900 1 1.000000 1 -3.000000
435 2 199.627000 -531.796000 59.152600 1 1.000000 1 -3.000000
436 2 191.486000 -526.186000 59.726100 1 1.000000 1 -3.000000
437 2 182.912000 -521.230000 60.106700 1 1.000000 1 -3.000000
438 2 174.224000 -516.742000 58.227700 1 1.000000 1 -3.000000
439 2 165.253000 -512.748000 56.750500 1 1.000000 1 -3.000000
440 2 156.721000 -508.488000 54.086400 1 1.000000 1 -3.000000
441 2 147.588000 -506.421000 50.963800 1 1.000000 1 -3.000000
442 2 138.141000 -503.736000 49.341100 1 1.000000 1 -3.000000
443 2 128.921000 -500.924000 47.035200 1 1.000000 1 -3.000000
444 2 120.293000 -499.786000 42.319900 1 1.000000 1 -3.000000
445 2 111.827000 -500.509000 37.222400 1 1.000000 1 -3.000000
446 2 102.124000 -500.014000 35.445200 1 1.000000 1 -3.000000
447 2 92.320500 -499.426000 33.977100 1 1.000000 1 -3.000000
448 2 82.623000 -498.534000 32.337800 1 1.000000 1 -3.000000
449 2 73.115300 -496.850000 29.903100 1 1.000000 1 -3.000000
450 2 64.238900 -493.863000 26.677400 1 1.000000 1 -3.000000
451 2 55.924500 -489.659000 23.274500 1 1.000000 1 -3.000000
452 2 48.276700 -484.372000 19.739600 1 1.000000 1 -3.000000
453 2 40.860000 -478.806000 16.203600 1 1.000000 18 -3.000000
454 1 60.828500 -436.181000 19.760900 1 1.000000 18 0.000000
455 3 88.229800 -457.855000 18.246800 1 1.000000 18 0.000000
456 2 97.779700 -406.895000 21.827600 1 1.000000 18 -3.000000
457 2 104.045000 -412.674000 16.819600 1 1.000000 1 -3.000000
458 2 110.669000 -418.845000 12.907200 1 1.000000 1 -3.000000
459 2 116.574000 -425.322000 8.455450 1 1.000000 1 -3.000000
460 2 122.400000 -432.162000 4.510760 1 1.000000 1 -3.000000
461 2 125.946000 -440.825000 1.331090 1 1.000000 1 -3.000000
462 2 128.414000 -449.781000 -2.170270 1 1.000000 1 -3.000000
463 2 130.896000 -459.224000 -4.284180 1 1.000000 1 -3.000000
464 2 135.750000 -467.069000 -7.868900 1 1.000000 1 -3.000000
465 2 137.660000 -475.411000 -12.899900 1 1.000000 1 -3.000000
466 2 139.306000 -483.845000 -17.898900 1 1.000000 1 -3.000000
467 2 141.878000 -491.915000 -23.044700 1 1.000000 1 -3.000000
468 2 142.972000 -499.705000 -28.911300 1 1.000000 1 -3.000000
469 2 143.204000 -508.846000 -32.845900 1 1.000000 1 -3.000000
470 2 141.594000 -517.725000 -36.735300 1 1.000000 1 -3.000000
471 2 142.437000 -527.097000 -39.785400 1 1.000000 1 -3.000000
472 2 144.952000 -535.659000 -44.075900 1 1.000000 1 -3.000000
473 2 147.142000 -544.295000 -48.378300 1 1.000000 1 -3.000000
474 2 149.662000 -552.995000 -52.240400 1 1.000000 1 -3.000000
475 2 151.504000 -561.700000 -56.565800 1 1.000000 1 -3.000000
476 2 150.011000 -568.789000 -63.315900 1 1.000000 1 -3.000000
477 2 146.228000 -574.455000 -70.513800 1 1.000000 1 -3.000000
478 2 142.478000 -581.220000 -76.688400 1 1.000000 1 -3.000000
479 2 137.447000 -588.003000 -81.743400 1 1.000000 1 -3.000000
480 2 132.392000 -593.747000 -88.040400 1 1.000000 19 -3.000000
481 1 88.017900 -584.515000 -74.928000 1 1.000000 19 0.000000
482 3 106.029000 -557.451000 -62.053500 1 1.000000 19 0.000000
483 2 54.778800 -558.857000 -53.371100 1 1.000000 19 -3.000000
484 2 58.578800 -549.765000 -54.651000 1 1.000000 1 -3.000000