LAMMPS data file

4067 atoms
4067 ellipsoids
4516 bonds
8882 angles
0 dihedrals

3 atom types
5 bond types
12 angle types
0 dihedral types

-4631.092947 4670.465898 xlo xhi
-4631.092947 4670.465898 ylo yhi
-4631.092947 4670.465898 zlo zhi

Masses

1 196016.000000
2 1950.000000
3 19500.000000

Atoms

1 2 658.212000 -135.492000 -576.895000 1 1.000000 1 -3.000000
2 2 657.561000 -128.098000 -583.379000 1 1.000000 1 -3.000000
3 2 654.444000 -120.428000 -588.799000 1 1.000000 1 -3.000000
4 2 651.062000 -113.146000 -594.636000 1 1.000000 1 -3.000000
5 2 647.538000 -106.432000 -600.957000 1 1.000000 1 -3.000000
6 2 646.517000 -98.163700 -606.351000 1 1.000000 1 -3.000000
7 2 644.896000 -91.793500 -613.754000 1 1.000000 1 -3.000000
8 2 642.572000 -84.339200 -619.884000 1 1.000000 1 -3.000000
9 2 640.421000 -77.166800 -626.404000 1 1.000000 1 -3.000000
10 2 636.771000 -70.218500 -632.505000 1 1.000000 1 -3.000000
11 2 633.443000 -63.315700 -638.715000 1 1.000000 1 -3.000000
12 2 630.167000 -56.521700 -645.184000 1 1.000000 1 -3.000000
13 2 628.057000 -50.334200 -652.637000 1 1.000000 1 -3.000000
14 2 626.527000 -43.442300 -659.470000 1 1.000000 1 -3.000000
15 2 627.569000 -35.319900 -665.135000 1 1.000000 1 -3.000000
16 2 627.625000 -26.497500 -669.683000 1 1.000000 1 -3.000000
17 2 628.128000 -18.122000 -674.795000 1 1.000000 1 -3.000000
18 2 628.640000 -10.310800 -680.803000 1 1.000000 1 -3.000000
19 2 628.587000 -1.853850 -685.955000 1 1.000000 1 -3.000000
20 2 629.662000 3.209890 -694.295000 1 1.000000 1 -3.000000
21 2 630.990000 5.909800 -703.706000 1 1.000000 2 -3.000000
22 1 594.159000 -11.682300 -727.368000 1 1.000000 2 0.000000
23 3 590.344000 -25.233000 -695.362000 1 1.000000 2 0.000000
24 2 556.120000 -39.369700 -731.765000 1 1.000000 2 -3.000000
25 2 552.630000 -37.396500 -722.735000 1 1.000000 1 -3.000000
26 2 549.976000 -34.262600 -713.728000 1 1.000000 1 -3.000000
27 2 547.302000 -32.221600 -704.447000 1 1.000000 1 -3.000000
28 2 546.798000 -32.133200 -694.595000 1 1.000000 1 -3.000000
29 2 547.736000 -32.951100 -684.746000 1 1.000000 1 -3.000000
30 2 550.379000 -33.151400 -675.212000 1 1.000000 1 -3.000000
31 2 552.753000 -31.448100 -665.746000 1 1.000000 1 -3.000000
32 2 555.335000 -30.600100 -656.323000 1 1.000000 1 -3.000000
33 2 557.666000 -27.812800 -647.077000 1 1.000000 1 -3.000000
34 2 562.142000 -24.137000 -639.062000 1 1.000000 1 -3.000000
35 2 569.040000 -19.365500 -633.972000 1 1.000000 1 -3.000000
36 2 574.638000 -14.269800 -627.652000 1 1.000000 1 -3.000000
37 2 579.060000 -6.484840 -623.368000 1 1.000000 1 -3.000000
38 2 580.297000 2.440530 -619.204000 1 1.000000 1 -3.000000
39 2 582.804000 10.760400 -614.410000 1 1.000000 1 -3.000000
40 2 585.564000 18.555500 -609.126000 1 1.000000 1 -3.000000
41 2 589.116000 27.308800 -606.032000 1 1.000000 1 -3.000000
42 2 591.355000 36.837700 -604.558000 1 1.000000 1 -3.000000
43 2 591.300000 46.746300 -604.776000 1 1.000000 1 -3.000000
44 2 589.709000 56.490500 -604.899000 1 1.000000 1 -3.000000
45 2 585.807000 65.621900 -605.098000 1 1.000000 1 -3.000000
46 2 579.856000 73.566600 -605.568000 1 1.000000 1 -3.000000
47 2 574.715000 81.876600 -603.893000 1 1.000000 1 -3.000000
48 2 570.896000 90.810600 -601.915000 1 1.000000 3 -3.000000
49 1 527.627000 72.845700 -607.608000 1 1.000000 3 0.000000
50 3 546.900000 44.895500 -598.884000 1 1.000000 3 0.000000
51 2 495.648000 38.258600 -604.725000 1 1.000000 3 -3.000000
52 2 499.286000 31.709200 -598.173000 1 1.000000 1 -3.000000
53 2 503.307000 26.051200 -591.158000 1 1.000000 1 -3.000000
54 2 509.598000 21.499100 -584.833000 1 1.000000 1 -3.000000
55 2 516.720000 17.700900 -579.259000 1 1.000000 1 -3.000000
56 2 525.190000 13.378300 -576.609000 1 1.000000 1 -3.000000
57 2 534.205000 9.584300 -574.894000 1 1.000000 1 -3.000000
58 2 542.730000 5.988290 -571.319000 1 1.000000 1 -3.000000
59 2 549.821000 -0.105802 -568.208000 1 1.000000 1 -3.000000
60 2 556.804000 -5.851850 -564.265000 1 1.000000 1 -3.000000
61 2 564.826000 -9.851390 -560.123000 1 1.000000 1 -3.000000
62 2 573.141000 -14.788200 -557.744000 1 1.000000 1 -3.000000
63 2 581.276000 -18.253400 -553.350000 1 1.000000 1 -3.000000
64 2 589.982000 -22.178500 -550.860000 1 1.000000 1 -3.000000
65 2 598.563000 -26.478800 -548.410000 1 1.000000 1 -3.000000
66 2 607.112000 -30.710900 -545.785000 1 1.000000 1 -3.000000
67 2 614.156000 -37.657600 -545.168000 1 1.000000 1 -3.000000
68 2 620.756000 -44.753300 -543.200000 1 1.000000 1 -3.000000
69 2 628.246000 -50.879500 -540.829000 1 1.000000 1 -3.000000
70 2 637.024000 -55.332400 -540.072000 1 1.000000 1 -3.000000
71 2 646.470000 -57.502800 -538.162000 1 1.000000 1 -3.000000
72 2 656.270000 -56.993100 -536.974000 1 1.000000 1 -3.000000
73 2 665.920000 -54.961700 -537.430000 1 1.000000 1 -3.000000
74 2 675.542000 -53.905600 -539.596000 1 1.000000 1 -3.000000
75 2 685.194000 -55.264600 -540.694000 1 1.000000 4 -3.000000
76 1 686.298000 -13.102100 -561.809000 1 1.000000 4 0.000000
77 3 654.004000 -14.497200 -548.443000 1 1.000000 4 0.000000
78 2 666.377000 26.816200 -577.259000 1 1.000000 4 -3.000000
79 2 659.365000 27.049700 -570.268000 1 1.000000 1 -3.000000
80 2 652.341000 27.638800 -563.325000 1 1.000000 1 -3.000000
81 2 645.835000 27.939400 -555.843000 1 1.000000 1 -3.000000
82 2 638.001000 27.810400 -549.640000 1 1.000000 1 -3.000000
83 2 630.757000 25.424400 -543.357000 1 1.000000 1 -3.000000
84 2 624.970000 19.772600 -537.571000 1 1.000000 1 -3.000000
85 2 619.671000 14.281500 -531.191000 1 1.000000 1 -3.000000
86 2 616.385000 8.509320 -523.894000 1 1.000000 1 -3.000000
87 2 613.268000 3.700290 -515.787000 1 1.000000 1 -3.000000
88 2 610.995000 -2.857810 -508.777000 1 1.000000 1 -3.000000
89 2 609.052000 -8.488820 -500.879000 1 1.000000 1 -3.000000
90 2 606.276000 -13.865300 -493.048000 1 1.000000 1 -3.000000
91 2 603.535000 -17.481700 -484.265000 1 1.000000 1 -3.000000
92 2 600.646000 -22.759000 -476.325000 1 1.000000 1 -3.000000
93 2 598.869000 -28.478800 -468.420000 1 1.000000 1 -3.000000
94 2 600.286000 -34.213300 -460.475000 1 1.000000 1 -3.000000
95 2 599.985000 -40.709700 -452.980000 1 1.000000 1 -3.000000
96 2 597.815000 -47.385000 -445.946000 1 1.000000 1 -3.000000
97 2 594.526000 -54.291000 -439.737000 1 1.000000 1 -3.000000
98 2 591.714000 -61.177700 -433.032000 1 1.000000 1 -3.000000
99 2 587.939000 -69.391300 -429.064000 1 1.000000 1 -3.000000
100 2 584.539000 -78.653200 -427.583000 1 1.000000 1 -3.000000
101 2 580.213000 -87.250800 -425.663000 1 1.000000 1 -3.000000
102 2 577.953000 -96.713900 -424.141000 1 1.000000 5 -3.000000
103 1 533.786000 -90.354000 -408.892000 1 1.000000 5 0.000000
104 3 551.763000 -66.096500 -391.364000 1 1.000000 5 0.000000
105 2 500.587000 -68.716000 -383.366000 1 1.000000 5 -3.000000
106 2 506.112000 -60.898400 -380.922000 1 1.000000 1 -3.000000
107 2 511.792000 -52.901100 -379.673000 1 1.000000 1 -3.000000
108 2 515.919000 -43.948000 -378.783000 1 1.000000 1 -3.000000
109 2 521.458000 -35.945800 -380.270000 1 1.000000 1 -3.000000
110 2 528.212000 -28.742200 -381.236000 1 1.000000 1 -3.000000
111 2 536.937000 -24.111900 -381.531000 1 1.000000 1 -3.000000
112 2 546.236000 -21.764000 -379.214000 1 1.000000 1 -3.000000
113 2 555.300000 -20.876400 -375.412000 1 1.000000 1 -3.000000
114 2 564.292000 -23.652100 -372.268000 1 1.000000 1 -3.000000
115 2 573.625000 -26.379300 -370.799000 1 1.000000 1 -3.000000
116 2 583.381000 -27.157900 -369.644000 1 1.000000 1 -3.000000
117 2 593.259000 -27.771300 -369.770000 1 1.000000 1 -3.000000
118 2 602.928000 -29.049300 -371.491000 1 1.000000 1 -3.000000
119 2 612.559000 -27.393700 -372.928000 1 1.000000 1 -3.000000
120 2 622.303000 -27.025400 -374.347000 1 1.000000 1 -3.000000
121 2 631.954000 -26.798700 -376.590000 1 1.000000 1 -3.000000
122 2 641.783000 -27.591600 -375.363000 1 1.000000 1 -3.000000
123 2 651.140000 -30.071000 -373.136000 1 1.000000 1 -3.000000
124 2 660.446000 -33.324200 -373.428000 1 1.000000 1 -3.000000
125 2 669.715000 -36.864800 -373.941000 1 1.000000 1 -3.000000
126 2 679.375000 -37.620300 -375.657000 1 1.000000 1 -3.000000
127 2 689.261000 -37.122100 -376.750000 1 1.000000 1 -3.000000
128 2 699.007000 -35.822300 -376.656000 1 1.000000 1 -3.000000
129 2 708.855000 -35.523700 -377.672000 1 1.000000 6 -3.000000
130 1 707.503000 2.699630 -405.346000 1 1.000000 6 0.000000
131 3 677.114000 4.210090 -388.210000 1 1.000000 6 0.000000
132 2 687.793000 42.409800 -421.513000 1 1.000000 6 -3.000000
133 2 679.834000 43.228400 -415.589000 1 1.000000 1 -3.000000
134 2 671.827000 45.209700 -410.127000 1 1.000000 1 -3.000000
135 2 663.880000 45.003200 -404.268000 1 1.000000 1 -3.000000
136 2 656.624000 43.098700 -397.749000 1 1.000000 1 -3.000000
137 2 650.026000 39.186800 -391.411000 1 1.000000 1 -3.000000
138 2 643.922000 35.644300 -384.326000 1 1.000000 1 -3.000000
139 2 639.850000 32.328200 -375.953000 1 1.000000 1 -3.000000
140 2 636.320000 28.105400 -367.703000 1 1.000000 1 -3.000000
141 2 631.770000 23.529600 -360.173000 1 1.000000 1 -3.000000
142 2 626.134000 17.720300 -354.485000 1 1.000000 1 -3.000000
143 2 620.997000 13.098800 -347.351000 1 1.000000 1 -3.000000
144 2 617.005000 7.815590 -340.045000 1 1.000000 1 -3.000000
145 2 613.245000 2.478080 -332.653000 1 1.000000 1 -3.000000
146 2 607.707000 -1.949140 -325.753000 1 1.000000 1 -3.000000
147 2 601.665000 -7.240980 -319.938000 1 1.000000 1 -3.000000
148 2 595.914000 -12.656200 -313.966000 1 1.000000 1 -3.000000
149 2 591.801000 -19.914700 -308.720000 1 1.000000 1 -3.000000
150 2 587.044000 -27.386300 -304.310000 1 1.000000 1 -3.000000
151 2 583.279000 -34.234900 -298.220000 1 1.000000 1 -3.000000
152 2 578.522000 -38.721100 -290.797000 1 1.000000 1 -3.000000
153 2 574.147000 -41.149300 -282.276000 1 1.000000 1 -3.000000
154 2 569.669000 -42.694000 -273.553000 1 1.000000 1 -3.000000
155 2 565.402000 -43.350100 -264.648000 1 1.000000 1 -3.000000
156 2 560.043000 -45.065100 -256.482000 1 1.000000 7 -3.000000
157 1 569.315000 -3.770680 -235.647000 1 1.000000 7 0.000000
158 3 578.969000 1.730130 -268.892000 1 1.000000 7 0.000000
159 2 583.833000 41.112500 -235.300000 1 1.000000 7 -3.000000
160 2 583.089000 42.453500 -245.034000 1 1.000000 1 -3.000000
161 2 582.930000 43.631600 -254.878000 1 1.000000 1 -3.000000
162 2 583.579000 45.713000 -264.442000 1 1.000000 1 -3.000000
163 2 585.819000 45.755600 -274.040000 1 1.000000 1 -3.000000
164 2 585.747000 43.488100 -283.702000 1 1.000000 1 -3.000000
165 2 584.574000 41.212400 -293.236000 1 1.000000 1 -3.000000
166 2 582.918000 38.568500 -302.641000 1 1.000000 1 -3.000000
167 2 580.566000 34.360600 -311.170000 1 1.000000 1 -3.000000
168 2 578.304000 29.984900 -319.786000 1 1.000000 1 -3.000000
169 2 575.026000 26.737900 -328.518000 1 1.000000 1 -3.000000
170 2 573.443000 24.305100 -337.941000 1 1.000000 1 -3.000000
171 2 575.719000 21.672200 -347.204000 1 1.000000 1 -3.000000
172 2 578.836000 19.662400 -356.341000 1 1.000000 1 -3.000000
173 2 579.393000 19.282300 -366.177000 1 1.000000 1 -3.000000
174 2 579.788000 19.438500 -376.032000 1 1.000000 1 -3.000000
175 2 577.387000 18.993500 -385.693000 1 1.000000 1 -3.000000
176 2 575.850000 19.631600 -395.494000 1 1.000000 1 -3.000000
177 2 576.050000 21.796600 -405.090000 1 1.000000 1 -3.000000
178 2 576.494000 21.649300 -415.015000 1 1.000000 1 -3.000000
179 2 577.796000 20.921400 -424.779000 1 1.000000 1 -3.000000
180 2 579.555000 18.070400 -434.031000 1 1.000000 1 -3.000000
181 2 580.631000 13.081100 -442.562000 1 1.000000 1 -3.000000
182 2 583.579000 8.011890 -450.606000 1 1.000000 1 -3.000000
183 2 586.837000 3.733370 -458.923000 1 1.000000 8 -3.000000
184 1 627.586000 -13.473600 -442.524000 1 1.000000 8 0.000000
185 3 608.592000 -8.772310 -413.467000 1 1.000000 8 0.000000
186 2 657.277000 -25.935700 -408.078000 1 1.000000 8 -3.000000
187 2 649.467000 -30.786400 -404.286000 1 1.000000 1 -3.000000
188 2 642.399000 -36.004300 -399.705000 1 1.000000 1 -3.000000
189 2 634.228000 -40.010900 -396.004000 1 1.000000 1 -3.000000
190 2 625.957000 -45.391600 -395.061000 1 1.000000 1 -3.000000
191 2 617.255000 -49.944500 -393.641000 1 1.000000 1 -3.000000
192 2 608.680000 -54.435000 -391.458000 1 1.000000 1 -3.000000
193 2 602.729000 -61.845600 -388.587000 1 1.000000 1 -3.000000
194 2 598.031000 -70.154300 -385.940000 1 1.000000 1 -3.000000
195 2 594.405000 -79.375300 -385.913000 1 1.000000 1 -3.000000
196 2 589.491000 -87.119900 -389.658000 1 1.000000 1 -3.000000
197 2 585.696000 -95.202600 -394.052000 1 1.000000 1 -3.000000
198 2 579.746000 -102.072000 -397.962000 1 1.000000 1 -3.000000
199 2 573.465000 -109.176000 -400.916000 1 1.000000 1 -3.000000
200 2 566.099000 -114.199000 -405.189000 1 1.000000 1 -3.000000
201 2 558.417000 -118.303000 -409.726000 1 1.000000 1 -3.000000
202 2 550.792000 -121.631000 -414.943000 1 1.000000 1 -3.000000
203 2 542.055000 -124.985000 -418.129000 1 1.000000 1 -3.000000
204 2 534.563000 -128.663000 -423.518000 1 1.000000 1 -3.000000
205 2 526.913000 -131.754000 -429.055000 1 1.000000 1 -3.000000
206 2 520.452000 -136.285000 -435.189000 1 1.000000 1 -3.000000
207 2 514.948000 -139.525000 -442.816000 1 1.000000 1 -3.000000
208 2 510.312000 -142.724000 -450.929000 1 1.000000 1 -3.000000
209 2 506.403000 -145.948000 -459.444000 1 1.000000 1 -3.000000
210 2 503.046000 -148.521000 -468.402000 1 1.000000 9 -3.000000
211 1 529.924000 -120.392000 -495.056000 1 1.000000 9 0.000000
212 3 549.535000 -125.650000 -466.547000 1 1.000000 9 0.000000
213 2 569.500000 -96.612700 -504.783000 1 1.000000 9 -3.000000
214 2 574.703000 -99.878200 -496.976000 1 1.000000 1 -3.000000
215 2 581.149000 -103.912000 -490.656000 1 1.000000 1 -3.000000
216 2 586.272000 -108.606000 -483.563000 1 1.000000 1 -3.000000
217 2 590.644000 -113.845000 -476.386000 1 1.000000 1 -3.000000
218 2 593.893000 -118.995000 -468.568000 1 1.000000 1 -3.000000
219 2 594.664000 -125.819000 -461.283000 1 1.000000 1 -3.000000
220 2 594.859000 -133.397000 -454.987000 1 1.000000 1 -3.000000
221 2 595.911000 -141.371000 -449.312000 1 1.000000 1 -3.000000
222 2 597.265000 -148.732000 -442.836000 1 1.000000 1 -3.000000
223 2 596.466000 -157.514000 -438.210000 1 1.000000 1 -3.000000
224 2 597.747000 -166.009000 -433.309000 1 1.000000 1 -3.000000
225 2 600.618000 -175.042000 -430.387000 1 1.000000 1 -3.000000
226 2 602.184000 -184.289000 -427.130000 1 1.000000 1 -3.000000
227 2 606.093000 -193.258000 -425.706000 1 1.000000 1 -3.000000
228 2 611.835000 -201.295000 -425.248000 1 1.000000 1 -3.000000
229 2 617.939000 -208.725000 -427.333000 1 1.000000 1 -3.000000
230 2 626.297000 -213.200000 -430.228000 1 1.000000 1 -3.000000
231 2 633.248000 -217.708000 -435.797000 1 1.000000 1 -3.000000
232 2 641.262000 -220.432000 -440.968000 1 1.000000 1 -3.000000
233 2 649.030000 -222.902000 -446.617000 1 1.000000 1 -3.000000
234 2 656.697000 -225.176000 -452.402000 1 1.000000 1 -3.000000
235 2 664.672000 -227.119000 -458.004000 1 1.000000 1 -3.000000
236 2 673.249000 -225.750000 -462.596000 1 1.000000 1 -3.000000
237 2 682.042000 -224.682000 -467.146000 1 1.000000 10 -3.000000
238 1 687.140000 -271.586000 -469.116000 1 1.000000 10 0.000000
239 3 658.746000 -267.528000 -449.061000 1 1.000000 10 0.000000
240 2 674.415000 -315.931000 -459.350000 1 1.000000 10 -3.000000
241 2 666.108000 -313.799000 -454.417000 1 1.000000 1 -3.000000
242 2 657.868000 -311.622000 -449.337000 1 1.000000 1 -3.000000
243 2 649.336000 -311.043000 -444.217000 1 1.000000 1 -3.000000
244 2 641.015000 -309.091000 -439.193000 1 1.000000 1 -3.000000
245 2 633.366000 -307.744000 -433.179000 1 1.000000 1 -3.000000
246 2 625.417000 -305.960000 -427.462000 1 1.000000 1 -3.000000
247 2 616.545000 -305.473000 -423.197000 1 1.000000 1 -3.000000
248 2 607.575000 -304.954000 -418.905000 1 1.000000 1 -3.000000
249 2 600.047000 -301.129000 -413.553000 1 1.000000 1 -3.000000
250 2 594.630000 -295.920000 -407.126000 1 1.000000 1 -3.000000
251 2 590.767000 -291.132000 -399.350000 1 1.000000 1 -3.000000
252 2 589.586000 -285.107000 -391.593000 1 1.000000 1 -3.000000
253 2 589.095000 -279.038000 -383.751000 1 1.000000 1 -3.000000
254 2 591.518000 -273.666000 -375.814000 1 1.000000 1 -3.000000
255 2 596.883000 -268.473000 -369.330000 1 1.000000 1 -3.000000
256 2 603.190000 -263.157000 -363.959000 1 1.000000 1 -3.000000
257 2 610.737000 -258.849000 -359.302000 1 1.000000 1 -3.000000
258 2 619.788000 -255.467000 -357.136000 1 1.000000 1 -3.000000
259 2 629.416000 -253.990000 -355.298000 1 1.000000 1 -3.000000
260 2 639.112000 -253.283000 -357.267000 1 1.000000 1 -3.000000
261 2 648.857000 -253.643000 -359.199000 1 1.000000 1 -3.000000
262 2 658.434000 -254.097000 -361.737000 1 1.000000 1 -3.000000
263 2 667.060000 -255.163000 -366.541000 1 1.000000 1 -3.000000
264 2 674.603000 -256.422000 -372.879000 1 1.000000 11 -3.000000
265 1 665.691000 -297.609000 -394.147000 1 1.000000 11 0.000000
266 3 633.699000 -284.555000 -388.361000 1 1.000000 11 0.000000
267 2 637.090000 -330.256000 -412.668000 1 1.000000 11 -3.000000
268 2 628.711000 -328.203000 -407.625000 1 1.000000 1 -3.000000
269 2 619.924000 -327.824000 -402.940000 1 1.000000 1 -3.000000
270 2 610.369000 -328.467000 -400.621000 1 1.000000 1 -3.000000
271 2 600.854000 -329.631000 -397.774000 1 1.000000 1 -3.000000
272 2 591.607000 -331.099000 -394.320000 1 1.000000 1 -3.000000
273 2 583.212000 -332.901000 -389.379000 1 1.000000 1 -3.000000
274 2 574.774000 -333.205000 -384.161000 1 1.000000 1 -3.000000
275 2 567.653000 -334.782000 -377.329000 1 1.000000 1 -3.000000
276 2 561.648000 -335.728000 -369.524000 1 1.000000 1 -3.000000
277 2 555.247000 -336.483000 -361.970000 1 1.000000 1 -3.000000
278 2 547.346000 -337.568000 -356.118000 1 1.000000 1 -3.000000
279 2 539.336000 -338.527000 -350.387000 1 1.000000 1 -3.000000
280 2 531.321000 -339.477000 -344.699000 1 1.000000 1 -3.000000
281 2 524.323000 -340.599000 -337.830000 1 1.000000 1 -3.000000
282 2 516.728000 -339.699000 -331.702000 1 1.000000 1 -3.000000
283 2 509.216000 -340.157000 -325.345000 1 1.000000 1 -3.000000
284 2 502.537000 -339.555000 -318.095000 1 1.000000 1 -3.000000
285 2 495.232000 -338.922000 -311.360000 1 1.000000 1 -3.000000
286 2 489.459000 -335.640000 -304.067000 1 1.000000 1 -3.000000
287 2 482.893000 -331.756000 -297.727000 1 1.000000 1 -3.000000
288 2 474.904000 -329.769000 -292.131000 1 1.000000 1 -3.000000
289 2 466.111000 -326.708000 -288.815000 1 1.000000 1 -3.000000
290 2 457.192000 -323.908000 -285.530000 1 1.000000 1 -3.000000
291 2 449.212000 -319.100000 -282.312000 1 1.000000 12 -3.000000
292 1 425.859000 -319.697000 -323.323000 1 1.000000 12 0.000000
293 3 452.631000 -341.627000 -329.058000 1 1.000000 12 0.000000
294 2 418.815000 -334.013000 -367.674000 1 1.000000 12 -3.000000
295 2 420.823000 -343.211000 -364.521000 1 1.000000 1 -3.000000
296 2 422.884000 -352.488000 -361.797000 1 1.000000 1 -3.000000
297 2 425.153000 -361.542000 -358.440000 1 1.000000 1 -3.000000
298 2 428.811000 -370.373000 -355.896000 1 1.000000 1 -3.000000
299 2 432.201000 -378.513000 -351.450000 1 1.000000 1 -3.000000
300 2 435.051000 -387.329000 -347.860000 1 1.000000 1 -3.000000
301 2 437.013000 -397.004000 -347.581000 1 1.000000 1 -3.000000
302 2 438.712000 -406.551000 -345.939000 1 1.000000 1 -3.000000
303 2 439.986000 -416.183000 -343.991000 1 1.000000 1 -3.000000
304 2 440.539000 -425.666000 -341.223000 1 1.000000 1 -3.000000
305 2 439.777000 -435.405000 -339.541000 1 1.000000 1 -3.000000
306 2 437.621000 -444.681000 -336.886000 1 1.000000 1 -3.000000
307 2 434.824000 -454.100000 -336.044000 1 1.000000 1 -3.000000
308 2 433.060000 -463.889000 -336.818000 1 1.000000 1 -3.000000
309 2 431.850000 -473.610000 -337.962000 1 1.000000 1 -3.000000
310 2 432.200000 -483.359000 -339.672000 1 1.000000 1 -3.000000
311 2 432.277000 -493.309000 -339.173000 1 1.000000 1 -3.000000
312 2 433.679000 -502.742000 -336.419000 1 1.000000 1 -3.000000
313 2 434.982000 -512.162000 -333.518000 1 1.000000 1 -3.000000
314 2 436.824000 -521.191000 -330.185000 1 1.000000 1 -3.000000
315 2 438.575000 -530.963000 -329.461000 1 1.000000 1 -3.000000
316 2 439.011000 -540.714000 -331.234000 1 1.000000 1 -3.000000
317 2 438.789000 -550.020000 -334.740000 1 1.000000 1 -3.000000
318 2 439.748000 -559.405000 -338.002000 1 1.000000 13 -3.000000
319 1 395.014000 -563.976000 -352.291000 1 1.000000 13 0.000000
320 3 400.002000 -529.296000 -352.665000 1 1.000000 13 0.000000
321 2 352.702000 -547.147000 -364.577000 1 1.000000 13 -3.000000
322 2 355.896000 -538.056000 -366.957000 1 1.000000 1 -3.000000
323 2 358.284000 -528.658000 -368.606000 1 1.000000 1 -3.000000
324 2 360.989000 -519.164000 -369.444000 1 1.000000 1 -3.000000
325 2 364.854000 -510.314000 -371.485000 1 1.000000 1 -3.000000
326 2 369.957000 -501.796000 -371.911000 1 1.000000 1 -3.000000
327 2 376.292000 -494.239000 -373.140000 1 1.000000 1 -3.000000
328 2 382.344000 -486.674000 -374.901000 1 1.000000 1 -3.000000
329 2 389.081000 -479.771000 -377.063000 1 1.000000 1 -3.000000
330 2 396.031000 -473.067000 -378.909000 1 1.000000 1 -3.000000
331 2 402.023000 -466.395000 -383.108000 1 1.000000 1 -3.000000
332 2 407.722000 -459.014000 -386.591000 1 1.000000 1 -3.000000
333 2 414.034000 -451.662000 -388.933000 1 1.000000 1 -3.000000
334 2 419.159000 -444.775000 -393.867000 1 1.000000 1 -3.000000
335 2 424.931000 -437.840000 -397.892000 1 1.000000 1 -3.000000
336 2 426.277000 -428.674000 -401.429000 1 1.000000 1 -3.000000
337 2 428.958000 -419.230000 -403.141000 1 1.000000 1 -3.000000
338 2 431.392000 -410.148000 -406.228000 1 1.000000 1 -3.000000
339 2 434.311000 -401.415000 -409.792000 1 1.000000 1 -3.000000
340 2 436.755000 -393.256000 -414.820000 1 1.000000 1 -3.000000
341 2 437.778000 -387.031000 -422.384000 1 1.000000 1 -3.000000
342 2 437.544000 -380.664000 -430.031000 1 1.000000 1 -3.000000
343 2 437.242000 -374.866000 -438.027000 1 1.000000 1 -3.000000
344 2 434.784000 -368.417000 -445.112000 1 1.000000 1 -3.000000
345 2 429.499000 -362.538000 -451.067000 1 1.000000 14 -3.000000
346 1 403.533000 -393.355000 -475.530000 1 1.000000 14 0.000000
347 3 405.275000 -407.814000 -443.739000 1 1.000000 14 0.000000
348 2 378.595000 -433.046000 -480.583000 1 1.000000 14 -3.000000
349 2 377.050000 -434.560000 -470.873000 1 1.000000 1 -3.000000
350 2 376.837000 -436.481000 -461.218000 1 1.000000 1 -3.000000
351 2 375.686000 -437.272000 -451.367000 1 1.000000 1 -3.000000
352 2 374.294000 -436.675000 -441.581000 1 1.000000 1 -3.000000
353 2 373.185000 -434.611000 -432.021000 1 1.000000 1 -3.000000
354 2 373.272000 -433.334000 -422.212000 1 1.000000 1 -3.000000
355 2 375.682000 -432.514000 -412.656000 1 1.000000 1 -3.000000
356 2 378.943000 -432.656000 -403.255000 1 1.000000 1 -3.000000
357 2 382.690000 -433.175000 -394.111000 1 1.000000 1 -3.000000
358 2 385.606000 -433.477000 -384.619000 1 1.000000 1 -3.000000
359 2 390.408000 -433.862000 -376.063000 1 1.000000 1 -3.000000
360 2 395.209000 -434.771000 -367.557000 1 1.000000 1 -3.000000
361 2 399.889000 -437.323000 -359.299000 1 1.000000 1 -3.000000
362 2 404.232000 -444.019000 -353.371000 1 1.000000 1 -3.000000
363 2 406.552000 -451.606000 -347.303000 1 1.000000 1 -3.000000
364 2 409.123000 -460.062000 -342.822000 1 1.000000 1 -3.000000
365 2 412.506000 -468.461000 -338.806000 1 1.000000 1 -3.000000
366 2 416.877000 -476.500000 -334.977000 1 1.000000 1 -3.000000
367 2 420.514000 -485.120000 -331.838000 1 1.000000 1 -3.000000
368 2 421.898000 -494.379000 -328.706000 1 1.000000 1 -3.000000
369 2 423.678000 -503.954000 -327.012000 1 1.000000 1 -3.000000
370 2 426.042000 -513.154000 -324.251000 1 1.000000 1 -3.000000
371 2 429.238000 -522.261000 -322.454000 1 1.000000 1 -3.000000
372 2 431.718000 -531.448000 -319.772000 1 1.000000 15 -3.000000
373 1 455.665000 -518.400000 -281.306000 1 1.000000 15 0.000000
374 3 448.493000 -487.920000 -296.985000 1 1.000000 15 0.000000
375 2 476.219000 -486.604000 -253.140000 1 1.000000 15 -3.000000
376 2 471.979000 -477.871000 -255.411000 1 1.000000 1 -3.000000
377 2 468.021000 -469.307000 -258.183000 1 1.000000 1 -3.000000
378 2 462.426000 -461.964000 -261.939000 1 1.000000 1 -3.000000
379 2 458.771000 -454.475000 -267.322000 1 1.000000 1 -3.000000
380 2 455.818000 -449.054000 -275.004000 1 1.000000 1 -3.000000
381 2 454.059000 -443.803000 -283.197000 1 1.000000 1 -3.000000
382 2 456.950000 -437.967000 -290.654000 1 1.000000 1 -3.000000
383 2 457.009000 -432.588000 -298.866000 1 1.000000 1 -3.000000
384 2 458.390000 -425.803000 -305.969000 1 1.000000 1 -3.000000
385 2 459.496000 -417.884000 -311.880000 1 1.000000 1 -3.000000
386 2 461.183000 -409.508000 -316.785000 1 1.000000 1 -3.000000
387 2 460.750000 -401.766000 -322.930000 1 1.000000 1 -3.000000
388 2 460.396000 -394.266000 -329.339000 1 1.000000 1 -3.000000
389 2 459.235000 -386.338000 -335.093000 1 1.000000 1 -3.000000
390 2 458.758000 -380.948000 -343.408000 1 1.000000 1 -3.000000
391 2 456.334000 -378.625000 -352.768000 1 1.000000 1 -3.000000
392 2 455.933000 -375.386000 -362.134000 1 1.000000 1 -3.000000
393 2 457.369000 -370.463000 -370.567000 1 1.000000 1 -3.000000
394 2 458.551000 -367.298000 -379.905000 1 1.000000 1 -3.000000
395 2 459.785000 -363.898000 -389.073000 1 1.000000 1 -3.000000
396 2 463.107000 -359.190000 -397.165000 1 1.000000 1 -3.000000
397 2 467.688000 -355.262000 -404.974000 1 1.000000 1 -3.000000
398 2 472.137000 -351.105000 -412.755000 1 1.000000 1 -3.000000
399 2 476.148000 -344.994000 -419.389000 1 1.000000 16 -3.000000
400 1 504.487000 -317.939000 -393.031000 1 1.000000 16 0.000000
401 3 491.676000 -341.148000 -370.016000 1 1.000000 16 0.000000
402 2 524.507000 -304.870000 -352.335000 1 1.000000 16 -3.000000
403 2 516.891000 -308.464000 -347.006000 1 1.000000 1 -3.000000
404 2 511.547000 -313.125000 -340.178000 1 1.000000 1 -3.000000
405 2 505.925000 -315.180000 -332.212000 1 1.000000 1 -3.000000
406 2 498.486000 -317.117000 -326.023000 1 1.000000 1 -3.000000
407 2 491.274000 -318.855000 -319.436000 1 1.000000 1 -3.000000
408 2 486.089000 -317.696000 -311.097000 1 1.000000 1 -3.000000
409 2 479.483000 -316.656000 -303.839000 1 1.000000 1 -3.000000
410 2 473.869000 -313.112000 -296.479000 1 1.000000 1 -3.000000
411 2 469.753000 -306.626000 -290.249000 1 1.000000 1 -3.000000
412 2 465.578000 -299.094000 -285.363000 1 1.000000 1 -3.000000
413 2 460.216000 -293.058000 -279.866000 1 1.000000 1 -3.000000
414 2 452.990000 -289.041000 -274.316000 1 1.000000 1 -3.000000
415 2 446.130000 -282.982000 -270.851000 1 1.000000 1 -3.000000
416 2 438.593000 -277.871000 -266.791000 1 1.000000 1 -3.000000
417 2 430.103000 -272.907000 -266.102000 1 1.000000 1 -3.000000
418 2 422.312000 -266.764000 -266.095000 1 1.000000 1 -3.000000
419 2 416.008000 -259.279000 -267.691000 1 1.000000 1 -3.000000
420 2 409.996000 -251.361000 -267.628000 1 1.000000 1 -3.000000
421 2 404.376000 -243.244000 -268.497000 1 1.000000 1 -3.000000
422 2 398.167000 -236.239000 -271.490000 1 1.000000 1 -3.000000
423 2 389.281000 -232.104000 -272.950000 1 1.000000 1 -3.000000
424 2 380.032000 -229.131000 -275.008000 1 1.000000 1 -3.000000
425 2 370.433000 -227.168000 -276.460000 1 1.000000 1 -3.000000
426 2 360.811000 -225.306000 -275.612000 1 1.000000 17 -3.000000
427 1 350.113000 -255.891000 -309.895000 1 1.000000 17 0.000000
428 3 377.310000 -271.082000 -293.806000 1 1.000000 17 0.000000
429 2 357.551000 -294.848000 -335.513000 1 1.000000 17 -3.000000
430 2 363.719000 -298.377000 -328.665000 1 1.000000 1 -3.000000
431 2 368.088000 -304.472000 -322.161000 1 1.000000 1 -3.000000
432 2 372.538000 -308.853000 -314.450000 1 1.000000 1 -3.000000
433 2 377.507000 -312.429000 -306.603000 1 1.000000 1 -3.000000
434 2 383.628000 -313.819000 -298.989000 1 1.000000 1 -3.000000
435 2 388.279000 -312.712000 -290.344000 1 1.000000 1 -3.000000
436 2 390.607000 -310.587000 -280.936000 1 1.000000 1 -3.000000
437 2 394.209000 -307.359000 -272.273000 1 1.000000 1 -3.000000
438 2 398.085000 -303.027000 -264.234000 1 1.000000 1 -3.000000
439 2 402.277000 -299.120000 -256.121000 1 1.000000 1 -3.000000
440 2 402.496000 -294.886000 -247.212000 1 1.000000 1 -3.000000
441 2 404.879000 -289.470000 -239.290000 1 1.000000 1 -3.000000
442 2 407.870000 -282.862000 -232.439000 1 1.000000 1 -3.000000
443 2 412.777000 -278.669000 -224.944000 1 1.000000 1 -3.000000
444 2 416.864000 -275.841000 -216.353000 1 1.000000 1 -3.000000
445 2 420.374000 -271.772000 -208.100000 1 1.000000 1 -3.000000
446 2 422.025000 -269.467000 -198.585000 1 1.000000 1 -3.000000
447 2 424.843000 -267.778000 -189.213000 1 1.000000 1 -3.000000
448 2 426.527000 -266.376000 -179.591000 1 1.000000 1 -3.000000
449 2 428.218000 -262.736000 -170.498000 1 1.000000 1 -3.000000
450 2 426.113000 -257.830000 -162.136000 1 1.000000 1 -3.000000
451 2 422.717000 -252.667000 -154.391000 1 1.000000 1 -3.000000
452 2 417.551000 -245.305000 -150.153000 1 1.000000 1 -3.000000
453 2 413.854000 -237.767000 -144.831000 1 1.000000 18 -3.000000
454 1 368.072000 -240.148000 -156.153000 1 1.000000 18 0.000000
455 3 382.526000 -265.143000 -175.910000 1 1.000000 18 0.000000
456 2 330.814000 -259.873000 -177.358000 1 1.000000 18 -3.000000
457 2 334.781000 -267.750000 -181.802000 1 1.000000 1 -3.000000
458 2 337.973000 -275.280000 -187.262000 1 1.000000 1 -3.000000
459 2 342.113000 -282.930000 -191.998000 1 1.000000 1 -3.000000
460 2 348.716000 -290.008000 -193.945000 1 1.000000 1 -3.000000
461 2 355.515000 -297.274000 -193.329000 1 1.000000 1 -3.000000
462 2 363.207000 -303.543000 -192.357000 1 1.000000 1 -3.000000
463 2 370.806000 -309.544000 -190.287000 1 1.000000 1 -3.000000
464 2 378.342000 -314.933000 -186.960000 1 1.000000 1 -3.000000
465 2 386.501000 -320.203000 -184.782000 1 1.000000 1 -3.000000
466 2 395.896000 -321.995000 -182.147000 1 1.000000 1 -3.000000
467 2 405.733000 -322.605000 -181.374000 1 1.000000 1 -3.000000
468 2 415.481000 -321.339000 -180.830000 1 1.000000 1 -3.000000
469 2 424.829000 -318.310000 -180.188000 1 1.000000 1 -3.000000
470 2 434.259000 -318.557000 -177.187000 1 1.000000 1 -3.000000