LAMMPS data file

4067 atoms
4067 ellipsoids
4516 bonds
8882 angles
0 dihedrals

3 atom types
5 bond types
12 angle types
0 dihedral types

-4631.092947 4670.465898 xlo xhi
-4631.092947 4670.465898 ylo yhi
-4631.092947 4670.465898 zlo zhi

Masses

1 196016.000000
2 1950.000000
3 19500.000000

Atoms

1 2 221.177000 -1220.450000 125.785000 1 1.000000 1 -3.000000
2 2 214.657000 -1215.930000 119.911000 1 1.000000 1 -3.000000
3 2 205.688000 -1212.560000 117.424000 1 1.000000 1 -3.000000
4 2 196.749000 -1209.880000 114.381000 1 1.000000 1 -3.000000
5 2 187.458000 -1209.090000 110.998000 1 1.000000 1 -3.000000
6 2 178.008000 -1206.310000 109.877000 1 1.000000 1 -3.000000
7 2 169.046000 -1202.440000 108.458000 1 1.000000 1 -3.000000
8 2 160.181000 -1198.870000 105.839000 1 1.000000 1 -3.000000
9 2 151.168000 -1196.290000 103.020000 1 1.000000 1 -3.000000
10 2 142.187000 -1194.250000 99.278500 1 1.000000 1 -3.000000
11 2 134.675000 -1191.590000 93.435800 1 1.000000 1 -3.000000
12 2 126.269000 -1191.030000 88.255100 1 1.000000 1 -3.000000
13 2 117.925000 -1188.990000 83.356600 1 1.000000 1 -3.000000
14 2 109.988000 -1185.330000 78.645700 1 1.000000 1 -3.000000
15 2 103.223000 -1179.600000 74.203400 1 1.000000 1 -3.000000
16 2 98.118200 -1174.040000 67.874200 1 1.000000 1 -3.000000
17 2 95.449300 -1168.320000 60.180700 1 1.000000 1 -3.000000
18 2 92.602300 -1164.510000 51.394600 1 1.000000 1 -3.000000
19 2 89.277200 -1162.120000 42.349300 1 1.000000 1 -3.000000
20 2 87.041200 -1160.100000 32.797300 1 1.000000 1 -3.000000
21 2 86.011400 -1159.060000 22.980200 1 1.000000 2 -3.000000
22 1 81.719200 -1203.390000 7.432410 1 1.000000 2 0.000000
23 3 86.703500 -1207.400000 41.840200 1 1.000000 2 0.000000
24 2 79.713300 -1250.160000 13.220700 1 1.000000 2 -3.000000
25 2 79.519100 -1249.840000 23.159100 1 1.000000 1 -3.000000
26 2 78.053100 -1250.660000 32.888800 1 1.000000 1 -3.000000
27 2 77.372200 -1252.340000 42.581600 1 1.000000 1 -3.000000
28 2 77.042300 -1249.500000 52.091700 1 1.000000 1 -3.000000
29 2 77.847700 -1246.090000 61.360100 1 1.000000 1 -3.000000
30 2 79.021200 -1244.620000 71.164600 1 1.000000 1 -3.000000
31 2 78.146000 -1241.770000 80.528200 1 1.000000 1 -3.000000
32 2 78.067000 -1238.880000 90.017200 1 1.000000 1 -3.000000
33 2 77.572500 -1233.950000 98.618900 1 1.000000 1 -3.000000
34 2 76.366200 -1227.870000 106.405000 1 1.000000 1 -3.000000
35 2 75.895500 -1221.630000 113.991000 1 1.000000 1 -3.000000
36 2 76.199400 -1216.820000 122.613000 1 1.000000 1 -3.000000
37 2 75.519000 -1211.940000 131.205000 1 1.000000 1 -3.000000
38 2 74.647500 -1207.690000 140.139000 1 1.000000 1 -3.000000
39 2 73.601600 -1200.520000 146.951000 1 1.000000 1 -3.000000
40 2 73.334300 -1194.210000 154.521000 1 1.000000 1 -3.000000
41 2 73.624600 -1187.420000 161.850000 1 1.000000 1 -3.000000
42 2 74.949500 -1180.430000 168.853000 1 1.000000 1 -3.000000
43 2 74.988800 -1176.450000 177.911000 1 1.000000 1 -3.000000
44 2 75.992000 -1174.270000 187.521000 1 1.000000 1 -3.000000
45 2 78.215700 -1173.580000 197.118000 1 1.000000 1 -3.000000
46 2 79.240700 -1174.770000 206.950000 1 1.000000 1 -3.000000
47 2 80.039000 -1177.810000 216.336000 1 1.000000 1 -3.000000
48 2 82.467100 -1180.060000 225.640000 1 1.000000 3 -3.000000
49 1 100.536000 -1223.570000 222.579000 1 1.000000 3 0.000000
50 3 99.819000 -1212.830000 189.221000 1 1.000000 3 0.000000
51 2 117.904000 -1260.480000 198.963000 1 1.000000 3 -3.000000
52 2 120.015000 -1255.940000 190.360000 1 1.000000 1 -3.000000
53 2 121.225000 -1252.030000 181.379000 1 1.000000 1 -3.000000
54 2 122.649000 -1247.280000 172.768000 1 1.000000 1 -3.000000
55 2 123.188000 -1241.340000 164.926000 1 1.000000 1 -3.000000
56 2 124.823000 -1234.210000 158.139000 1 1.000000 1 -3.000000
57 2 126.240000 -1226.670000 151.837000 1 1.000000 1 -3.000000
58 2 126.633000 -1218.230000 146.618000 1 1.000000 1 -3.000000
59 2 127.082000 -1208.460000 145.161000 1 1.000000 1 -3.000000
60 2 126.452000 -1198.840000 143.072000 1 1.000000 1 -3.000000
61 2 124.337000 -1189.530000 140.544000 1 1.000000 1 -3.000000
62 2 122.318000 -1180.180000 137.832000 1 1.000000 1 -3.000000
63 2 118.094000 -1171.440000 135.777000 1 1.000000 1 -3.000000
64 2 111.966000 -1163.850000 134.010000 1 1.000000 1 -3.000000
65 2 105.006000 -1156.880000 132.810000 1 1.000000 1 -3.000000
66 2 96.073200 -1152.950000 131.124000 1 1.000000 1 -3.000000
67 2 87.313300 -1148.480000 130.042000 1 1.000000 1 -3.000000
68 2 77.907700 -1145.230000 130.049000 1 1.000000 1 -3.000000
69 2 68.046900 -1144.510000 129.983000 1 1.000000 1 -3.000000
70 2 58.229100 -1144.870000 128.368000 1 1.000000 1 -3.000000
71 2 48.992500 -1146.060000 124.723000 1 1.000000 1 -3.000000
72 2 40.533800 -1148.540000 120.162000 1 1.000000 1 -3.000000
73 2 32.486200 -1151.550000 115.211000 1 1.000000 1 -3.000000
74 2 24.524800 -1152.500000 109.547000 1 1.000000 1 -3.000000
75 2 16.849300 -1153.170000 103.389000 1 1.000000 4 -3.000000
76 1 40.305700 -1144.340000 63.396800 1 1.000000 4 0.000000
77 3 65.621500 -1154.700000 85.470100 1 1.000000 4 0.000000
78 2 79.431300 -1141.120000 37.223400 1 1.000000 4 -3.000000
79 2 86.100100 -1142.190000 44.407200 1 1.000000 1 -3.000000
80 2 92.991500 -1141.710000 51.561700 1 1.000000 1 -3.000000
81 2 100.948000 -1139.510000 57.072200 1 1.000000 1 -3.000000
82 2 109.123000 -1138.650000 62.375100 1 1.000000 1 -3.000000
83 2 118.046000 -1139.420000 66.593300 1 1.000000 1 -3.000000
84 2 127.313000 -1138.860000 69.884600 1 1.000000 1 -3.000000
85 2 135.581000 -1134.010000 72.316300 1 1.000000 1 -3.000000
86 2 143.721000 -1128.330000 71.692900 1 1.000000 1 -3.000000
87 2 150.566000 -1121.320000 70.310300 1 1.000000 1 -3.000000
88 2 157.896000 -1114.680000 69.704000 1 1.000000 1 -3.000000
89 2 165.467000 -1108.710000 67.453000 1 1.000000 1 -3.000000
90 2 171.889000 -1101.300000 66.209200 1 1.000000 1 -3.000000
91 2 177.272000 -1094.270000 61.804800 1 1.000000 1 -3.000000
92 2 183.282000 -1086.770000 59.207700 1 1.000000 1 -3.000000
93 2 188.391000 -1078.820000 56.383900 1 1.000000 1 -3.000000
94 2 194.857000 -1071.940000 53.468900 1 1.000000 1 -3.000000
95 2 201.324000 -1065.140000 50.465500 1 1.000000 1 -3.000000
96 2 207.220000 -1057.310000 48.806400 1 1.000000 1 -3.000000
97 2 212.478000 -1048.920000 48.750600 1 1.000000 1 -3.000000
98 2 219.438000 -1042.190000 46.489900 1 1.000000 1 -3.000000
99 2 225.263000 -1035.970000 41.358900 1 1.000000 1 -3.000000
100 2 231.442000 -1029.600000 37.137100 1 1.000000 1 -3.000000
101 2 237.949000 -1023.450000 32.996200 1 1.000000 1 -3.000000
102 2 245.065000 -1016.910000 30.576500 1 1.000000 5 -3.000000
103 1 214.007000 -983.207000 19.287000 1 1.000000 5 0.000000
104 3 194.614000 -1006.400000 37.102500 1 1.000000 5 0.000000
105 2 170.708000 -964.521000 17.858900 1 1.000000 5 -3.000000
106 2 165.929000 -969.696000 24.958700 1 1.000000 1 -3.000000
107 2 161.048000 -974.995000 31.812400 1 1.000000 1 -3.000000
108 2 158.250000 -980.512000 39.509900 1 1.000000 1 -3.000000
109 2 154.038000 -986.479000 46.204200 1 1.000000 1 -3.000000
110 2 154.781000 -993.574000 52.994800 1 1.000000 1 -3.000000
111 2 156.352000 -1000.110000 60.184800 1 1.000000 1 -3.000000
112 2 160.205000 -1006.290000 66.940700 1 1.000000 1 -3.000000
113 2 164.845000 -1012.550000 72.988500 1 1.000000 1 -3.000000
114 2 168.705000 -1019.170000 79.221600 1 1.000000 1 -3.000000
115 2 171.637000 -1026.730000 84.866500 1 1.000000 1 -3.000000
116 2 173.420000 -1033.820000 91.408000 1 1.000000 1 -3.000000
117 2 175.345000 -1040.940000 97.941000 1 1.000000 1 -3.000000
118 2 179.040000 -1048.760000 102.737000 1 1.000000 1 -3.000000
119 2 182.349000 -1056.180000 108.448000 1 1.000000 1 -3.000000
120 2 185.480000 -1063.720000 114.034000 1 1.000000 1 -3.000000
121 2 186.974000 -1071.090000 120.421000 1 1.000000 1 -3.000000
122 2 187.423000 -1079.000000 126.302000 1 1.000000 1 -3.000000
123 2 187.043000 -1087.240000 131.706000 1 1.000000 1 -3.000000
124 2 187.079000 -1093.440000 139.388000 1 1.000000 1 -3.000000
125 2 186.956000 -1096.890000 148.658000 1 1.000000 1 -3.000000
126 2 188.743000 -1099.440000 158.116000 1 1.000000 1 -3.000000
127 2 191.560000 -1101.670000 167.319000 1 1.000000 1 -3.000000
128 2 195.772000 -1103.640000 176.082000 1 1.000000 1 -3.000000
129 2 200.964000 -1106.330000 184.108000 1 1.000000 6 -3.000000
130 1 243.356000 -1086.900000 177.004000 1 1.000000 6 0.000000
131 3 223.688000 -1072.430000 151.936000 1 1.000000 6 0.000000
132 2 273.540000 -1058.440000 154.555000 1 1.000000 6 -3.000000
133 2 268.509000 -1053.510000 147.663000 1 1.000000 1 -3.000000
134 2 261.861000 -1047.660000 143.229000 1 1.000000 1 -3.000000
135 2 254.590000 -1043.800000 137.638000 1 1.000000 1 -3.000000
136 2 247.113000 -1039.990000 132.464000 1 1.000000 1 -3.000000
137 2 237.861000 -1037.210000 130.383000 1 1.000000 1 -3.000000
138 2 229.001000 -1033.030000 128.742000 1 1.000000 1 -3.000000
139 2 220.722000 -1027.560000 129.054000 1 1.000000 1 -3.000000
140 2 213.379000 -1020.950000 129.953000 1 1.000000 1 -3.000000
141 2 205.805000 -1014.700000 131.233000 1 1.000000 1 -3.000000
142 2 198.838000 -1007.850000 132.371000 1 1.000000 1 -3.000000
143 2 191.317000 -1001.420000 132.115000 1 1.000000 1 -3.000000
144 2 182.668000 -996.559000 132.329000 1 1.000000 1 -3.000000
145 2 173.627000 -992.560000 132.129000 1 1.000000 1 -3.000000
146 2 164.151000 -990.655000 134.521000 1 1.000000 1 -3.000000
147 2 154.447000 -988.605000 135.542000 1 1.000000 1 -3.000000
148 2 144.612000 -987.914000 136.512000 1 1.000000 1 -3.000000
149 2 135.186000 -987.474000 139.397000 1 1.000000 1 -3.000000
150 2 125.899000 -986.283000 142.756000 1 1.000000 1 -3.000000
151 2 117.682000 -983.441000 147.531000 1 1.000000 1 -3.000000
152 2 110.234000 -978.506000 151.805000 1 1.000000 1 -3.000000
153 2 103.922000 -972.455000 156.574000 1 1.000000 1 -3.000000
154 2 96.707100 -968.691000 162.277000 1 1.000000 1 -3.000000
155 2 89.993000 -965.466000 168.763000 1 1.000000 1 -3.000000
156 2 82.408300 -963.919000 174.905000 1 1.000000 7 -3.000000
157 1 59.630300 -1005.040000 178.471000 1 1.000000 7 0.000000
158 3 90.410200 -1014.080000 164.309000 1 1.000000 7 0.000000
159 2 55.708100 -1051.730000 172.902000 1 1.000000 7 -3.000000
160 2 65.186500 -1054.210000 174.122000 1 1.000000 1 -3.000000
161 2 74.450700 -1056.640000 171.892000 1 1.000000 1 -3.000000
162 2 84.209600 -1058.110000 170.754000 1 1.000000 1 -3.000000
163 2 93.868800 -1057.850000 169.275000 1 1.000000 1 -3.000000
164 2 103.561000 -1056.120000 168.339000 1 1.000000 1 -3.000000
165 2 112.680000 -1052.540000 169.584000 1 1.000000 1 -3.000000
166 2 121.094000 -1048.220000 172.628000 1 1.000000 1 -3.000000
167 2 127.848000 -1041.950000 176.244000 1 1.000000 1 -3.000000
168 2 136.933000 -1038.370000 177.928000 1 1.000000 1 -3.000000
169 2 146.263000 -1035.120000 178.863000 1 1.000000 1 -3.000000
170 2 155.159000 -1030.700000 179.852000 1 1.000000 1 -3.000000
171 2 164.101000 -1026.440000 180.211000 1 1.000000 1 -3.000000
172 2 172.150000 -1020.740000 181.158000 1 1.000000 1 -3.000000
173 2 180.598000 -1015.480000 181.351000 1 1.000000 1 -3.000000
174 2 188.553000 -1009.780000 180.877000 1 1.000000 1 -3.000000
175 2 196.165000 -1003.520000 180.886000 1 1.000000 1 -3.000000
176 2 203.397000 -996.740000 180.707000 1 1.000000 1 -3.000000
177 2 210.147000 -990.056000 183.715000 1 1.000000 1 -3.000000
178 2 212.979000 -981.090000 186.770000 1 1.000000 1 -3.000000
179 2 214.391000 -971.625000 189.331000 1 1.000000 1 -3.000000
180 2 214.814000 -962.634000 193.550000 1 1.000000 1 -3.000000
181 2 215.643000 -954.711000 199.337000 1 1.000000 1 -3.000000
182 2 214.030000 -947.282000 205.708000 1 1.000000 1 -3.000000
183 2 211.273000 -940.399000 212.299000 1 1.000000 8 -3.000000
184 1 164.102000 -942.582000 210.987000 1 1.000000 8 0.000000
185 3 173.937000 -975.658000 205.058000 1 1.000000 8 0.000000
186 2 123.065000 -965.598000 208.216000 1 1.000000 8 -3.000000
187 2 127.159000 -974.408000 209.924000 1 1.000000 1 -3.000000
188 2 130.498000 -983.761000 210.071000 1 1.000000 1 -3.000000
189 2 133.858000 -993.084000 209.867000 1 1.000000 1 -3.000000
190 2 139.274000 -1001.430000 210.736000 1 1.000000 1 -3.000000
191 2 145.344000 -1009.250000 211.099000 1 1.000000 1 -3.000000
192 2 153.243000 -1015.230000 211.796000 1 1.000000 1 -3.000000
193 2 161.315000 -1020.910000 212.570000 1 1.000000 1 -3.000000
194 2 166.864000 -1029.080000 214.278000 1 1.000000 1 -3.000000
195 2 169.068000 -1038.690000 215.816000 1 1.000000 1 -3.000000
196 2 172.194000 -1047.760000 218.086000 1 1.000000 1 -3.000000
197 2 174.897000 -1056.700000 221.315000 1 1.000000 1 -3.000000
198 2 174.672000 -1066.170000 224.358000 1 1.000000 1 -3.000000
199 2 174.023000 -1075.700000 227.095000 1 1.000000 1 -3.000000
200 2 173.580000 -1085.060000 230.338000 1 1.000000 1 -3.000000
201 2 172.749000 -1093.150000 235.945000 1 1.000000 1 -3.000000
202 2 171.315000 -1100.650000 242.239000 1 1.000000 1 -3.000000
203 2 170.046000 -1107.120000 249.623000 1 1.000000 1 -3.000000
204 2 169.325000 -1113.650000 257.091000 1 1.000000 1 -3.000000
205 2 170.067000 -1119.000000 265.354000 1 1.000000 1 -3.000000
206 2 170.804000 -1125.120000 273.056000 1 1.000000 1 -3.000000
207 2 173.314000 -1128.330000 282.089000 1 1.000000 1 -3.000000
208 2 174.812000 -1129.100000 291.873000 1 1.000000 1 -3.000000
209 2 178.277000 -1130.280000 301.050000 1 1.000000 1 -3.000000
210 2 180.716000 -1132.360000 310.474000 1 1.000000 9 -3.000000
211 1 184.456000 -1087.000000 322.810000 1 1.000000 9 0.000000
212 3 167.036000 -1085.570000 292.465000 1 1.000000 9 0.000000
213 2 177.637000 -1040.750000 316.304000 1 1.000000 9 -3.000000
214 2 169.071000 -1040.320000 311.201000 1 1.000000 1 -3.000000
215 2 162.888000 -1041.220000 303.587000 1 1.000000 1 -3.000000
216 2 155.031000 -1042.700000 297.698000 1 1.000000 1 -3.000000
217 2 147.545000 -1044.710000 291.596000 1 1.000000 1 -3.000000
218 2 141.575000 -1049.850000 285.601000 1 1.000000 1 -3.000000
219 2 136.699000 -1056.190000 279.699000 1 1.000000 1 -3.000000
220 2 131.645000 -1063.220000 275.101000 1 1.000000 1 -3.000000
221 2 125.230000 -1069.470000 270.932000 1 1.000000 1 -3.000000
222 2 118.563000 -1074.390000 265.527000 1 1.000000 1 -3.000000
223 2 113.828000 -1079.150000 258.259000 1 1.000000 1 -3.000000
224 2 110.512000 -1084.710000 250.833000 1 1.000000 1 -3.000000
225 2 106.113000 -1089.020000 243.073000 1 1.000000 1 -3.000000
226 2 100.327000 -1093.490000 236.425000 1 1.000000 1 -3.000000
227 2 96.956000 -1095.580000 227.288000 1 1.000000 1 -3.000000
228 2 93.462500 -1096.270000 218.064000 1 1.000000 1 -3.000000
229 2 89.616700 -1096.650000 208.891000 1 1.000000 1 -3.000000
230 2 84.842900 -1097.160000 200.190000 1 1.000000 1 -3.000000
231 2 81.352900 -1098.780000 191.144000 1 1.000000 1 -3.000000
232 2 77.343800 -1099.880000 182.167000 1 1.000000 1 -3.000000
233 2 71.002100 -1099.860000 174.540000 1 1.000000 1 -3.000000
234 2 63.299200 -1101.680000 168.675000 1 1.000000 1 -3.000000
235 2 54.391700 -1102.940000 164.426000 1 1.000000 1 -3.000000
236 2 45.797300 -1103.050000 159.652000 1 1.000000 1 -3.000000
237 2 36.948200 -1103.410000 154.993000 1 1.000000 10 -3.000000
238 1 11.104100 -1112.020000 193.544000 1 1.000000 10 0.000000
239 3 39.549300 -1096.370000 206.384000 1 1.000000 10 0.000000
240 2 1.872310 -1108.960000 239.721000 1 1.000000 10 -3.000000
241 2 8.499620 -1101.830000 241.705000 1 1.000000 1 -3.000000
242 2 15.564500 -1095.190000 243.700000 1 1.000000 1 -3.000000
243 2 22.994800 -1088.770000 245.147000 1 1.000000 1 -3.000000
244 2 28.807400 -1080.790000 245.984000 1 1.000000 1 -3.000000
245 2 36.431200 -1074.430000 245.207000 1 1.000000 1 -3.000000
246 2 43.672400 -1067.780000 245.286000 1 1.000000 1 -3.000000
247 2 49.529100 -1060.070000 243.102000 1 1.000000 1 -3.000000
248 2 54.650500 -1052.080000 240.310000 1 1.000000 1 -3.000000
249 2 58.236500 -1042.840000 239.548000 1 1.000000 1 -3.000000
250 2 62.800100 -1034.070000 238.668000 1 1.000000 1 -3.000000
251 2 64.658500 -1024.490000 237.344000 1 1.000000 1 -3.000000
252 2 65.739000 -1014.730000 236.228000 1 1.000000 1 -3.000000
253 2 65.948100 -1004.850000 235.880000 1 1.000000 1 -3.000000
254 2 65.290700 -994.931000 236.390000 1 1.000000 1 -3.000000
255 2 66.072200 -985.629000 239.573000 1 1.000000 1 -3.000000
256 2 64.379800 -977.635000 245.216000 1 1.000000 1 -3.000000
257 2 62.902500 -969.617000 250.822000 1 1.000000 1 -3.000000
258 2 60.211100 -962.236000 256.782000 1 1.000000 1 -3.000000
259 2 58.033700 -955.047000 263.235000 1 1.000000 1 -3.000000
260 2 57.448600 -949.766000 271.657000 1 1.000000 1 -3.000000
261 2 56.766800 -946.957000 281.061000 1 1.000000 1 -3.000000
262 2 57.046700 -946.941000 290.936000 1 1.000000 1 -3.000000
263 2 59.099900 -949.205000 300.264000 1 1.000000 1 -3.000000
264 2 60.826800 -950.498000 309.950000 1 1.000000 11 -3.000000
265 1 98.540800 -978.824000 310.476000 1 1.000000 11 0.000000
266 3 99.112200 -965.409000 278.160000 1 1.000000 11 0.000000
267 2 136.858000 -998.530000 291.341000 1 1.000000 11 -3.000000
268 2 137.889000 -993.329000 283.023000 1 1.000000 1 -3.000000
269 2 139.905000 -987.044000 275.552000 1 1.000000 1 -3.000000
270 2 140.675000 -979.485000 269.150000 1 1.000000 1 -3.000000
271 2 140.064000 -971.575000 263.167000 1 1.000000 1 -3.000000
272 2 138.876000 -963.592000 257.476000 1 1.000000 1 -3.000000
273 2 135.045000 -956.486000 251.827000 1 1.000000 1 -3.000000
274 2 132.187000 -948.423000 246.936000 1 1.000000 1 -3.000000
275 2 129.801000 -939.961000 242.463000 1 1.000000 1 -3.000000
276 2 126.725000 -931.861000 237.751000 1 1.000000 1 -3.000000
277 2 122.845000 -923.647000 233.771000 1 1.000000 1 -3.000000
278 2 118.321000 -915.038000 231.885000 1 1.000000 1 -3.000000
279 2 110.974000 -908.965000 229.276000 1 1.000000 1 -3.000000
280 2 103.176000 -903.475000 226.650000 1 1.000000 1 -3.000000
281 2 94.979700 -898.202000 225.298000 1 1.000000 1 -3.000000
282 2 85.809900 -894.964000 223.226000 1 1.000000 1 -3.000000
283 2 76.578300 -891.573000 222.330000 1 1.000000 1 -3.000000
284 2 67.921800 -886.812000 221.783000 1 1.000000 1 -3.000000
285 2 59.032700 -882.372000 221.605000 1 1.000000 1 -3.000000
286 2 49.430300 -881.067000 219.665000 1 1.000000 1 -3.000000
287 2 39.789300 -879.138000 220.143000 1 1.000000 1 -3.000000
288 2 30.270700 -878.133000 222.596000 1 1.000000 1 -3.000000
289 2 21.314500 -878.535000 226.915000 1 1.000000 1 -3.000000
290 2 12.214900 -879.870000 230.629000 1 1.000000 1 -3.000000
291 2 3.140830 -879.899000 234.688000 1 1.000000 12 -3.000000
292 1 14.826700 -897.451000 276.885000 1 1.000000 12 0.000000
293 3 45.750500 -888.717000 263.069000 1 1.000000 12 0.000000
294 2 45.775300 -911.772000 309.474000 1 1.000000 12 -3.000000
295 2 54.095600 -907.578000 306.034000 1 1.000000 1 -3.000000
296 2 62.169500 -902.585000 302.966000 1 1.000000 1 -3.000000
297 2 69.026300 -896.541000 299.146000 1 1.000000 1 -3.000000
298 2 74.988300 -890.098000 294.553000 1 1.000000 1 -3.000000
299 2 81.833300 -884.909000 289.760000 1 1.000000 1 -3.000000
300 2 88.243800 -880.365000 283.725000 1 1.000000 1 -3.000000
301 2 94.680100 -875.476000 278.139000 1 1.000000 1 -3.000000
302 2 101.024000 -870.764000 272.156000 1 1.000000 1 -3.000000
303 2 107.694000 -865.075000 267.549000 1 1.000000 1 -3.000000
304 2 113.920000 -859.914000 261.789000 1 1.000000 1 -3.000000
305 2 119.023000 -854.211000 255.471000 1 1.000000 1 -3.000000
306 2 123.242000 -847.821000 249.187000 1 1.000000 1 -3.000000
307 2 129.207000 -841.366000 244.416000 1 1.000000 1 -3.000000
308 2 132.959000 -835.088000 237.787000 1 1.000000 1 -3.000000
309 2 136.293000 -828.086000 231.716000 1 1.000000 1 -3.000000
310 2 139.720000 -820.462000 226.435000 1 1.000000 1 -3.000000
311 2 142.334000 -814.456000 218.992000 1 1.000000 1 -3.000000
312 2 142.864000 -807.055000 212.480000 1 1.000000 1 -3.000000
313 2 142.322000 -799.437000 206.208000 1 1.000000 1 -3.000000
314 2 140.596000 -792.211000 199.693000 1 1.000000 1 -3.000000
315 2 138.018000 -784.604000 193.863000 1 1.000000 1 -3.000000
316 2 133.673000 -778.062000 187.866000 1 1.000000 1 -3.000000
317 2 128.181000 -771.625000 182.543000 1 1.000000 1 -3.000000
318 2 122.202000 -764.789000 178.633000 1 1.000000 13 -3.000000
319 1 88.628300 -758.671000 211.167000 1 1.000000 13 0.000000
320 3 115.423000 -771.416000 229.718000 1 1.000000 13 0.000000
321 2 71.284500 -761.355000 254.986000 1 1.000000 13 -3.000000
322 2 79.844900 -758.890000 259.498000 1 1.000000 1 -3.000000
323 2 87.938900 -756.369000 264.487000 1 1.000000 1 -3.000000
324 2 97.210800 -754.458000 267.441000 1 1.000000 1 -3.000000
325 2 106.717000 -754.878000 269.979000 1 1.000000 1 -3.000000
326 2 115.521000 -758.918000 271.903000 1 1.000000 1 -3.000000
327 2 124.590000 -762.581000 273.285000 1 1.000000 1 -3.000000
328 2 133.657000 -766.363000 274.876000 1 1.000000 1 -3.000000
329 2 142.991000 -769.675000 275.025000 1 1.000000 1 -3.000000
330 2 152.347000 -770.884000 278.147000 1 1.000000 1 -3.000000
331 2 161.988000 -769.376000 279.890000 1 1.000000 1 -3.000000
332 2 171.735000 -767.769000 281.337000 1 1.000000 1 -3.000000
333 2 180.422000 -763.480000 283.234000 1 1.000000 1 -3.000000
334 2 189.064000 -760.235000 286.823000 1 1.000000 1 -3.000000
335 2 198.356000 -759.082000 290.165000 1 1.000000 1 -3.000000
336 2 207.970000 -758.748000 292.550000 1 1.000000 1 -3.000000
337 2 217.727000 -758.033000 293.898000 1 1.000000 1 -3.000000
338 2 227.587000 -756.952000 294.080000 1 1.000000 1 -3.000000
339 2 237.343000 -755.847000 293.053000 1 1.000000 1 -3.000000
340 2 246.927000 -753.404000 293.624000 1 1.000000 1 -3.000000
341 2 256.539000 -751.646000 292.792000 1 1.000000 1 -3.000000
342 2 266.350000 -750.899000 292.949000 1 1.000000 1 -3.000000
343 2 275.907000 -749.899000 290.507000 1 1.000000 1 -3.000000
344 2 284.930000 -750.504000 286.666000 1 1.000000 1 -3.000000
345 2 293.986000 -749.620000 282.892000 1 1.000000 14 -3.000000
346 1 294.409000 -702.618000 279.152000 1 1.000000 14 0.000000
347 3 270.051000 -708.399000 303.546000 1 1.000000 14 0.000000
348 2 280.907000 -659.140000 291.405000 1 1.000000 14 -3.000000
349 2 275.638000 -662.207000 299.158000 1 1.000000 1 -3.000000
350 2 271.510000 -665.156000 307.601000 1 1.000000 1 -3.000000
351 2 268.775000 -667.776000 316.672000 1 1.000000 1 -3.000000
352 2 266.270000 -670.808000 325.730000 1 1.000000 1 -3.000000
353 2 265.275000 -674.874000 334.717000 1 1.000000 1 -3.000000
354 2 266.058000 -679.527000 343.391000 1 1.000000 1 -3.000000
355 2 267.211000 -682.766000 352.748000 1 1.000000 1 -3.000000
356 2 269.608000 -686.276000 361.748000 1 1.000000 1 -3.000000
357 2 270.602000 -689.263000 371.106000 1 1.000000 1 -3.000000
358 2 271.764000 -692.964000 380.249000 1 1.000000 1 -3.000000
359 2 273.827000 -696.327000 389.352000 1 1.000000 1 -3.000000
360 2 276.282000 -698.381000 398.653000 1 1.000000 1 -3.000000
361 2 276.668000 -700.611000 408.304000 1 1.000000 1 -3.000000
362 2 278.052000 -704.244000 417.478000 1 1.000000 1 -3.000000
363 2 280.320000 -707.976000 426.319000 1 1.000000 1 -3.000000
364 2 282.147000 -712.897000 434.662000 1 1.000000 1 -3.000000
365 2 285.152000 -716.340000 443.391000 1 1.000000 1 -3.000000
366 2 286.497000 -719.486000 452.679000 1 1.000000 1 -3.000000
367 2 287.231000 -723.146000 461.787000 1 1.000000 1 -3.000000
368 2 286.691000 -727.826000 470.500000 1 1.000000 1 -3.000000
369 2 285.625000 -732.387000 479.239000 1 1.000000 1 -3.000000
370 2 285.246000 -738.367000 487.113000 1 1.000000 1 -3.000000
371 2 284.768000 -745.147000 494.308000 1 1.000000 1 -3.000000
372 2 283.589000 -752.911000 500.426000 1 1.000000 15 -3.000000
373 1 276.432000 -790.991000 473.493000 1 1.000000 15 0.000000
374 3 290.732000 -768.048000 451.347000 1 1.000000 15 0.000000
375 2 275.274000 -813.778000 432.144000 1 1.000000 15 -3.000000
376 2 281.800000 -808.013000 427.204000 1 1.000000 1 -3.000000
377 2 288.621000 -801.941000 423.493000 1 1.000000 1 -3.000000
378 2 296.567000 -798.213000 418.921000 1 1.000000 1 -3.000000
379 2 304.899000 -793.197000 417.098000 1 1.000000 1 -3.000000
380 2 313.007000 -787.591000 416.442000 1 1.000000 1 -3.000000
381 2 319.193000 -780.253000 419.285000 1 1.000000 1 -3.000000
382 2 324.271000 -771.788000 419.585000 1 1.000000 1 -3.000000
383 2 329.359000 -763.770000 422.172000 1 1.000000 1 -3.000000
384 2 331.616000 -754.256000 423.931000 1 1.000000 1 -3.000000
385 2 332.140000 -744.528000 425.580000 1 1.000000 1 -3.000000
386 2 332.214000 -734.909000 427.847000 1 1.000000 1 -3.000000
387 2 331.952000 -725.182000 429.786000 1 1.000000 1 -3.000000
388 2 332.993000 -715.409000 428.971000 1 1.000000 1 -3.000000
389 2 335.556000 -706.351000 425.793000 1 1.000000 1 -3.000000
390 2 339.307000 -697.585000 423.145000 1 1.000000 1 -3.000000
391 2 343.084000 -689.323000 419.290000 1 1.000000 1 -3.000000
392 2 346.368000 -680.241000 417.040000 1 1.000000 1 -3.000000
393 2 349.574000 -671.090000 415.129000 1 1.000000 1 -3.000000
394 2 349.209000 -661.276000 413.398000 1 1.000000 1 -3.000000
395 2 346.593000 -652.026000 411.035000 1 1.000000 1 -3.000000
396 2 344.068000 -642.736000 409.562000 1 1.000000 1 -3.000000
397 2 340.020000 -633.642000 408.951000 1 1.000000 1 -3.000000
398 2 335.654000 -625.120000 411.539000 1 1.000000 1 -3.000000
399 2 330.734000 -617.469000 415.413000 1 1.000000 16 -3.000000
400 1 333.839000 -619.199000 462.448000 1 1.000000 16 0.000000
401 3 355.866000 -644.365000 452.079000 1 1.000000 16 0.000000
402 2 348.834000 -637.868000 503.155000 1 1.000000 16 -3.000000
403 2 358.037000 -639.181000 500.032000 1 1.000000 1 -3.000000
404 2 365.743000 -643.982000 496.178000 1 1.000000 1 -3.000000
405 2 373.902000 -646.700000 491.278000 1 1.000000 1 -3.000000
406 2 381.967000 -648.931000 485.964000 1 1.000000 1 -3.000000
407 2 389.055000 -653.148000 480.584000 1 1.000000 1 -3.000000
408 2 396.062000 -655.446000 474.001000 1 1.000000 1 -3.000000
409 2 402.064000 -658.265000 466.697000 1 1.000000 1 -3.000000
410 2 410.387000 -659.925000 461.517000 1 1.000000 1 -3.000000
411 2 419.240000 -662.226000 457.797000 1 1.000000 1 -3.000000
412 2 428.029000 -665.138000 454.387000 1 1.000000 1 -3.000000
413 2 437.010000 -666.497000 450.414000 1 1.000000 1 -3.000000
414 2 445.824000 -669.620000 447.258000 1 1.000000 1 -3.000000
415 2 454.920000 -670.980000 443.587000 1 1.000000 1 -3.000000
416 2 464.353000 -673.558000 441.979000 1 1.000000 1 -3.000000
417 2 473.978000 -675.924000 442.515000 1 1.000000 1 -3.000000
418 2 483.601000 -674.948000 444.567000 1 1.000000 1 -3.000000
419 2 492.217000 -671.824000 448.174000 1 1.000000 1 -3.000000
420 2 499.856000 -669.442000 453.967000 1 1.000000 1 -3.000000
421 2 507.532000 -667.219000 459.753000 1 1.000000 1 -3.000000
422 2 514.415000 -665.427000 466.741000 1 1.000000 1 -3.000000
423 2 521.169000 -664.933000 473.923000 1 1.000000 1 -3.000000
424 2 527.420000 -666.812000 481.315000 1 1.000000 1 -3.000000
425 2 532.978000 -669.873000 488.955000 1 1.000000 1 -3.000000
426 2 537.182000 -671.680000 497.735000 1 1.000000 17 -3.000000
427 1 517.032000 -713.392000 506.526000 1 1.000000 17 0.000000
428 3 509.453000 -707.742000 472.886000 1 1.000000 17 0.000000
429 2 493.044000 -752.152000 494.324000 1 1.000000 17 -3.000000
430 2 495.903000 -751.509000 484.840000 1 1.000000 1 -3.000000
431 2 498.992000 -751.582000 475.463000 1 1.000000 1 -3.000000
432 2 500.689000 -751.130000 465.689000 1 1.000000 1 -3.000000
433 2 501.727000 -748.713000 456.159000 1 1.000000 1 -3.000000
434 2 501.977000 -744.742000 447.089000 1 1.000000 1 -3.000000
435 2 503.198000 -738.143000 439.837000 1 1.000000 1 -3.000000
436 2 504.979000 -730.188000 434.358000 1 1.000000 1 -3.000000
437 2 508.535000 -723.907000 427.393000 1 1.000000 1 -3.000000
438 2 512.894000 -719.347000 419.762000 1 1.000000 1 -3.000000
439 2 519.211000 -714.787000 413.800000 1 1.000000 1 -3.000000
440 2 524.252000 -710.668000 406.347000 1 1.000000 1 -3.000000
441 2 528.643000 -706.352000 398.593000 1 1.000000 1 -3.000000
442 2 533.651000 -701.464000 391.599000 1 1.000000 1 -3.000000
443 2 537.529000 -697.548000 383.400000 1 1.000000 1 -3.000000
444 2 541.071000 -692.761000 375.430000 1 1.000000 1 -3.000000
445 2 545.646000 -687.631000 368.320000 1 1.000000 1 -3.000000
446 2 550.953000 -681.375000 362.702000 1 1.000000 1 -3.000000
447 2 557.340000 -675.771000 357.613000 1 1.000000 1 -3.000000
448 2 565.324000 -670.339000 355.354000 1 1.000000 1 -3.000000
449 2 573.128000 -664.316000 354.860000 1 1.000000 1 -3.000000
450 2 581.390000 -658.889000 355.071000 1 1.000000 1 -3.000000
451 2 589.406000 -653.802000 357.994000 1 1.000000 1 -3.000000
452 2 596.567000 -649.858000 363.658000 1 1.000000 1 -3.000000
453 2 601.603000 -642.205000 367.345000 1 1.000000 18 -3.000000
454 1 609.168000 -665.512000 407.659000 1 1.000000 18 0.000000
455 3 587.744000 -686.853000 389.925000 1 1.000000 18 0.000000
456 2 604.988000 -702.871000 436.212000 1 1.000000 18 -3.000000
457 2 601.381000 -708.791000 429.043000 1 1.000000 1 -3.000000
458 2 599.255000 -715.832000 422.501000 1 1.000000 1 -3.000000
459 2 595.136000 -721.236000 415.310000 1 1.000000 1 -3.000000
460 2 590.887000 -725.833000 407.521000 1 1.000000 1 -3.000000
461 2 587.024000 -729.904000 399.390000 1 1.000000 1 -3.000000
462 2 581.962000 -732.597000 391.186000 1 1.000000 1 -3.000000
463 2 578.807000 -735.963000 382.434000 1 1.000000 1 -3.000000
464 2 574.475000 -741.240000 375.271000 1 1.000000 1 -3.000000
465 2 570.718000 -745.652000 367.265000 1 1.000000 1 -3.000000
466 2 566.977000 -750.654000 359.635000 1 1.000000 1 -3.000000
467 2 563.984000 -756.063000 351.928000 1 1.000000 1 -3.000000
468 2 559.637000 -762.609000 345.939000 1 1.000000 1 -3.000000
469 2 555.273000 -768.397000 339.256000 1 1.000000 1 -3.000000
470 2 549.934000 -774.314000 333.339000 1 1.000000 1 -3.000000
471 2 543.608000 -778.818000 327.089000 1 1.000000 1 -3.000000
472 2 536.114000 -781.514000 321.254000 1 1.000000 1 -3.000000