LAMMPS data file

4067 atoms
4067 ellipsoids
4516 bonds
8882 angles
0 dihedrals

3 atom types
5 bond types
12 angle types
0 dihedral types

-4631.092947 4670.465898 xlo xhi
-4631.092947 4670.465898 ylo yhi
-4631.092947 4670.465898 zlo zhi

Masses

1 196016.000000
2 1950.000000
3 19500.000000

Atoms

1 2 611.465000 -1280.810000 -293.043000 1 1.000000 1 -3.000000
2 2 608.306000 -1271.810000 -295.546000 1 1.000000 1 -3.000000
3 2 605.875000 -1262.880000 -299.346000 1 1.000000 1 -3.000000
4 2 602.926000 -1253.460000 -300.309000 1 1.000000 1 -3.000000
5 2 599.095000 -1244.560000 -301.942000 1 1.000000 1 -3.000000
6 2 594.319000 -1236.010000 -302.816000 1 1.000000 1 -3.000000
7 2 587.796000 -1228.510000 -302.780000 1 1.000000 1 -3.000000
8 2 582.332000 -1220.550000 -301.095000 1 1.000000 1 -3.000000
9 2 574.950000 -1214.200000 -299.386000 1 1.000000 1 -3.000000
10 2 570.847000 -1206.990000 -293.954000 1 1.000000 1 -3.000000
11 2 565.421000 -1200.290000 -289.197000 1 1.000000 1 -3.000000
12 2 559.675000 -1193.860000 -284.381000 1 1.000000 1 -3.000000
13 2 553.682000 -1188.070000 -279.064000 1 1.000000 1 -3.000000
14 2 546.668000 -1181.550000 -276.238000 1 1.000000 1 -3.000000
15 2 538.932000 -1175.910000 -273.894000 1 1.000000 1 -3.000000
16 2 531.941000 -1169.430000 -271.369000 1 1.000000 1 -3.000000
17 2 525.970000 -1161.940000 -269.155000 1 1.000000 1 -3.000000
18 2 521.979000 -1153.310000 -266.552000 1 1.000000 1 -3.000000
19 2 516.706000 -1145.070000 -265.873000 1 1.000000 1 -3.000000
20 2 511.982000 -1136.420000 -266.134000 1 1.000000 1 -3.000000
21 2 507.685000 -1127.500000 -266.682000 1 1.000000 2 -3.000000
22 1 541.960000 -1102.790000 -287.668000 1 1.000000 2 0.000000
23 3 550.384000 -1135.970000 -294.917000 1 1.000000 2 0.000000
24 2 583.340000 -1098.620000 -309.949000 1 1.000000 2 -3.000000
25 2 582.825000 -1107.460000 -314.519000 1 1.000000 1 -3.000000
26 2 583.143000 -1116.550000 -318.285000 1 1.000000 1 -3.000000
27 2 582.735000 -1126.040000 -320.845000 1 1.000000 1 -3.000000
28 2 581.967000 -1135.350000 -324.072000 1 1.000000 1 -3.000000
29 2 578.603000 -1144.360000 -326.268000 1 1.000000 1 -3.000000
30 2 574.472000 -1153.070000 -328.629000 1 1.000000 1 -3.000000
31 2 567.980000 -1160.280000 -330.725000 1 1.000000 1 -3.000000
32 2 560.581000 -1166.630000 -332.454000 1 1.000000 1 -3.000000
33 2 553.409000 -1171.950000 -336.710000 1 1.000000 1 -3.000000
34 2 545.496000 -1174.470000 -342.148000 1 1.000000 1 -3.000000
35 2 537.533000 -1177.930000 -346.689000 1 1.000000 1 -3.000000
36 2 529.502000 -1181.300000 -351.362000 1 1.000000 1 -3.000000
37 2 521.376000 -1183.410000 -356.640000 1 1.000000 1 -3.000000
38 2 513.473000 -1183.830000 -362.579000 1 1.000000 1 -3.000000
39 2 506.152000 -1183.060000 -369.301000 1 1.000000 1 -3.000000
40 2 498.417000 -1181.000000 -375.054000 1 1.000000 1 -3.000000
41 2 490.106000 -1177.030000 -378.692000 1 1.000000 1 -3.000000
42 2 482.490000 -1173.730000 -383.950000 1 1.000000 1 -3.000000
43 2 474.917000 -1170.630000 -389.611000 1 1.000000 1 -3.000000
44 2 466.299000 -1167.580000 -393.420000 1 1.000000 1 -3.000000
45 2 457.850000 -1166.960000 -398.516000 1 1.000000 1 -3.000000
46 2 449.118000 -1167.500000 -403.227000 1 1.000000 1 -3.000000
47 2 439.395000 -1168.290000 -405.225000 1 1.000000 1 -3.000000
48 2 429.610000 -1168.580000 -406.503000 1 1.000000 3 -3.000000
49 1 420.059000 -1209.260000 -384.537000 1 1.000000 3 0.000000
50 3 445.709000 -1195.440000 -365.132000 1 1.000000 3 0.000000
51 2 426.046000 -1241.180000 -350.262000 1 1.000000 3 -3.000000
52 2 429.872000 -1235.330000 -343.431000 1 1.000000 1 -3.000000
53 2 432.288000 -1229.970000 -335.519000 1 1.000000 1 -3.000000
54 2 435.326000 -1222.750000 -329.466000 1 1.000000 1 -3.000000
55 2 439.714000 -1215.030000 -325.090000 1 1.000000 1 -3.000000
56 2 443.364000 -1206.510000 -322.121000 1 1.000000 1 -3.000000
57 2 447.228000 -1197.510000 -320.551000 1 1.000000 1 -3.000000
58 2 452.367000 -1189.090000 -319.736000 1 1.000000 1 -3.000000
59 2 459.329000 -1182.190000 -319.754000 1 1.000000 1 -3.000000
60 2 466.038000 -1175.090000 -321.582000 1 1.000000 1 -3.000000
61 2 471.474000 -1166.960000 -323.660000 1 1.000000 1 -3.000000
62 2 475.946000 -1158.530000 -326.402000 1 1.000000 1 -3.000000
63 2 478.786000 -1149.290000 -328.085000 1 1.000000 1 -3.000000
64 2 482.603000 -1140.280000 -329.378000 1 1.000000 1 -3.000000
65 2 484.460000 -1130.780000 -331.216000 1 1.000000 1 -3.000000
66 2 487.695000 -1121.440000 -332.302000 1 1.000000 1 -3.000000
67 2 489.404000 -1111.770000 -333.449000 1 1.000000 1 -3.000000
68 2 489.565000 -1101.850000 -332.908000 1 1.000000 1 -3.000000
69 2 489.384000 -1092.040000 -333.451000 1 1.000000 1 -3.000000
70 2 490.386000 -1083.220000 -337.959000 1 1.000000 1 -3.000000
71 2 494.464000 -1075.070000 -341.792000 1 1.000000 1 -3.000000
72 2 498.864000 -1066.740000 -344.977000 1 1.000000 1 -3.000000
73 2 504.096000 -1060.230000 -350.279000 1 1.000000 1 -3.000000
74 2 510.610000 -1055.830000 -356.354000 1 1.000000 1 -3.000000
75 2 516.756000 -1049.980000 -361.533000 1 1.000000 4 -3.000000
76 1 550.010000 -1081.040000 -374.057000 1 1.000000 4 0.000000
77 3 523.206000 -1101.530000 -364.235000 1 1.000000 4 0.000000
78 2 566.713000 -1124.650000 -380.700000 1 1.000000 4 -3.000000
79 2 558.111000 -1128.900000 -378.069000 1 1.000000 1 -3.000000
80 2 550.136000 -1134.710000 -377.136000 1 1.000000 1 -3.000000
81 2 542.013000 -1140.460000 -376.356000 1 1.000000 1 -3.000000
82 2 532.769000 -1143.920000 -375.543000 1 1.000000 1 -3.000000
83 2 523.479000 -1144.560000 -372.031000 1 1.000000 1 -3.000000
84 2 513.805000 -1144.180000 -370.524000 1 1.000000 1 -3.000000
85 2 504.324000 -1142.980000 -368.041000 1 1.000000 1 -3.000000
86 2 494.690000 -1143.120000 -365.754000 1 1.000000 1 -3.000000
87 2 485.407000 -1144.520000 -362.659000 1 1.000000 1 -3.000000
88 2 475.839000 -1144.360000 -360.041000 1 1.000000 1 -3.000000
89 2 466.488000 -1145.790000 -357.092000 1 1.000000 1 -3.000000
90 2 456.605000 -1144.560000 -357.399000 1 1.000000 1 -3.000000
91 2 446.903000 -1142.530000 -358.181000 1 1.000000 1 -3.000000
92 2 437.352000 -1140.120000 -358.889000 1 1.000000 1 -3.000000
93 2 427.548000 -1138.580000 -359.260000 1 1.000000 1 -3.000000
94 2 418.492000 -1135.360000 -357.144000 1 1.000000 1 -3.000000
95 2 409.056000 -1132.620000 -358.308000 1 1.000000 1 -3.000000
96 2 400.118000 -1131.480000 -362.366000 1 1.000000 1 -3.000000
97 2 390.605000 -1129.140000 -363.441000 1 1.000000 1 -3.000000
98 2 380.680000 -1128.410000 -363.814000 1 1.000000 1 -3.000000
99 2 371.105000 -1130.810000 -364.852000 1 1.000000 1 -3.000000
100 2 362.704000 -1135.640000 -366.892000 1 1.000000 1 -3.000000
101 2 354.826000 -1141.750000 -367.397000 1 1.000000 1 -3.000000
102 2 347.552000 -1148.270000 -369.423000 1 1.000000 5 -3.000000
103 1 355.590000 -1180.980000 -336.418000 1 1.000000 5 0.000000
104 3 382.006000 -1158.590000 -331.874000 1 1.000000 5 0.000000
105 2 379.951000 -1199.910000 -300.739000 1 1.000000 5 -3.000000
106 2 386.606000 -1192.680000 -300.788000 1 1.000000 1 -3.000000
107 2 393.359000 -1185.610000 -298.787000 1 1.000000 1 -3.000000
108 2 399.189000 -1178.200000 -295.840000 1 1.000000 1 -3.000000
109 2 402.669000 -1168.940000 -294.657000 1 1.000000 1 -3.000000
110 2 404.540000 -1159.420000 -292.625000 1 1.000000 1 -3.000000
111 2 407.055000 -1150.040000 -290.830000 1 1.000000 1 -3.000000
112 2 409.100000 -1140.570000 -288.845000 1 1.000000 1 -3.000000
113 2 410.236000 -1130.850000 -287.535000 1 1.000000 1 -3.000000
114 2 409.502000 -1121.060000 -286.534000 1 1.000000 1 -3.000000
115 2 409.459000 -1111.350000 -285.227000 1 1.000000 1 -3.000000
116 2 410.498000 -1101.520000 -285.710000 1 1.000000 1 -3.000000
117 2 411.587000 -1091.750000 -284.693000 1 1.000000 1 -3.000000
118 2 414.428000 -1082.350000 -286.296000 1 1.000000 1 -3.000000
119 2 418.117000 -1073.460000 -288.478000 1 1.000000 1 -3.000000
120 2 419.809000 -1063.700000 -289.334000 1 1.000000 1 -3.000000
121 2 422.340000 -1054.260000 -290.996000 1 1.000000 1 -3.000000
122 2 425.784000 -1046.420000 -295.959000 1 1.000000 1 -3.000000
123 2 429.515000 -1039.410000 -301.973000 1 1.000000 1 -3.000000
124 2 432.694000 -1032.640000 -308.506000 1 1.000000 1 -3.000000
125 2 435.559000 -1025.550000 -314.811000 1 1.000000 1 -3.000000
126 2 437.380000 -1018.930000 -321.898000 1 1.000000 1 -3.000000
127 2 437.686000 -1013.580000 -330.235000 1 1.000000 1 -3.000000
128 2 437.847000 -1011.530000 -339.863000 1 1.000000 1 -3.000000
129 2 438.996000 -1011.480000 -349.684000 1 1.000000 6 -3.000000
130 1 393.355000 -1015.040000 -361.297000 1 1.000000 6 0.000000
131 3 393.222000 -1019.360000 -326.615000 1 1.000000 6 0.000000
132 2 347.842000 -1022.720000 -351.612000 1 1.000000 6 -3.000000
133 2 348.912000 -1020.810000 -341.947000 1 1.000000 1 -3.000000
134 2 349.411000 -1017.700000 -332.498000 1 1.000000 1 -3.000000
135 2 349.655000 -1016.130000 -322.646000 1 1.000000 1 -3.000000
136 2 351.612000 -1016.420000 -312.904000 1 1.000000 1 -3.000000
137 2 354.764000 -1015.970000 -303.525000 1 1.000000 1 -3.000000
138 2 358.327000 -1018.070000 -294.545000 1 1.000000 1 -3.000000
139 2 361.301000 -1022.950000 -286.496000 1 1.000000 1 -3.000000
140 2 363.593000 -1027.700000 -278.081000 1 1.000000 1 -3.000000
141 2 365.590000 -1030.580000 -268.759000 1 1.000000 1 -3.000000
142 2 368.984000 -1033.570000 -260.018000 1 1.000000 1 -3.000000
143 2 372.259000 -1035.650000 -250.969000 1 1.000000 1 -3.000000
144 2 376.237000 -1037.370000 -242.027000 1 1.000000 1 -3.000000
145 2 380.751000 -1038.090000 -233.199000 1 1.000000 1 -3.000000
146 2 384.501000 -1039.720000 -224.185000 1 1.000000 1 -3.000000
147 2 388.354000 -1041.960000 -215.384000 1 1.000000 1 -3.000000
148 2 390.947000 -1045.130000 -206.399000 1 1.000000 1 -3.000000
149 2 395.149000 -1047.800000 -197.816000 1 1.000000 1 -3.000000
150 2 398.366000 -1049.900000 -188.643000 1 1.000000 1 -3.000000
151 2 399.473000 -1053.670000 -179.461000 1 1.000000 1 -3.000000
152 2 398.922000 -1056.620000 -169.940000 1 1.000000 1 -3.000000
153 2 396.101000 -1061.010000 -161.526000 1 1.000000 1 -3.000000
154 2 392.613000 -1063.600000 -152.664000 1 1.000000 1 -3.000000
155 2 388.980000 -1067.860000 -144.500000 1 1.000000 1 -3.000000
156 2 385.568000 -1072.950000 -136.733000 1 1.000000 7 -3.000000
157 1 351.435000 -1097.860000 -157.793000 1 1.000000 7 0.000000
158 3 372.892000 -1089.730000 -184.265000 1 1.000000 7 0.000000
159 2 328.781000 -1114.750000 -195.548000 1 1.000000 7 -3.000000
160 2 336.619000 -1113.930000 -201.565000 1 1.000000 1 -3.000000
161 2 343.593000 -1115.810000 -208.356000 1 1.000000 1 -3.000000
162 2 351.722000 -1115.960000 -214.165000 1 1.000000 1 -3.000000
163 2 360.485000 -1115.340000 -218.742000 1 1.000000 1 -3.000000
164 2 369.420000 -1113.340000 -222.443000 1 1.000000 1 -3.000000
165 2 378.341000 -1109.900000 -224.831000 1 1.000000 1 -3.000000
166 2 387.858000 -1107.910000 -226.709000 1 1.000000 1 -3.000000
167 2 397.304000 -1106.370000 -229.205000 1 1.000000 1 -3.000000
168 2 406.916000 -1105.580000 -231.388000 1 1.000000 1 -3.000000
169 2 416.592000 -1104.670000 -233.366000 1 1.000000 1 -3.000000
170 2 426.104000 -1102.320000 -234.753000 1 1.000000 1 -3.000000
171 2 434.535000 -1097.810000 -237.423000 1 1.000000 1 -3.000000
172 2 442.937000 -1093.580000 -240.546000 1 1.000000 1 -3.000000
173 2 451.252000 -1088.830000 -242.803000 1 1.000000 1 -3.000000
174 2 459.449000 -1084.150000 -245.806000 1 1.000000 1 -3.000000
175 2 467.266000 -1078.150000 -247.205000 1 1.000000 1 -3.000000
176 2 475.133000 -1072.190000 -248.354000 1 1.000000 1 -3.000000
177 2 482.778000 -1066.900000 -251.689000 1 1.000000 1 -3.000000
178 2 489.333000 -1060.090000 -254.611000 1 1.000000 1 -3.000000
179 2 494.110000 -1052.750000 -259.188000 1 1.000000 1 -3.000000
180 2 496.749000 -1044.090000 -263.337000 1 1.000000 1 -3.000000
181 2 499.831000 -1034.910000 -265.360000 1 1.000000 1 -3.000000
182 2 500.711000 -1025.290000 -267.089000 1 1.000000 1 -3.000000
183 2 501.604000 -1015.680000 -268.909000 1 1.000000 8 -3.000000
184 1 459.987000 -1014.060000 -291.042000 1 1.000000 8 0.000000
185 3 453.895000 -1035.620000 -264.200000 1 1.000000 8 0.000000
186 2 414.899000 -1026.620000 -297.166000 1 1.000000 8 -3.000000
187 2 415.242000 -1027.650000 -287.397000 1 1.000000 1 -3.000000
188 2 412.022000 -1027.310000 -278.023000 1 1.000000 1 -3.000000
189 2 409.751000 -1027.400000 -268.305000 1 1.000000 1 -3.000000
190 2 409.599000 -1028.780000 -258.501000 1 1.000000 1 -3.000000
191 2 411.144000 -1033.350000 -249.802000 1 1.000000 1 -3.000000
192 2 415.329000 -1037.940000 -242.038000 1 1.000000 1 -3.000000
193 2 420.504000 -1043.030000 -235.285000 1 1.000000 1 -3.000000
194 2 425.667000 -1047.810000 -228.320000 1 1.000000 1 -3.000000
195 2 429.460000 -1053.450000 -221.084000 1 1.000000 1 -3.000000
196 2 433.060000 -1058.830000 -213.569000 1 1.000000 1 -3.000000
197 2 435.433000 -1063.330000 -205.008000 1 1.000000 1 -3.000000
198 2 439.359000 -1066.550000 -196.532000 1 1.000000 1 -3.000000
199 2 443.935000 -1069.480000 -188.197000 1 1.000000 1 -3.000000
200 2 449.929000 -1073.850000 -181.740000 1 1.000000 1 -3.000000
201 2 456.561000 -1080.010000 -177.719000 1 1.000000 1 -3.000000
202 2 461.370000 -1088.140000 -174.708000 1 1.000000 1 -3.000000
203 2 465.615000 -1096.200000 -170.959000 1 1.000000 1 -3.000000
204 2 470.075000 -1104.340000 -167.467000 1 1.000000 1 -3.000000
205 2 474.199000 -1113.240000 -166.309000 1 1.000000 1 -3.000000
206 2 477.756000 -1121.660000 -162.535000 1 1.000000 1 -3.000000
207 2 483.513000 -1129.020000 -159.296000 1 1.000000 1 -3.000000
208 2 488.466000 -1136.020000 -154.286000 1 1.000000 1 -3.000000
209 2 494.699000 -1141.560000 -148.976000 1 1.000000 1 -3.000000
210 2 501.709000 -1146.350000 -143.984000 1 1.000000 9 -3.000000
211 1 539.531000 -1120.700000 -155.695000 1 1.000000 9 0.000000
212 3 513.184000 -1097.880000 -158.637000 1 1.000000 9 0.000000
213 2 561.061000 -1081.260000 -170.044000 1 1.000000 9 -3.000000
214 2 552.976000 -1075.650000 -168.402000 1 1.000000 1 -3.000000
215 2 545.500000 -1069.580000 -166.047000 1 1.000000 1 -3.000000
216 2 538.340000 -1062.970000 -164.247000 1 1.000000 1 -3.000000
217 2 531.342000 -1056.870000 -160.841000 1 1.000000 1 -3.000000
218 2 523.867000 -1053.840000 -155.153000 1 1.000000 1 -3.000000
219 2 515.229000 -1053.170000 -150.296000 1 1.000000 1 -3.000000
220 2 505.570000 -1053.870000 -148.142000 1 1.000000 1 -3.000000
221 2 497.181000 -1056.500000 -143.600000 1 1.000000 1 -3.000000
222 2 491.072000 -1061.320000 -137.484000 1 1.000000 1 -3.000000
223 2 484.283000 -1065.440000 -131.678000 1 1.000000 1 -3.000000
224 2 478.317000 -1070.410000 -125.393000 1 1.000000 1 -3.000000
225 2 473.097000 -1074.210000 -117.899000 1 1.000000 1 -3.000000
226 2 468.088000 -1078.200000 -110.382000 1 1.000000 1 -3.000000
227 2 462.914000 -1080.130000 -102.090000 1 1.000000 1 -3.000000
228 2 458.821000 -1083.230000 -93.643500 1 1.000000 1 -3.000000
229 2 454.610000 -1086.340000 -85.269400 1 1.000000 1 -3.000000
230 2 451.116000 -1088.600000 -76.276100 1 1.000000 1 -3.000000
231 2 445.771000 -1091.220000 -68.384400 1 1.000000 1 -3.000000
232 2 440.809000 -1095.600000 -60.997200 1 1.000000 1 -3.000000
233 2 435.100000 -1100.310000 -54.480900 1 1.000000 1 -3.000000
234 2 428.694000 -1103.950000 -47.880000 1 1.000000 1 -3.000000
235 2 422.474000 -1108.170000 -41.452500 1 1.000000 1 -3.000000
236 2 415.610000 -1113.170000 -36.396700 1 1.000000 1 -3.000000
237 2 408.770000 -1116.680000 -30.322100 1 1.000000 10 -3.000000
238 1 435.954000 -1154.400000 -22.269700 1 1.000000 10 0.000000
239 3 459.093000 -1129.480000 -30.479500 1 1.000000 10 0.000000
240 2 477.445000 -1176.670000 -18.981900 1 1.000000 10 -3.000000
241 2 481.745000 -1168.140000 -16.498600 1 1.000000 1 -3.000000
242 2 486.540000 -1160.570000 -12.270800 1 1.000000 1 -3.000000
243 2 491.302000 -1152.810000 -8.553580 1 1.000000 1 -3.000000
244 2 495.852000 -1144.060000 -7.644130 1 1.000000 1 -3.000000
245 2 499.075000 -1134.910000 -9.792120 1 1.000000 1 -3.000000
246 2 501.553000 -1126.430000 -14.239000 1 1.000000 1 -3.000000
247 2 505.669000 -1118.710000 -18.871100 1 1.000000 1 -3.000000
248 2 508.618000 -1110.300000 -23.254500 1 1.000000 1 -3.000000
249 2 510.739000 -1102.400000 -28.809400 1 1.000000 1 -3.000000
250 2 512.480000 -1094.240000 -34.098100 1 1.000000 1 -3.000000
251 2 511.380000 -1086.830000 -40.590200 1 1.000000 1 -3.000000
252 2 509.024000 -1080.920000 -48.244800 1 1.000000 1 -3.000000
253 2 506.196000 -1075.130000 -55.726100 1 1.000000 1 -3.000000
254 2 504.955000 -1069.420000 -63.625800 1 1.000000 1 -3.000000
255 2 504.335000 -1061.890000 -70.035400 1 1.000000 1 -3.000000
256 2 504.924000 -1054.270000 -76.391900 1 1.000000 1 -3.000000
257 2 505.950000 -1045.690000 -81.230800 1 1.000000 1 -3.000000
258 2 508.648000 -1037.630000 -86.249200 1 1.000000 1 -3.000000
259 2 510.477000 -1029.460000 -91.437700 1 1.000000 1 -3.000000
260 2 512.048000 -1021.990000 -97.750100 1 1.000000 1 -3.000000
261 2 510.559000 -1014.020000 -103.394000 1 1.000000 1 -3.000000
262 2 508.163000 -1005.090000 -106.841000 1 1.000000 1 -3.000000
263 2 506.459000 -996.343000 -111.022000 1 1.000000 1 -3.000000
264 2 504.923000 -988.626000 -116.941000 1 1.000000 11 -3.000000
265 1 464.963000 -1005.740000 -135.227000 1 1.000000 11 0.000000
266 3 469.007000 -1024.500000 -105.950000 1 1.000000 11 0.000000
267 2 426.327000 -1032.760000 -134.321000 1 1.000000 11 -3.000000
268 2 426.398000 -1035.960000 -124.935000 1 1.000000 1 -3.000000
269 2 428.078000 -1041.710000 -117.113000 1 1.000000 1 -3.000000
270 2 429.515000 -1047.070000 -108.983000 1 1.000000 1 -3.000000
271 2 433.345000 -1049.830000 -100.276000 1 1.000000 1 -3.000000
272 2 437.290000 -1051.240000 -91.368000 1 1.000000 1 -3.000000
273 2 441.505000 -1052.290000 -82.401900 1 1.000000 1 -3.000000
274 2 447.033000 -1052.910000 -74.183200 1 1.000000 1 -3.000000
275 2 451.580000 -1053.510000 -65.437900 1 1.000000 1 -3.000000
276 2 456.195000 -1053.750000 -56.712000 1 1.000000 1 -3.000000
277 2 460.139000 -1053.220000 -47.680200 1 1.000000 1 -3.000000
278 2 464.252000 -1054.830000 -38.824700 1 1.000000 1 -3.000000
279 2 467.852000 -1057.810000 -30.142300 1 1.000000 1 -3.000000
280 2 469.415000 -1062.930000 -21.766100 1 1.000000 1 -3.000000
281 2 472.081000 -1068.520000 -14.014100 1 1.000000 1 -3.000000
282 2 474.513000 -1075.440000 -7.350860 1 1.000000 1 -3.000000
283 2 477.379000 -1083.010000 -1.635060 1 1.000000 1 -3.000000
284 2 480.134000 -1090.330000 4.410860 1 1.000000 1 -3.000000
285 2 483.053000 -1098.550000 9.046470 1 1.000000 1 -3.000000
286 2 485.776000 -1107.310000 12.689900 1 1.000000 1 -3.000000
287 2 488.494000 -1115.940000 16.793300 1 1.000000 1 -3.000000
288 2 493.238000 -1123.610000 20.685600 1 1.000000 1 -3.000000
289 2 498.982000 -1131.060000 23.712800 1 1.000000 1 -3.000000
290 2 506.189000 -1137.130000 26.880300 1 1.000000 1 -3.000000
291 2 512.006000 -1143.840000 31.194900 1 1.000000 12 -3.000000
292 1 543.063000 -1139.220000 -4.034490 1 1.000000 12 0.000000
293 3 526.153000 -1108.600000 -4.210000 1 1.000000 12 0.000000
294 2 563.503000 -1115.860000 -39.592500 1 1.000000 12 -3.000000
295 2 561.190000 -1106.600000 -37.063400 1 1.000000 1 -3.000000
296 2 556.326000 -1098.370000 -34.612700 1 1.000000 1 -3.000000
297 2 552.901000 -1089.340000 -32.617200 1 1.000000 1 -3.000000
298 2 551.034000 -1080.940000 -27.673900 1 1.000000 1 -3.000000
299 2 547.913000 -1073.490000 -21.998600 1 1.000000 1 -3.000000
300 2 543.392000 -1068.860000 -14.513100 1 1.000000 1 -3.000000
301 2 536.606000 -1065.300000 -8.351590 1 1.000000 1 -3.000000
302 2 529.876000 -1059.650000 -3.625080 1 1.000000 1 -3.000000
303 2 523.844000 -1053.380000 1.064850 1 1.000000 1 -3.000000
304 2 516.044000 -1048.560000 4.756890 1 1.000000 1 -3.000000
305 2 508.129000 -1044.430000 9.060680 1 1.000000 1 -3.000000
306 2 501.809000 -1040.860000 15.734800 1 1.000000 1 -3.000000
307 2 494.705000 -1037.670000 21.724700 1 1.000000 1 -3.000000
308 2 488.402000 -1036.040000 29.219000 1 1.000000 1 -3.000000
309 2 484.599000 -1035.570000 38.309900 1 1.000000 1 -3.000000
310 2 481.217000 -1036.490000 47.615100 1 1.000000 1 -3.000000
311 2 477.747000 -1038.910000 56.594400 1 1.000000 1 -3.000000
312 2 475.454000 -1042.710000 65.374300 1 1.000000 1 -3.000000
313 2 475.850000 -1046.970000 74.359900 1 1.000000 1 -3.000000
314 2 478.431000 -1050.750000 83.131600 1 1.000000 1 -3.000000
315 2 481.512000 -1052.970000 92.259400 1 1.000000 1 -3.000000
316 2 485.372000 -1051.970000 101.373000 1 1.000000 1 -3.000000
317 2 489.877000 -1052.160000 110.185000 1 1.000000 1 -3.000000
318 2 495.216000 -1053.510000 118.354000 1 1.000000 13 -3.000000
319 1 530.490000 -1025.970000 103.374000 1 1.000000 13 0.000000
320 3 502.767000 -1013.230000 86.209000 1 1.000000 13 0.000000
321 2 548.873000 -991.574000 76.851800 1 1.000000 13 -3.000000
322 2 540.103000 -986.868000 76.501600 1 1.000000 1 -3.000000
323 2 532.680000 -980.883000 78.698100 1 1.000000 1 -3.000000
324 2 524.456000 -975.705000 80.384700 1 1.000000 1 -3.000000
325 2 515.501000 -971.889000 82.274600 1 1.000000 1 -3.000000
326 2 506.161000 -968.722000 81.900500 1 1.000000 1 -3.000000
327 2 496.712000 -969.570000 79.117300 1 1.000000 1 -3.000000
328 2 487.205000 -972.391000 78.487800 1 1.000000 1 -3.000000
329 2 477.510000 -973.868000 77.692900 1 1.000000 1 -3.000000
330 2 467.646000 -974.135000 76.883200 1 1.000000 1 -3.000000
331 2 457.750000 -974.314000 76.309900 1 1.000000 1 -3.000000
332 2 447.925000 -972.816000 76.312400 1 1.000000 1 -3.000000
333 2 438.049000 -972.170000 75.811000 1 1.000000 1 -3.000000
334 2 428.330000 -972.453000 77.743300 1 1.000000 1 -3.000000
335 2 418.641000 -970.838000 77.403500 1 1.000000 1 -3.000000
336 2 409.571000 -967.878000 74.875500 1 1.000000 1 -3.000000
337 2 400.569000 -966.661000 70.859700 1 1.000000 1 -3.000000
338 2 391.040000 -964.897000 68.776200 1 1.000000 1 -3.000000
339 2 381.188000 -963.817000 68.446100 1 1.000000 1 -3.000000
340 2 371.540000 -962.430000 70.299000 1 1.000000 1 -3.000000
341 2 361.763000 -961.349000 71.075500 1 1.000000 1 -3.000000
342 2 352.756000 -961.947000 75.291800 1 1.000000 1 -3.000000
343 2 344.908000 -963.808000 80.838100 1 1.000000 1 -3.000000
344 2 337.351000 -965.926000 86.809300 1 1.000000 1 -3.000000
345 2 328.953000 -967.219000 91.784700 1 1.000000 14 -3.000000
346 1 349.683000 -988.612000 128.372000 1 1.000000 14 0.000000
347 3 376.399000 -973.201000 111.894000 1 1.000000 14 0.000000
348 2 387.025000 -1001.610000 154.061000 1 1.000000 14 -3.000000
349 2 394.141000 -995.430000 150.856000 1 1.000000 1 -3.000000
350 2 400.046000 -988.060000 148.141000 1 1.000000 1 -3.000000
351 2 405.802000 -980.631000 144.969000 1 1.000000 1 -3.000000
352 2 409.850000 -973.793000 139.068000 1 1.000000 1 -3.000000
353 2 412.362000 -967.353000 131.975000 1 1.000000 1 -3.000000
354 2 414.290000 -958.790000 127.493000 1 1.000000 1 -3.000000
355 2 414.505000 -949.908000 123.170000 1 1.000000 1 -3.000000
356 2 415.193000 -940.756000 119.397000 1 1.000000 1 -3.000000
357 2 415.346000 -931.349000 116.303000 1 1.000000 1 -3.000000
358 2 414.580000 -922.017000 113.233000 1 1.000000 1 -3.000000
359 2 412.731000 -913.168000 109.086000 1 1.000000 1 -3.000000
360 2 412.392000 -903.846000 105.797000 1 1.000000 1 -3.000000
361 2 413.213000 -894.063000 106.365000 1 1.000000 1 -3.000000
362 2 414.660000 -884.348000 105.586000 1 1.000000 1 -3.000000
363 2 417.750000 -875.056000 107.169000 1 1.000000 1 -3.000000
364 2 422.476000 -866.471000 106.089000 1 1.000000 1 -3.000000
365 2 427.998000 -858.333000 105.720000 1 1.000000 1 -3.000000
366 2 435.379000 -851.519000 106.074000 1 1.000000 1 -3.000000
367 2 443.565000 -846.003000 105.582000 1 1.000000 1 -3.000000
368 2 449.086000 -838.296000 102.812000 1 1.000000 1 -3.000000
369 2 454.563000 -831.338000 98.392900 1 1.000000 1 -3.000000
370 2 458.361000 -824.524000 92.265600 1 1.000000 1 -3.000000
371 2 463.627000 -818.468000 86.419200 1 1.000000 1 -3.000000
372 2 469.096000 -813.730000 79.703400 1 1.000000 15 -3.000000
373 1 469.160000 -843.533000 43.153200 1 1.000000 15 0.000000
374 3 441.911000 -854.452000 62.236700 1 1.000000 15 0.000000
375 2 451.472000 -879.153000 17.710400 1 1.000000 15 -3.000000
376 2 442.530000 -877.927000 21.719400 1 1.000000 1 -3.000000
377 2 432.971000 -877.199000 23.987600 1 1.000000 1 -3.000000
378 2 423.771000 -876.358000 27.603700 1 1.000000 1 -3.000000
379 2 414.987000 -875.365000 32.062700 1 1.000000 1 -3.000000
380 2 408.015000 -872.081000 38.219600 1 1.000000 1 -3.000000
381 2 402.549000 -868.039000 45.434500 1 1.000000 1 -3.000000
382 2 395.746000 -863.151000 50.567800 1 1.000000 1 -3.000000
383 2 388.102000 -859.641000 55.757700 1 1.000000 1 -3.000000
384 2 381.085000 -854.583000 60.502700 1 1.000000 1 -3.000000
385 2 376.352000 -847.629000 65.728700 1 1.000000 1 -3.000000
386 2 371.409000 -840.196000 69.956300 1 1.000000 1 -3.000000
387 2 366.874000 -832.607000 74.308700 1 1.000000 1 -3.000000
388 2 360.103000 -826.168000 77.487700 1 1.000000 1 -3.000000
389 2 353.269000 -820.760000 82.045800 1 1.000000 1 -3.000000
390 2 347.889000 -813.385000 85.747300 1 1.000000 1 -3.000000
391 2 344.677000 -806.961000 92.518000 1 1.000000 1 -3.000000
392 2 341.827000 -800.915000 99.919000 1 1.000000 1 -3.000000
393 2 337.469000 -795.584000 107.003000 1 1.000000 1 -3.000000
394 2 334.174000 -791.325000 115.326000 1 1.000000 1 -3.000000
395 2 328.463000 -786.913000 122.047000 1 1.000000 1 -3.000000
396 2 320.815000 -783.572000 127.289000 1 1.000000 1 -3.000000
397 2 313.994000 -782.121000 134.253000 1 1.000000 1 -3.000000
398 2 306.716000 -781.478000 141.005000 1 1.000000 1 -3.000000
399 2 298.829000 -780.612000 146.822000 1 1.000000 16 -3.000000
400 1 271.618000 -814.534000 128.625000 1 1.000000 16 0.000000
401 3 303.642000 -823.028000 117.264000 1 1.000000 16 0.000000
402 2 264.481000 -854.979000 105.368000 1 1.000000 16 -3.000000
403 2 273.878000 -857.574000 104.052000 1 1.000000 1 -3.000000
404 2 283.508000 -859.859000 103.154000 1 1.000000 1 -3.000000
405 2 292.876000 -862.784000 104.537000 1 1.000000 1 -3.000000
406 2 302.139000 -865.590000 107.165000 1 1.000000 1 -3.000000
407 2 311.133000 -868.241000 110.342000 1 1.000000 1 -3.000000
408 2 320.459000 -868.184000 113.399000 1 1.000000 1 -3.000000
409 2 330.026000 -868.201000 115.777000 1 1.000000 1 -3.000000
410 2 339.399000 -867.797000 118.716000 1 1.000000 1 -3.000000
411 2 348.420000 -865.573000 121.994000 1 1.000000 1 -3.000000
412 2 356.512000 -861.959000 126.333000 1 1.000000 1 -3.000000
413 2 364.502000 -857.906000 130.631000 1 1.000000 1 -3.000000
414 2 372.793000 -853.770000 134.346000 1 1.000000 1 -3.000000
415 2 381.548000 -850.299000 137.379000 1 1.000000 1 -3.000000
416 2 391.276000 -849.935000 139.023000 1 1.000000 1 -3.000000
417 2 400.465000 -849.243000 142.801000 1 1.000000 1 -3.000000
418 2 408.509000 -846.519000 147.924000 1 1.000000 1 -3.000000
419 2 416.178000 -842.830000 153.005000 1 1.000000 1 -3.000000
420 2 425.213000 -840.784000 156.443000 1 1.000000 1 -3.000000
421 2 434.795000 -841.019000 158.449000 1 1.000000 1 -3.000000
422 2 444.328000 -842.447000 160.616000 1 1.000000 1 -3.000000
423 2 453.790000 -841.566000 163.499000 1 1.000000 1 -3.000000
424 2 462.560000 -842.252000 167.922000 1 1.000000 1 -3.000000
425 2 470.809000 -840.493000 173.096000 1 1.000000 1 -3.000000
426 2 478.731000 -838.438000 178.732000 1 1.000000 17 -3.000000
427 1 469.594000 -797.282000 199.933000 1 1.000000 17 0.000000
428 3 438.125000 -807.725000 188.928000 1 1.000000 17 0.000000
429 2 441.332000 -761.869000 212.952000 1 1.000000 17 -3.000000
430 2 433.765000 -768.055000 214.104000 1 1.000000 1 -3.000000
431 2 425.590000 -773.619000 213.613000 1 1.000000 1 -3.000000
432 2 416.863000 -778.367000 213.956000 1 1.000000 1 -3.000000
433 2 411.557000 -786.703000 214.505000 1 1.000000 1 -3.000000
434 2 405.922000 -794.075000 217.805000 1 1.000000 1 -3.000000
435 2 399.569000 -800.308000 222.076000 1 1.000000 1 -3.000000
436 2 392.131000 -805.180000 226.474000 1 1.000000 1 -3.000000
437 2 383.864000 -809.340000 229.963000 1 1.000000 1 -3.000000
438 2 375.994000 -814.583000 233.194000 1 1.000000 1 -3.000000
439 2 367.454000 -818.163000 236.472000 1 1.000000 1 -3.000000
440 2 358.910000 -821.462000 240.352000 1 1.000000 1 -3.000000
441 2 350.598000 -824.253000 244.884000 1 1.000000 1 -3.000000
442 2 342.230000 -826.814000 249.600000 1 1.000000 1 -3.000000
443 2 333.969000 -830.612000 253.473000 1 1.000000 1 -3.000000
444 2 325.031000 -834.792000 254.786000 1 1.000000 1 -3.000000
445 2 316.613000 -839.086000 257.608000 1 1.000000 1 -3.000000
446 2 309.065000 -843.384000 262.404000 1 1.000000 1 -3.000000
447 2 301.379000 -847.609000 266.966000 1 1.000000 1 -3.000000
448 2 292.886000 -851.581000 269.955000 1 1.000000 1 -3.000000
449 2 284.127000 -855.120000 272.937000 1 1.000000 1 -3.000000
450 2 276.168000 -859.206000 277.225000 1 1.000000 1 -3.000000
451 2 267.445000 -861.931000 281.290000 1 1.000000 1 -3.000000
452 2 261.096000 -866.983000 287.075000 1 1.000000 1 -3.000000
453 2 255.091000 -872.976000 292.224000 1 1.000000 18 -3.000000
454 1 281.910000 -888.644000 327.731000 1 1.000000 18 0.000000
455 3 301.250000 -862.794000 313.956000 1 1.000000 18 0.000000
456 2 320.154000 -887.773000 355.366000 1 1.000000 18 -3.000000
457 2 325.761000 -880.040000 353.015000 1 1.000000 1 -3.000000
458 2 328.965000 -871.245000 350.098000 1 1.000000 1 -3.000000
459 2 331.769000 -862.227000 347.006000 1 1.000000 1 -3.000000
460 2 334.649000 -854.392000 341.688000 1 1.000000 1 -3.000000
461 2 334.673000 -845.806000 336.841000 1 1.000000 1 -3.000000
462 2 335.653000 -838.302000 330.347000 1 1.000000 1 -3.000000
463 2 332.989000 -832.382000 322.903000 1 1.000000 1 -3.000000
464 2 332.129000 -824.726000 316.718000 1 1.000000 1 -3.000000
465 2 332.460000 -816.254000 311.766000 1 1.000000 1 -3.000000