LAMMPS data file

4067 atoms
4067 ellipsoids
4516 bonds
8882 angles
0 dihedrals

3 atom types
5 bond types
12 angle types
0 dihedral types

-4631.092947 4670.465898 xlo xhi
-4631.092947 4670.465898 ylo yhi
-4631.092947 4670.465898 zlo zhi

Masses

1 196016.000000
2 1950.000000
3 19500.000000

Atoms

1 2 104.650000 -69.932600 515.130000 1 1.000000 1 -3.000000
2 2 114.505000 -70.115000 514.649000 1 1.000000 1 -3.000000
3 2 124.242000 -71.487800 513.474000 1 1.000000 1 -3.000000
4 2 134.136000 -71.507300 513.296000 1 1.000000 1 -3.000000
5 2 143.955000 -72.097500 513.515000 1 1.000000 1 -3.000000
6 2 153.808000 -72.179000 512.612000 1 1.000000 1 -3.000000
7 2 163.564000 -70.787400 511.341000 1 1.000000 1 -3.000000
8 2 173.223000 -69.529200 509.473000 1 1.000000 1 -3.000000
9 2 181.927000 -70.141900 504.601000 1 1.000000 1 -3.000000
10 2 191.035000 -71.682700 500.839000 1 1.000000 1 -3.000000
11 2 199.334000 -75.564000 497.215000 1 1.000000 1 -3.000000
12 2 207.189000 -80.691500 494.251000 1 1.000000 1 -3.000000
13 2 215.802000 -84.737600 491.522000 1 1.000000 1 -3.000000
14 2 223.840000 -90.167000 489.507000 1 1.000000 1 -3.000000
15 2 231.311000 -96.226100 487.231000 1 1.000000 1 -3.000000
16 2 238.993000 -102.456000 486.221000 1 1.000000 1 -3.000000
17 2 246.111000 -109.336000 486.845000 1 1.000000 1 -3.000000
18 2 254.292000 -114.819000 487.722000 1 1.000000 1 -3.000000
19 2 262.682000 -119.624000 489.915000 1 1.000000 1 -3.000000
20 2 270.392000 -123.706000 494.738000 1 1.000000 1 -3.000000
21 2 276.948000 -128.504000 500.376000 1 1.000000 2 -3.000000
22 1 307.226000 -109.280000 469.698000 1 1.000000 2 0.000000
23 3 281.200000 -86.040400 470.867000 1 1.000000 2 0.000000
24 2 322.871000 -74.315900 442.167000 1 1.000000 2 -3.000000
25 2 315.639000 -68.371900 445.502000 1 1.000000 1 -3.000000
26 2 308.922000 -61.299900 447.158000 1 1.000000 1 -3.000000
27 2 301.551000 -54.723300 447.069000 1 1.000000 1 -3.000000
28 2 293.508000 -49.311400 449.449000 1 1.000000 1 -3.000000
29 2 285.337000 -44.344400 452.061000 1 1.000000 1 -3.000000
30 2 277.633000 -38.378100 453.537000 1 1.000000 1 -3.000000
31 2 270.490000 -32.130300 456.222000 1 1.000000 1 -3.000000
32 2 264.843000 -24.698700 459.527000 1 1.000000 1 -3.000000
33 2 261.018000 -15.689900 460.732000 1 1.000000 1 -3.000000
34 2 258.908000 -6.271100 462.829000 1 1.000000 1 -3.000000
35 2 256.515000 2.440480 466.855000 1 1.000000 1 -3.000000
36 2 254.097000 10.322800 472.486000 1 1.000000 1 -3.000000
37 2 250.057000 17.314800 478.295000 1 1.000000 1 -3.000000
38 2 248.668000 26.287300 482.413000 1 1.000000 1 -3.000000
39 2 246.185000 35.480500 485.040000 1 1.000000 1 -3.000000
40 2 245.433000 45.109000 487.310000 1 1.000000 1 -3.000000
41 2 243.600000 54.573500 489.264000 1 1.000000 1 -3.000000
42 2 241.748000 64.044700 491.826000 1 1.000000 1 -3.000000
43 2 237.321000 72.671000 494.097000 1 1.000000 1 -3.000000
44 2 234.195000 80.868100 498.808000 1 1.000000 1 -3.000000
45 2 232.506000 88.521600 504.957000 1 1.000000 1 -3.000000
46 2 230.630000 96.224900 510.644000 1 1.000000 1 -3.000000
47 2 228.674000 103.593000 516.954000 1 1.000000 1 -3.000000
48 2 228.196000 109.717000 524.740000 1 1.000000 3 -3.000000
49 1 254.892000 91.171200 558.907000 1 1.000000 3 0.000000
50 3 263.748000 72.431200 530.648000 1 1.000000 3 0.000000
51 2 285.887000 60.007100 576.055000 1 1.000000 3 -3.000000
52 2 289.132000 54.314400 568.590000 1 1.000000 1 -3.000000
53 2 292.461000 51.112100 559.818000 1 1.000000 1 -3.000000
54 2 295.876000 47.045700 551.428000 1 1.000000 1 -3.000000
55 2 297.632000 45.854900 541.712000 1 1.000000 1 -3.000000
56 2 298.060000 44.978400 531.949000 1 1.000000 1 -3.000000
57 2 297.836000 44.008300 522.134000 1 1.000000 1 -3.000000
58 2 294.815000 44.027800 512.688000 1 1.000000 1 -3.000000
59 2 290.941000 45.811400 503.817000 1 1.000000 1 -3.000000
60 2 289.072000 49.457400 494.799000 1 1.000000 1 -3.000000
61 2 286.725000 53.335500 485.918000 1 1.000000 1 -3.000000
62 2 285.052000 59.806200 478.605000 1 1.000000 1 -3.000000
63 2 282.542000 66.360700 471.605000 1 1.000000 1 -3.000000
64 2 280.276000 74.047900 465.855000 1 1.000000 1 -3.000000
65 2 277.643000 83.434000 463.788000 1 1.000000 1 -3.000000
66 2 275.260000 92.626100 461.075000 1 1.000000 1 -3.000000
67 2 275.347000 102.485000 460.222000 1 1.000000 1 -3.000000
68 2 276.945000 112.203000 459.545000 1 1.000000 1 -3.000000
69 2 280.584000 121.384000 458.315000 1 1.000000 1 -3.000000
70 2 286.549000 128.880000 460.912000 1 1.000000 1 -3.000000
71 2 290.998000 136.940000 464.551000 1 1.000000 1 -3.000000
72 2 293.178000 144.364000 470.840000 1 1.000000 1 -3.000000
73 2 297.416000 149.554000 478.162000 1 1.000000 1 -3.000000
74 2 299.775000 154.392000 486.428000 1 1.000000 1 -3.000000
75 2 300.587000 158.729000 495.248000 1 1.000000 4 -3.000000
76 1 259.201000 156.653000 517.791000 1 1.000000 4 0.000000
77 3 256.444000 131.436000 493.634000 1 1.000000 4 0.000000
78 2 215.115000 140.920000 523.793000 1 1.000000 4 -3.000000
79 2 216.286000 132.199000 519.090000 1 1.000000 1 -3.000000
80 2 215.735000 123.417000 514.622000 1 1.000000 1 -3.000000
81 2 217.060000 115.526000 508.821000 1 1.000000 1 -3.000000
82 2 218.804000 108.754000 501.760000 1 1.000000 1 -3.000000
83 2 221.807000 103.107000 494.132000 1 1.000000 1 -3.000000
84 2 225.050000 98.765400 485.927000 1 1.000000 1 -3.000000
85 2 228.811000 96.030300 477.160000 1 1.000000 1 -3.000000
86 2 229.414000 92.826300 467.785000 1 1.000000 1 -3.000000
87 2 230.986000 91.222600 458.113000 1 1.000000 1 -3.000000
88 2 231.806000 88.224300 448.752000 1 1.000000 1 -3.000000
89 2 232.277000 88.418000 438.824000 1 1.000000 1 -3.000000
90 2 231.761000 89.423400 428.967000 1 1.000000 1 -3.000000
91 2 230.502000 92.363600 419.465000 1 1.000000 1 -3.000000
92 2 230.769000 94.379500 409.805000 1 1.000000 1 -3.000000
93 2 232.059000 97.266400 400.465000 1 1.000000 1 -3.000000
94 2 232.114000 97.367000 390.567000 1 1.000000 1 -3.000000
95 2 232.855000 96.410700 380.707000 1 1.000000 1 -3.000000
96 2 235.855000 94.937100 371.467000 1 1.000000 1 -3.000000
97 2 235.928000 92.393600 361.945000 1 1.000000 1 -3.000000
98 2 233.133000 91.004900 352.586000 1 1.000000 1 -3.000000
99 2 230.031000 87.739000 343.746000 1 1.000000 1 -3.000000
100 2 226.057000 84.246400 335.385000 1 1.000000 1 -3.000000
101 2 221.078000 80.434500 327.732000 1 1.000000 1 -3.000000
102 2 215.224000 75.435500 321.490000 1 1.000000 5 -3.000000
103 1 196.896000 40.197600 346.903000 1 1.000000 5 0.000000
104 3 202.038000 65.447600 370.587000 1 1.000000 5 0.000000
105 2 181.879000 20.414100 387.036000 1 1.000000 5 -3.000000
106 2 182.942000 27.916500 393.327000 1 1.000000 1 -3.000000
107 2 182.730000 36.320200 398.617000 1 1.000000 1 -3.000000
108 2 181.319000 44.326000 404.271000 1 1.000000 1 -3.000000
109 2 180.960000 52.695600 409.524000 1 1.000000 1 -3.000000
110 2 182.038000 62.299800 411.599000 1 1.000000 1 -3.000000
111 2 182.291000 72.225700 412.359000 1 1.000000 1 -3.000000
112 2 184.330000 81.370400 409.334000 1 1.000000 1 -3.000000
113 2 184.984000 90.446400 405.550000 1 1.000000 1 -3.000000
114 2 184.382000 99.341200 401.384000 1 1.000000 1 -3.000000
115 2 182.606000 108.496000 397.906000 1 1.000000 1 -3.000000
116 2 180.430000 118.123000 397.238000 1 1.000000 1 -3.000000
117 2 179.272000 127.871000 395.899000 1 1.000000 1 -3.000000
118 2 177.126000 137.480000 396.418000 1 1.000000 1 -3.000000
119 2 172.059000 145.885000 397.245000 1 1.000000 1 -3.000000
120 2 166.615000 154.122000 397.923000 1 1.000000 1 -3.000000
121 2 160.929000 162.095000 399.022000 1 1.000000 1 -3.000000
122 2 154.689000 169.796000 399.226000 1 1.000000 1 -3.000000
123 2 149.807000 177.992000 396.509000 1 1.000000 1 -3.000000
124 2 148.854000 186.872000 392.216000 1 1.000000 1 -3.000000
125 2 149.180000 195.117000 386.778000 1 1.000000 1 -3.000000
126 2 150.954000 202.442000 380.467000 1 1.000000 1 -3.000000
127 2 155.443000 210.049000 376.030000 1 1.000000 1 -3.000000
128 2 158.667000 218.976000 373.503000 1 1.000000 1 -3.000000
129 2 162.591000 227.901000 371.525000 1 1.000000 6 -3.000000
130 1 202.308000 229.289000 396.917000 1 1.000000 6 0.000000
131 3 189.998000 197.028000 403.118000 1 1.000000 6 0.000000
132 2 234.966000 210.541000 425.348000 1 1.000000 6 -3.000000
133 2 232.465000 201.246000 427.746000 1 1.000000 1 -3.000000
134 2 228.545000 192.467000 430.264000 1 1.000000 1 -3.000000
135 2 222.606000 184.506000 430.929000 1 1.000000 1 -3.000000
136 2 217.400000 176.074000 431.457000 1 1.000000 1 -3.000000
137 2 210.925000 168.979000 429.069000 1 1.000000 1 -3.000000
138 2 204.270000 161.991000 426.788000 1 1.000000 1 -3.000000
139 2 196.892000 155.476000 425.533000 1 1.000000 1 -3.000000
140 2 188.310000 150.576000 424.789000 1 1.000000 1 -3.000000
141 2 180.228000 145.113000 423.594000 1 1.000000 1 -3.000000
142 2 173.090000 138.189000 422.844000 1 1.000000 1 -3.000000
143 2 165.479000 131.873000 422.357000 1 1.000000 1 -3.000000
144 2 156.608000 127.895000 420.493000 1 1.000000 1 -3.000000
145 2 147.968000 122.946000 420.180000 1 1.000000 1 -3.000000
146 2 140.501000 116.818000 418.129000 1 1.000000 1 -3.000000
147 2 132.342000 111.458000 416.364000 1 1.000000 1 -3.000000
148 2 125.604000 104.569000 414.223000 1 1.000000 1 -3.000000
149 2 117.897000 99.057500 411.443000 1 1.000000 1 -3.000000
150 2 109.847000 94.586600 407.938000 1 1.000000 1 -3.000000
151 2 102.055000 89.641300 404.489000 1 1.000000 1 -3.000000
152 2 93.245100 86.937500 400.881000 1 1.000000 1 -3.000000
153 2 85.469900 85.446200 394.851000 1 1.000000 1 -3.000000
154 2 78.395700 85.733500 388.003000 1 1.000000 1 -3.000000
155 2 70.081900 86.800800 382.662000 1 1.000000 1 -3.000000
156 2 62.268700 90.504700 377.829000 1 1.000000 7 -3.000000
157 1 75.473200 132.036000 359.869000 1 1.000000 7 0.000000
158 3 105.865000 117.026000 368.640000 1 1.000000 7 0.000000
159 2 107.569000 163.391000 345.299000 1 1.000000 7 -3.000000
160 2 115.302000 157.675000 347.579000 1 1.000000 1 -3.000000
161 2 123.000000 151.663000 348.922000 1 1.000000 1 -3.000000
162 2 130.811000 145.720000 347.683000 1 1.000000 1 -3.000000
163 2 136.847000 137.887000 346.317000 1 1.000000 1 -3.000000
164 2 141.375000 129.054000 345.462000 1 1.000000 1 -3.000000
165 2 145.333000 120.001000 345.935000 1 1.000000 1 -3.000000
166 2 147.254000 110.266000 345.965000 1 1.000000 1 -3.000000
167 2 147.756000 100.575000 343.557000 1 1.000000 1 -3.000000
168 2 148.202000 91.115300 340.589000 1 1.000000 1 -3.000000
169 2 148.289000 81.707600 337.365000 1 1.000000 1 -3.000000
170 2 147.793000 73.663500 331.612000 1 1.000000 1 -3.000000
171 2 148.653000 65.670500 325.706000 1 1.000000 1 -3.000000
172 2 148.968000 57.452900 320.063000 1 1.000000 1 -3.000000
173 2 146.867000 48.927800 315.362000 1 1.000000 1 -3.000000
174 2 144.575000 40.918500 310.010000 1 1.000000 1 -3.000000
175 2 142.136000 33.202900 304.353000 1 1.000000 1 -3.000000
176 2 138.596000 25.796000 298.703000 1 1.000000 1 -3.000000
177 2 134.776000 19.824300 291.776000 1 1.000000 1 -3.000000
178 2 130.897000 12.807200 286.185000 1 1.000000 1 -3.000000
179 2 129.687000 6.018980 279.117000 1 1.000000 1 -3.000000
180 2 130.190000 0.251103 271.095000 1 1.000000 1 -3.000000
181 2 132.465000 -4.676400 262.716000 1 1.000000 1 -3.000000
182 2 134.882000 -8.955600 254.178000 1 1.000000 1 -3.000000
183 2 135.257000 -14.342600 245.954000 1 1.000000 8 -3.000000
184 1 178.419000 2.838680 237.913000 1 1.000000 8 0.000000
185 3 174.271000 7.533770 272.313000 1 1.000000 8 0.000000
186 2 218.845000 23.335200 250.984000 1 1.000000 8 -3.000000
187 2 217.048000 20.685000 260.353000 1 1.000000 1 -3.000000
188 2 219.023000 17.620500 269.519000 1 1.000000 1 -3.000000
189 2 218.996000 15.268200 279.153000 1 1.000000 1 -3.000000
190 2 216.219000 11.079300 287.666000 1 1.000000 1 -3.000000
191 2 212.738000 6.286530 295.671000 1 1.000000 1 -3.000000
192 2 208.719000 2.278940 303.856000 1 1.000000 1 -3.000000
193 2 206.015000 -2.628310 312.092000 1 1.000000 1 -3.000000
194 2 202.955000 -7.333690 320.301000 1 1.000000 1 -3.000000
195 2 199.504000 -14.686300 325.915000 1 1.000000 1 -3.000000
196 2 196.179000 -22.460600 331.149000 1 1.000000 1 -3.000000
197 2 193.762000 -31.319200 334.997000 1 1.000000 1 -3.000000
198 2 189.835000 -40.271100 336.764000 1 1.000000 1 -3.000000
199 2 185.762000 -48.988700 339.260000 1 1.000000 1 -3.000000
200 2 181.443000 -57.661800 341.497000 1 1.000000 1 -3.000000
201 2 176.285000 -65.411100 344.656000 1 1.000000 1 -3.000000
202 2 169.999000 -71.600900 349.215000 1 1.000000 1 -3.000000
203 2 163.163000 -76.310400 354.675000 1 1.000000 1 -3.000000
204 2 155.493000 -81.430700 358.172000 1 1.000000 1 -3.000000
205 2 147.556000 -86.010000 362.118000 1 1.000000 1 -3.000000
206 2 139.595000 -90.967100 365.456000 1 1.000000 1 -3.000000
207 2 131.350000 -96.103500 367.392000 1 1.000000 1 -3.000000
208 2 122.378000 -100.457000 367.816000 1 1.000000 1 -3.000000
209 2 113.310000 -104.092000 369.544000 1 1.000000 1 -3.000000
210 2 103.527000 -105.136000 370.388000 1 1.000000 9 -3.000000
211 1 87.883000 -92.105900 327.898000 1 1.000000 9 0.000000
212 3 122.610000 -93.697400 323.407000 1 1.000000 9 0.000000
213 2 93.520100 -81.366500 282.323000 1 1.000000 9 -3.000000
214 2 102.857000 -84.642200 282.758000 1 1.000000 1 -3.000000
215 2 111.455000 -88.494900 279.907000 1 1.000000 1 -3.000000
216 2 120.554000 -92.151200 279.209000 1 1.000000 1 -3.000000
217 2 129.755000 -96.017400 279.005000 1 1.000000 1 -3.000000
218 2 138.453000 -99.050400 282.567000 1 1.000000 1 -3.000000
219 2 146.692000 -99.411500 287.951000 1 1.000000 1 -3.000000
220 2 155.035000 -98.741800 293.184000 1 1.000000 1 -3.000000
221 2 163.835000 -98.049200 297.688000 1 1.000000 1 -3.000000
222 2 172.294000 -95.326800 301.998000 1 1.000000 1 -3.000000
223 2 179.874000 -91.180200 306.843000 1 1.000000 1 -3.000000
224 2 187.174000 -86.679300 311.833000 1 1.000000 1 -3.000000
225 2 193.990000 -82.810000 317.932000 1 1.000000 1 -3.000000
226 2 200.967000 -80.096900 324.360000 1 1.000000 1 -3.000000
227 2 204.889000 -76.182700 332.575000 1 1.000000 1 -3.000000
228 2 208.395000 -72.089900 341.005000 1 1.000000 1 -3.000000
229 2 214.053000 -68.675000 348.322000 1 1.000000 1 -3.000000
230 2 220.763000 -65.593000 354.969000 1 1.000000 1 -3.000000
231 2 226.205000 -61.488100 362.101000 1 1.000000 1 -3.000000
232 2 232.051000 -58.212300 369.410000 1 1.000000 1 -3.000000
233 2 239.371000 -56.077400 375.633000 1 1.000000 1 -3.000000
234 2 247.173000 -54.395900 381.495000 1 1.000000 1 -3.000000
235 2 254.028000 -53.690800 388.692000 1 1.000000 1 -3.000000
236 2 258.352000 -52.653500 397.564000 1 1.000000 1 -3.000000
237 2 261.458000 -51.043700 406.803000 1 1.000000 10 -3.000000
238 1 240.236000 -84.706500 432.153000 1 1.000000 10 0.000000
239 3 231.382000 -92.783800 399.160000 1 1.000000 10 0.000000
240 2 212.409000 -122.387000 437.443000 1 1.000000 10 -3.000000
241 2 213.607000 -126.660000 428.564000 1 1.000000 1 -3.000000
242 2 214.480000 -131.993000 420.343000 1 1.000000 1 -3.000000
243 2 214.956000 -134.095000 410.714000 1 1.000000 1 -3.000000
244 2 216.106000 -135.030000 400.976000 1 1.000000 1 -3.000000
245 2 220.006000 -135.346000 391.853000 1 1.000000 1 -3.000000
246 2 225.102000 -133.954000 383.565000 1 1.000000 1 -3.000000
247 2 229.917000 -132.800000 375.007000 1 1.000000 1 -3.000000
248 2 233.822000 -132.619000 365.809000 1 1.000000 1 -3.000000
249 2 237.217000 -132.082000 356.573000 1 1.000000 1 -3.000000
250 2 240.593000 -130.039000 347.538000 1 1.000000 1 -3.000000
251 2 242.916000 -127.097000 338.460000 1 1.000000 1 -3.000000
252 2 245.664000 -124.633000 329.199000 1 1.000000 1 -3.000000
253 2 251.656000 -122.211000 321.681000 1 1.000000 1 -3.000000
254 2 257.692000 -120.753000 314.002000 1 1.000000 1 -3.000000
255 2 263.987000 -116.580000 307.658000 1 1.000000 1 -3.000000
256 2 271.590000 -113.798000 301.861000 1 1.000000 1 -3.000000
257 2 277.605000 -110.744000 294.525000 1 1.000000 1 -3.000000
258 2 283.384000 -106.370000 287.751000 1 1.000000 1 -3.000000
259 2 291.314000 -103.625000 282.484000 1 1.000000 1 -3.000000
260 2 299.931000 -100.362000 278.780000 1 1.000000 1 -3.000000
261 2 308.492000 -97.569800 274.596000 1 1.000000 1 -3.000000
262 2 316.249000 -92.478300 271.143000 1 1.000000 1 -3.000000
263 2 322.982000 -85.653500 268.744000 1 1.000000 1 -3.000000
264 2 329.481000 -79.105800 265.309000 1 1.000000 11 -3.000000
265 1 326.338000 -51.684800 303.607000 1 1.000000 11 0.000000
266 3 308.685000 -80.475800 312.877000 1 1.000000 11 0.000000
267 2 313.608000 -42.639200 348.165000 1 1.000000 11 -3.000000
268 2 310.126000 -51.286300 351.318000 1 1.000000 1 -3.000000
269 2 307.323000 -60.152600 354.628000 1 1.000000 1 -3.000000
270 2 306.441000 -69.893800 355.206000 1 1.000000 1 -3.000000
271 2 305.618000 -79.813000 354.586000 1 1.000000 1 -3.000000
272 2 302.016000 -88.951500 353.572000 1 1.000000 1 -3.000000
273 2 301.129000 -98.504200 351.234000 1 1.000000 1 -3.000000
274 2 300.650000 -108.094000 348.780000 1 1.000000 1 -3.000000
275 2 300.983000 -117.535000 345.721000 1 1.000000 1 -3.000000
276 2 302.786000 -126.811000 342.724000 1 1.000000 1 -3.000000
277 2 306.807000 -135.736000 341.077000 1 1.000000 1 -3.000000
278 2 311.946000 -144.043000 339.153000 1 1.000000 1 -3.000000
279 2 317.692000 -151.586000 336.452000 1 1.000000 1 -3.000000
280 2 323.818000 -157.904000 331.989000 1 1.000000 1 -3.000000
281 2 331.156000 -163.104000 327.824000 1 1.000000 1 -3.000000
282 2 339.009000 -167.338000 323.547000 1 1.000000 1 -3.000000
283 2 347.606000 -171.092000 320.317000 1 1.000000 1 -3.000000
284 2 356.058000 -174.054000 316.006000 1 1.000000 1 -3.000000
285 2 362.840000 -176.597000 309.210000 1 1.000000 1 -3.000000
286 2 368.750000 -178.950000 301.511000 1 1.000000 1 -3.000000
287 2 375.247000 -179.214000 294.060000 1 1.000000 1 -3.000000
288 2 382.649000 -182.220000 288.084000 1 1.000000 1 -3.000000
289 2 389.972000 -185.981000 282.628000 1 1.000000 1 -3.000000
290 2 396.796000 -190.907000 277.553000 1 1.000000 1 -3.000000
291 2 403.703000 -194.511000 271.497000 1 1.000000 12 -3.000000
292 1 427.655000 -208.924000 309.503000 1 1.000000 12 0.000000
293 3 394.251000 -211.402000 319.678000 1 1.000000 12 0.000000
294 2 431.006000 -224.675000 353.854000 1 1.000000 12 -3.000000
295 2 421.777000 -227.228000 356.247000 1 1.000000 1 -3.000000
296 2 412.450000 -230.706000 356.646000 1 1.000000 1 -3.000000
297 2 403.643000 -235.102000 356.578000 1 1.000000 1 -3.000000
298 2 394.690000 -239.017000 354.777000 1 1.000000 1 -3.000000
299 2 385.237000 -240.085000 352.197000 1 1.000000 1 -3.000000
300 2 376.172000 -239.775000 348.327000 1 1.000000 1 -3.000000
301 2 368.217000 -240.138000 342.442000 1 1.000000 1 -3.000000
302 2 360.297000 -240.491000 336.504000 1 1.000000 1 -3.000000
303 2 353.574000 -244.143000 330.286000 1 1.000000 1 -3.000000
304 2 347.358000 -247.438000 323.322000 1 1.000000 1 -3.000000
305 2 340.346000 -250.255000 317.005000 1 1.000000 1 -3.000000
306 2 332.144000 -252.416000 311.740000 1 1.000000 1 -3.000000
307 2 324.577000 -255.084000 305.822000 1 1.000000 1 -3.000000
308 2 318.168000 -259.273000 299.617000 1 1.000000 1 -3.000000
309 2 311.415000 -263.203000 293.617000 1 1.000000 1 -3.000000
310 2 306.044000 -267.159000 286.334000 1 1.000000 1 -3.000000
311 2 300.776000 -270.694000 278.837000 1 1.000000 1 -3.000000
312 2 295.209000 -274.123000 271.482000 1 1.000000 1 -3.000000
313 2 290.527000 -277.210000 263.441000 1 1.000000 1 -3.000000
314 2 287.651000 -278.699000 254.032000 1 1.000000 1 -3.000000
315 2 285.072000 -281.001000 244.813000 1 1.000000 1 -3.000000
316 2 282.043000 -284.099000 235.965000 1 1.000000 1 -3.000000
317 2 278.589000 -287.113000 227.181000 1 1.000000 1 -3.000000
318 2 275.804000 -289.244000 217.888000 1 1.000000 13 -3.000000
319 1 233.390000 -304.679000 231.829000 1 1.000000 13 0.000000
320 3 244.110000 -285.200000 259.045000 1 1.000000 13 0.000000
321 2 197.941000 -308.496000 262.681000 1 1.000000 13 -3.000000
322 2 202.776000 -302.441000 268.915000 1 1.000000 1 -3.000000
323 2 206.644000 -296.775000 276.030000 1 1.000000 1 -3.000000
324 2 208.660000 -289.760000 282.695000 1 1.000000 1 -3.000000
325 2 212.856000 -283.756000 289.415000 1 1.000000 1 -3.000000
326 2 219.195000 -277.318000 293.371000 1 1.000000 1 -3.000000
327 2 227.325000 -273.255000 297.219000 1 1.000000 1 -3.000000
328 2 235.122000 -269.679000 302.182000 1 1.000000 1 -3.000000
329 2 242.928000 -266.176000 307.141000 1 1.000000 1 -3.000000
330 2 250.139000 -261.895000 312.523000 1 1.000000 1 -3.000000
331 2 256.506000 -257.609000 318.786000 1 1.000000 1 -3.000000
332 2 263.134000 -255.423000 325.808000 1 1.000000 1 -3.000000
333 2 271.339000 -253.947000 331.096000 1 1.000000 1 -3.000000
334 2 279.101000 -253.142000 337.169000 1 1.000000 1 -3.000000
335 2 286.065000 -252.547000 344.206000 1 1.000000 1 -3.000000
336 2 293.430000 -253.875000 350.722000 1 1.000000 1 -3.000000
337 2 300.774000 -254.928000 357.314000 1 1.000000 1 -3.000000
338 2 308.518000 -254.521000 363.397000 1 1.000000 1 -3.000000
339 2 315.741000 -255.217000 370.157000 1 1.000000 1 -3.000000
340 2 322.490000 -255.181000 377.428000 1 1.000000 1 -3.000000
341 2 327.475000 -255.897000 385.940000 1 1.000000 1 -3.000000
342 2 332.529000 -257.241000 394.356000 1 1.000000 1 -3.000000
343 2 337.929000 -259.401000 402.417000 1 1.000000 1 -3.000000
344 2 343.584000 -263.053000 409.634000 1 1.000000 1 -3.000000
345 2 349.530000 -264.472000 417.454000 1 1.000000 14 -3.000000
346 1 340.337000 -310.745000 415.595000 1 1.000000 14 0.000000
347 3 327.330000 -298.731000 385.400000 1 1.000000 14 0.000000
348 2 325.339000 -349.943000 393.978000 1 1.000000 14 -3.000000
349 2 326.285000 -347.512000 384.406000 1 1.000000 1 -3.000000
350 2 327.973000 -345.078000 374.981000 1 1.000000 1 -3.000000
351 2 327.625000 -340.090000 366.463000 1 1.000000 1 -3.000000
352 2 328.200000 -333.558000 359.066000 1 1.000000 1 -3.000000
353 2 330.022000 -326.994000 351.792000 1 1.000000 1 -3.000000
354 2 328.259000 -320.650000 344.384000 1 1.000000 1 -3.000000
355 2 328.266000 -316.441000 335.553000 1 1.000000 1 -3.000000
356 2 326.739000 -311.785000 326.946000 1 1.000000 1 -3.000000
357 2 325.272000 -309.442000 317.508000 1 1.000000 1 -3.000000
358 2 325.251000 -306.744000 308.000000 1 1.000000 1 -3.000000
359 2 327.188000 -302.090000 299.596000 1 1.000000 1 -3.000000
360 2 329.397000 -297.371000 291.227000 1 1.000000 1 -3.000000
361 2 330.077000 -290.854000 283.777000 1 1.000000 1 -3.000000
362 2 330.070000 -284.511000 276.238000 1 1.000000 1 -3.000000
363 2 331.125000 -276.953000 269.949000 1 1.000000 1 -3.000000
364 2 331.229000 -269.955000 263.138000 1 1.000000 1 -3.000000
365 2 332.223000 -262.245000 257.144000 1 1.000000 1 -3.000000
366 2 334.527000 -254.342000 251.697000 1 1.000000 1 -3.000000
367 2 336.410000 -245.971000 246.652000 1 1.000000 1 -3.000000
368 2 341.205000 -237.707000 244.153000 1 1.000000 1 -3.000000
369 2 343.313000 -228.197000 241.890000 1 1.000000 1 -3.000000
370 2 345.711000 -218.732000 239.813000 1 1.000000 1 -3.000000
371 2 347.880000 -209.331000 237.688000 1 1.000000 1 -3.000000
372 2 350.043000 -200.092000 234.824000 1 1.000000 15 -3.000000
373 1 375.459000 -211.962000 196.888000 1 1.000000 15 0.000000
374 3 352.791000 -238.497000 199.949000 1 1.000000 15 0.000000
375 2 385.268000 -239.028000 159.494000 1 1.000000 15 -3.000000
376 2 376.767000 -243.940000 160.983000 1 1.000000 1 -3.000000
377 2 368.882000 -249.914000 162.162000 1 1.000000 1 -3.000000
378 2 360.343000 -254.859000 161.987000 1 1.000000 1 -3.000000
379 2 350.831000 -257.389000 161.849000 1 1.000000 1 -3.000000
380 2 341.735000 -260.724000 159.908000 1 1.000000 1 -3.000000
381 2 331.936000 -261.656000 159.112000 1 1.000000 1 -3.000000
382 2 322.889000 -265.223000 157.129000 1 1.000000 1 -3.000000
383 2 314.607000 -268.156000 152.591000 1 1.000000 1 -3.000000
384 2 307.175000 -273.142000 148.296000 1 1.000000 1 -3.000000
385 2 299.646000 -277.910000 143.952000 1 1.000000 1 -3.000000
386 2 291.664000 -282.486000 140.221000 1 1.000000 1 -3.000000
387 2 283.341000 -287.582000 138.994000 1 1.000000 1 -3.000000
388 2 275.099000 -292.915000 138.559000 1 1.000000 1 -3.000000
389 2 268.006000 -299.795000 138.378000 1 1.000000 1 -3.000000
390 2 260.651000 -306.449000 138.409000 1 1.000000 1 -3.000000
391 2 252.484000 -312.042000 137.856000 1 1.000000 1 -3.000000
392 2 243.817000 -316.346000 140.009000 1 1.000000 1 -3.000000
393 2 234.779000 -319.772000 141.848000 1 1.000000 1 -3.000000
394 2 225.405000 -322.800000 140.938000 1 1.000000 1 -3.000000
395 2 216.547000 -325.554000 137.536000 1 1.000000 1 -3.000000
396 2 207.240000 -328.373000 135.529000 1 1.000000 1 -3.000000
397 2 198.565000 -332.967000 134.346000 1 1.000000 1 -3.000000
398 2 189.638000 -337.159000 134.722000 1 1.000000 1 -3.000000
399 2 180.758000 -341.049000 132.463000 1 1.000000 16 -3.000000
400 1 173.405000 -320.816000 90.577800 1 1.000000 16 0.000000
401 3 208.295000 -321.053000 93.194800 1 1.000000 16 0.000000
402 2 187.472000 -301.356000 49.934700 1 1.000000 16 -3.000000
403 2 195.880000 -305.633000 46.799200 1 1.000000 1 -3.000000
404 2 203.723000 -309.157000 41.721900 1 1.000000 1 -3.000000
405 2 211.293000 -311.946000 36.027000 1 1.000000 1 -3.000000
406 2 219.175000 -313.071000 30.220300 1 1.000000 1 -3.000000
407 2 226.421000 -311.692000 23.635000 1 1.000000 1 -3.000000
408 2 232.040000 -311.118000 15.487300 1 1.000000 1 -3.000000
409 2 237.517000 -311.571000 7.258160 1 1.000000 1 -3.000000
410 2 242.126000 -312.784000 -1.538630 1 1.000000 1 -3.000000
411 2 246.045000 -315.008000 -10.392500 1 1.000000 1 -3.000000
412 2 250.578000 -318.435000 -18.432300 1 1.000000 1 -3.000000
413 2 254.200000 -320.297000 -27.404300 1 1.000000 1 -3.000000
414 2 258.511000 -324.600000 -35.173500 1 1.000000 1 -3.000000
415 2 260.160000 -330.607000 -42.835200 1 1.000000 1 -3.000000
416 2 263.266000 -336.987000 -49.652500 1 1.000000 1 -3.000000
417 2 265.808000 -343.123000 -57.021000 1 1.000000 1 -3.000000
418 2 268.787000 -349.313000 -64.136000 1 1.000000 1 -3.000000
419 2 272.135000 -357.293000 -68.843400 1 1.000000 1 -3.000000
420 2 275.418000 -366.247000 -71.341300 1 1.000000 1 -3.000000
421 2 278.319000 -375.484000 -73.384600 1 1.000000 1 -3.000000
422 2 281.968000 -384.027000 -76.779700 1 1.000000 1 -3.000000
423 2 287.892000 -391.823000 -78.011700 1 1.000000 1 -3.000000
424 2 293.765000 -399.692000 -78.527200 1 1.000000 1 -3.000000
425 2 298.279000 -408.051000 -81.071800 1 1.000000 1 -3.000000
426 2 302.379000 -416.430000 -84.414800 1 1.000000 17 -3.000000
427 1 340.502000 -394.499000 -101.698000 1 1.000000 17 0.000000
428 3 322.933000 -368.809000 -85.738100 1 1.000000 17 0.000000
429 2 369.010000 -357.313000 -106.933000 1 1.000000 17 -3.000000
430 2 363.383000 -350.989000 -101.806000 1 1.000000 1 -3.000000
431 2 357.973000 -344.073000 -97.133900 1 1.000000 1 -3.000000
432 2 353.192000 -337.685000 -91.243900 1 1.000000 1 -3.000000
433 2 347.235000 -330.766000 -87.471100 1 1.000000 1 -3.000000
434 2 341.805000 -323.480000 -83.374700 1 1.000000 1 -3.000000
435 2 337.178000 -316.387000 -78.194600 1 1.000000 1 -3.000000
436 2 330.591000 -309.268000 -76.618800 1 1.000000 1 -3.000000
437 2 324.468000 -301.405000 -76.616500 1 1.000000 1 -3.000000
438 2 317.882000 -294.136000 -75.864000 1 1.000000 1 -3.000000
439 2 311.324000 -287.105000 -73.526600 1 1.000000 1 -3.000000
440 2 305.459000 -279.481000 -71.020100 1 1.000000 1 -3.000000
441 2 298.674000 -272.338000 -70.648800 1 1.000000 1 -3.000000
442 2 291.580000 -265.335000 -70.090600 1 1.000000 1 -3.000000
443 2 285.355000 -257.672000 -69.832500 1 1.000000 1 -3.000000
444 2 278.045000 -251.732000 -72.863200 1 1.000000 1 -3.000000
445 2 270.497000 -245.278000 -73.090600 1 1.000000 1 -3.000000
446 2 263.540000 -238.398000 -71.332000 1 1.000000 1 -3.000000
447 2 255.759000 -232.402000 -70.114600 1 1.000000 1 -3.000000
448 2 248.018000 -226.281000 -69.300200 1 1.000000 1 -3.000000
449 2 242.528000 -218.158000 -67.757200 1 1.000000 1 -3.000000
450 2 237.022000 -209.996000 -67.468500 1 1.000000 1 -3.000000
451 2 231.964000 -201.584000 -68.930300 1 1.000000 1 -3.000000
452 2 226.832000 -193.380000 -71.225000 1 1.000000 1 -3.000000
453 2 222.257000 -185.247000 -74.518200 1 1.000000 18 -3.000000
454 1 211.428000 -195.028000 -119.421000 1 1.000000 18 0.000000
455 3 226.444000 -224.572000 -108.207000 1 1.000000 18 0.000000
456 2 210.503000 -222.813000 -157.520000 1 1.000000 18 -3.000000
457 2 212.329000 -231.709000 -153.512000 1 1.000000 1 -3.000000
458 2 214.153000 -240.391000 -149.076000 1 1.000000 1 -3.000000
459 2 217.196000 -248.876000 -144.901000 1 1.000000 1 -3.000000
460 2 222.114000 -256.482000 -140.710000 1 1.000000 1 -3.000000
461 2 227.218000 -262.091000 -134.339000 1 1.000000 1 -3.000000
462 2 232.596000 -266.070000 -127.039000 1 1.000000 1 -3.000000
463 2 238.175000 -272.993000 -122.563000 1 1.000000 1 -3.000000
464 2 241.954000 -280.719000 -117.701000 1 1.000000 1 -3.000000
465 2 244.506000 -288.580000 -112.348000 1 1.000000 1 -3.000000
466 2 247.021000 -297.387000 -108.627000 1 1.000000 1 -3.000000
467 2 249.070000 -306.555000 -105.499000 1 1.000000 1 -3.000000
468 2 252.356000 -315.933000 -105.075000 1 1.000000 1 -3.000000
469 2 253.859000 -325.686000 -105.176000 1 1.000000 1 -3.000000
470 2 254.147000 -335.371000 -107.308000 1 1.000000 1 -3.000000
471 2 253.582000 -344.502000 -111.105000 1 1.000000 1 -3.000000
472 2 253.618000 -353.992000 -113.849000 1 1.000000 1 -3.000000
473 2 254.832000 -363.385000 -116.708000 1 1.000000 1 -3.000000
474 2 255.910000 -373.040000 -118.802000 1 1.000000 1 -3.000000
475 2 258.515000 -382.581000 -119.848000 1 1.000000 1 -3.000000
476 2 260.195000 -392.294000 -120.290000 1 1.000000 1 -3.000000
477 2 260.521000 -402.186000 -120.816000 1 1.000000 1 -3.000000
478 2 259.443000 -411.952000 -119.564000 1 1.000000 1 -3.000000