LAMMPS data file

4067 atoms
4067 ellipsoids
4516 bonds
8882 angles
0 dihedrals

3 atom types
5 bond types
12 angle types
0 dihedral types

-4631.092947 4670.465898 xlo xhi
-4631.092947 4670.465898 ylo yhi
-4631.092947 4670.465898 zlo zhi

Masses

1 196016.000000
2 1950.000000
3 19500.000000

Atoms

1 2 -796.143000 -591.613000 82.394900 1 1.000000 1 -3.000000
2 2 -790.865000 -589.839000 90.547100 1 1.000000 1 -3.000000
3 2 -786.195000 -586.226000 98.428200 1 1.000000 1 -3.000000
4 2 -783.284000 -582.135000 106.938000 1 1.000000 1 -3.000000
5 2 -779.989000 -577.703000 115.158000 1 1.000000 1 -3.000000
6 2 -776.585000 -573.191000 123.264000 1 1.000000 1 -3.000000
7 2 -772.217000 -567.680000 130.188000 1 1.000000 1 -3.000000
8 2 -766.441000 -562.272000 136.208000 1 1.000000 1 -3.000000
9 2 -759.848000 -558.447000 142.669000 1 1.000000 1 -3.000000
10 2 -752.089000 -555.818000 148.201000 1 1.000000 1 -3.000000
11 2 -743.992000 -553.870000 153.529000 1 1.000000 1 -3.000000
12 2 -737.261000 -551.086000 160.204000 1 1.000000 1 -3.000000
13 2 -730.975000 -548.728000 167.391000 1 1.000000 1 -3.000000
14 2 -723.652000 -544.804000 172.852000 1 1.000000 1 -3.000000
15 2 -719.059000 -538.937000 179.341000 1 1.000000 1 -3.000000
16 2 -714.121000 -535.672000 187.296000 1 1.000000 1 -3.000000
17 2 -710.295000 -534.682000 196.316000 1 1.000000 1 -3.000000
18 2 -707.338000 -536.723000 205.478000 1 1.000000 1 -3.000000
19 2 -702.359000 -539.996000 213.313000 1 1.000000 1 -3.000000
20 2 -697.384000 -543.565000 221.134000 1 1.000000 1 -3.000000
21 2 -691.749000 -546.014000 228.867000 1 1.000000 2 -3.000000
22 1 -685.396000 -591.406000 217.653000 1 1.000000 2 0.000000
23 3 -697.366000 -577.361000 187.837000 1 1.000000 2 0.000000
24 2 -686.011000 -628.053000 187.920000 1 1.000000 2 -3.000000
25 2 -686.059000 -623.341000 179.099000 1 1.000000 1 -3.000000
26 2 -686.075000 -617.804000 170.897000 1 1.000000 1 -3.000000
27 2 -687.539000 -612.304000 162.843000 1 1.000000 1 -3.000000
28 2 -688.824000 -606.018000 155.242000 1 1.000000 1 -3.000000
29 2 -689.465000 -597.852000 149.687000 1 1.000000 1 -3.000000
30 2 -688.942000 -590.695000 142.828000 1 1.000000 1 -3.000000
31 2 -686.727000 -583.591000 136.344000 1 1.000000 1 -3.000000
32 2 -684.887000 -578.031000 128.425000 1 1.000000 1 -3.000000
33 2 -682.581000 -571.388000 121.427000 1 1.000000 1 -3.000000
34 2 -682.569000 -565.116000 113.791000 1 1.000000 1 -3.000000
35 2 -681.872000 -557.424000 107.636000 1 1.000000 1 -3.000000
36 2 -681.787000 -549.566000 101.544000 1 1.000000 1 -3.000000
37 2 -680.379000 -542.833000 94.405100 1 1.000000 1 -3.000000
38 2 -678.278000 -536.729000 86.803300 1 1.000000 1 -3.000000
39 2 -675.131000 -531.128000 79.339300 1 1.000000 1 -3.000000
40 2 -674.105000 -525.574000 71.187600 1 1.000000 1 -3.000000
41 2 -672.074000 -521.085000 62.528900 1 1.000000 1 -3.000000
42 2 -670.408000 -518.024000 53.241200 1 1.000000 1 -3.000000
43 2 -670.432000 -512.916000 44.746800 1 1.000000 1 -3.000000
44 2 -669.288000 -506.652000 37.061300 1 1.000000 1 -3.000000
45 2 -668.007000 -498.243000 31.870600 1 1.000000 1 -3.000000
46 2 -666.738000 -489.244000 27.994800 1 1.000000 1 -3.000000
47 2 -666.109000 -479.696000 25.439100 1 1.000000 1 -3.000000
48 2 -667.140000 -470.944000 21.070600 1 1.000000 3 -3.000000
49 1 -686.980000 -447.469000 56.860800 1 1.000000 3 0.000000
50 3 -677.987000 -478.123000 71.245300 1 1.000000 3 0.000000
51 2 -702.434000 -443.319000 101.253000 1 1.000000 3 -3.000000
52 2 -696.275000 -449.853000 105.480000 1 1.000000 1 -3.000000
53 2 -689.424000 -455.605000 109.713000 1 1.000000 1 -3.000000
54 2 -683.243000 -461.803000 114.162000 1 1.000000 1 -3.000000
55 2 -676.897000 -469.302000 115.465000 1 1.000000 1 -3.000000
56 2 -671.324000 -477.267000 117.195000 1 1.000000 1 -3.000000
57 2 -665.117000 -484.771000 115.334000 1 1.000000 1 -3.000000
58 2 -658.868000 -491.666000 112.071000 1 1.000000 1 -3.000000
59 2 -652.134000 -498.338000 109.480000 1 1.000000 1 -3.000000
60 2 -644.627000 -503.501000 105.725000 1 1.000000 1 -3.000000
61 2 -636.101000 -507.629000 103.068000 1 1.000000 1 -3.000000
62 2 -627.901000 -510.789000 98.610700 1 1.000000 1 -3.000000
63 2 -620.429000 -515.551000 94.243800 1 1.000000 1 -3.000000
64 2 -613.092000 -519.422000 88.789800 1 1.000000 1 -3.000000
65 2 -607.352000 -524.700000 82.691700 1 1.000000 1 -3.000000
66 2 -599.530000 -527.964000 77.509100 1 1.000000 1 -3.000000
67 2 -591.626000 -532.430000 73.407400 1 1.000000 1 -3.000000
68 2 -585.246000 -537.310000 67.692400 1 1.000000 1 -3.000000
69 2 -577.391000 -541.936000 63.830100 1 1.000000 1 -3.000000
70 2 -569.301000 -546.780000 60.990000 1 1.000000 1 -3.000000
71 2 -562.806000 -552.011000 55.818900 1 1.000000 1 -3.000000
72 2 -555.575000 -555.603000 50.128400 1 1.000000 1 -3.000000
73 2 -547.811000 -559.116000 45.162000 1 1.000000 1 -3.000000
74 2 -539.226000 -561.830000 40.982500 1 1.000000 1 -3.000000
75 2 -530.879000 -564.068000 36.229900 1 1.000000 4 -3.000000
76 1 -522.646000 -603.136000 61.368400 1 1.000000 4 0.000000
77 3 -555.312000 -594.378000 70.586600 1 1.000000 4 0.000000
78 2 -535.320000 -637.859000 90.712600 1 1.000000 4 -3.000000
79 2 -544.829000 -636.269000 92.853100 1 1.000000 1 -3.000000
80 2 -554.151000 -633.710000 95.044700 1 1.000000 1 -3.000000
81 2 -563.955000 -632.101000 94.848000 1 1.000000 1 -3.000000
82 2 -573.331000 -629.477000 92.785700 1 1.000000 1 -3.000000
83 2 -582.852000 -628.205000 90.331100 1 1.000000 1 -3.000000
84 2 -592.048000 -625.480000 87.781300 1 1.000000 1 -3.000000
85 2 -601.264000 -624.905000 84.064900 1 1.000000 1 -3.000000
86 2 -609.620000 -625.633000 78.781300 1 1.000000 1 -3.000000
87 2 -618.750000 -628.189000 75.846000 1 1.000000 1 -3.000000
88 2 -626.481000 -632.885000 71.696400 1 1.000000 1 -3.000000
89 2 -634.394000 -638.765000 70.245300 1 1.000000 1 -3.000000
90 2 -643.409000 -642.089000 67.690500 1 1.000000 1 -3.000000
91 2 -651.920000 -645.743000 64.214300 1 1.000000 1 -3.000000
92 2 -660.657000 -649.869000 62.088200 1 1.000000 1 -3.000000
93 2 -668.270000 -656.113000 61.673300 1 1.000000 1 -3.000000
94 2 -674.748000 -663.640000 62.645300 1 1.000000 1 -3.000000
95 2 -680.580000 -671.551000 62.760100 1 1.000000 1 -3.000000
96 2 -686.502000 -679.452000 61.534500 1 1.000000 1 -3.000000
97 2 -693.062000 -686.806000 61.107500 1 1.000000 1 -3.000000
98 2 -699.598000 -694.134000 59.741900 1 1.000000 1 -3.000000
99 2 -705.620000 -700.921000 55.754400 1 1.000000 1 -3.000000
100 2 -709.908000 -706.327000 48.713600 1 1.000000 1 -3.000000
101 2 -716.676000 -711.972000 44.238900 1 1.000000 1 -3.000000
102 2 -721.607000 -718.599000 38.853700 1 1.000000 5 -3.000000
103 1 -717.932000 -695.468000 -2.097160 1 1.000000 5 0.000000
104 3 -691.595000 -682.406000 16.842700 1 1.000000 5 0.000000
105 2 -697.617000 -664.669000 -31.504000 1 1.000000 5 -3.000000
106 2 -690.301000 -662.089000 -25.360300 1 1.000000 1 -3.000000
107 2 -682.861000 -658.763000 -19.766200 1 1.000000 1 -3.000000
108 2 -674.966000 -656.295000 -14.401600 1 1.000000 1 -3.000000
109 2 -667.588000 -654.838000 -8.023590 1 1.000000 1 -3.000000
110 2 -660.307000 -656.202000 -1.591070 1 1.000000 1 -3.000000
111 2 -654.287000 -660.133000 5.238340 1 1.000000 1 -3.000000
112 2 -648.475000 -662.781000 12.835600 1 1.000000 1 -3.000000
113 2 -642.990000 -665.080000 20.680000 1 1.000000 1 -3.000000
114 2 -638.763000 -667.316000 29.389300 1 1.000000 1 -3.000000
115 2 -633.409000 -670.091000 37.225000 1 1.000000 1 -3.000000
116 2 -628.502000 -673.899000 45.005800 1 1.000000 1 -3.000000
117 2 -626.463000 -678.606000 53.534300 1 1.000000 1 -3.000000
118 2 -624.886000 -682.786000 62.331500 1 1.000000 1 -3.000000
119 2 -623.957000 -689.319000 69.790200 1 1.000000 1 -3.000000
120 2 -621.610000 -695.624000 77.083500 1 1.000000 1 -3.000000
121 2 -618.030000 -700.894000 84.691900 1 1.000000 1 -3.000000
122 2 -615.265000 -706.717000 92.183000 1 1.000000 1 -3.000000
123 2 -612.530000 -713.094000 99.254600 1 1.000000 1 -3.000000
124 2 -609.452000 -718.274000 107.094000 1 1.000000 1 -3.000000
125 2 -605.163000 -721.881000 115.302000 1 1.000000 1 -3.000000
126 2 -601.754000 -724.467000 124.261000 1 1.000000 1 -3.000000
127 2 -600.941000 -725.984000 134.055000 1 1.000000 1 -3.000000
128 2 -600.212000 -726.623000 143.868000 1 1.000000 1 -3.000000
129 2 -599.695000 -726.280000 153.695000 1 1.000000 6 -3.000000
130 1 -626.093000 -689.203000 166.283000 1 1.000000 6 0.000000
131 3 -636.187000 -695.327000 133.264000 1 1.000000 6 0.000000
132 2 -658.950000 -656.267000 158.674000 1 1.000000 6 -3.000000
133 2 -662.964000 -659.879000 150.371000 1 1.000000 1 -3.000000
134 2 -667.724000 -665.199000 143.458000 1 1.000000 1 -3.000000
135 2 -673.079000 -669.227000 136.145000 1 1.000000 1 -3.000000
136 2 -675.887000 -675.384000 128.885000 1 1.000000 1 -3.000000
137 2 -677.193000 -682.640000 122.245000 1 1.000000 1 -3.000000
138 2 -677.533000 -691.273000 117.579000 1 1.000000 1 -3.000000
139 2 -678.434000 -700.105000 113.375000 1 1.000000 1 -3.000000
140 2 -677.561000 -709.083000 109.216000 1 1.000000 1 -3.000000
141 2 -677.122000 -718.342000 105.635000 1 1.000000 1 -3.000000
142 2 -677.412000 -728.084000 103.535000 1 1.000000 1 -3.000000
143 2 -679.331000 -737.767000 102.783000 1 1.000000 1 -3.000000
144 2 -682.545000 -747.026000 101.327000 1 1.000000 1 -3.000000
145 2 -686.062000 -756.126000 100.329000 1 1.000000 1 -3.000000
146 2 -690.284000 -765.065000 101.509000 1 1.000000 1 -3.000000
147 2 -695.160000 -773.556000 102.702000 1 1.000000 1 -3.000000
148 2 -698.788000 -782.683000 104.441000 1 1.000000 1 -3.000000
149 2 -701.677000 -792.054000 106.109000 1 1.000000 1 -3.000000
150 2 -702.696000 -801.884000 106.968000 1 1.000000 1 -3.000000
151 2 -706.422000 -811.159000 108.214000 1 1.000000 1 -3.000000
152 2 -710.099000 -820.270000 107.932000 1 1.000000 1 -3.000000
153 2 -715.437000 -828.500000 107.015000 1 1.000000 1 -3.000000
154 2 -721.900000 -835.672000 104.989000 1 1.000000 1 -3.000000
155 2 -729.814000 -841.161000 102.898000 1 1.000000 1 -3.000000
156 2 -737.625000 -847.217000 102.906000 1 1.000000 7 -3.000000
157 1 -772.477000 -815.577000 100.046000 1 1.000000 7 0.000000
158 3 -744.331000 -797.409000 89.849500 1 1.000000 7 0.000000
159 2 -790.310000 -773.262000 89.092600 1 1.000000 7 -3.000000
160 2 -783.110000 -771.892000 82.455900 1 1.000000 1 -3.000000
161 2 -776.473000 -769.735000 75.537800 1 1.000000 1 -3.000000
162 2 -768.493000 -768.107000 69.755200 1 1.000000 1 -3.000000
163 2 -759.996000 -768.243000 64.887800 1 1.000000 1 -3.000000
164 2 -752.008000 -768.832000 59.160100 1 1.000000 1 -3.000000
165 2 -743.898000 -770.427000 53.759800 1 1.000000 1 -3.000000
166 2 -735.623000 -773.085000 49.055300 1 1.000000 1 -3.000000
167 2 -727.010000 -776.476000 45.655900 1 1.000000 1 -3.000000
168 2 -717.709000 -779.483000 43.881800 1 1.000000 1 -3.000000
169 2 -709.110000 -784.016000 41.971200 1 1.000000 1 -3.000000
170 2 -700.058000 -788.010000 41.934900 1 1.000000 1 -3.000000
171 2 -691.781000 -793.274000 42.854200 1 1.000000 1 -3.000000
172 2 -685.670000 -800.576000 45.659100 1 1.000000 1 -3.000000
173 2 -681.089000 -807.849000 50.677200 1 1.000000 1 -3.000000
174 2 -676.212000 -815.806000 53.893800 1 1.000000 1 -3.000000
175 2 -673.001000 -824.714000 56.822100 1 1.000000 1 -3.000000
176 2 -670.199000 -833.895000 59.350100 1 1.000000 1 -3.000000
177 2 -666.830000 -843.254000 60.562700 1 1.000000 1 -3.000000
178 2 -662.260000 -851.929000 61.773700 1 1.000000 1 -3.000000
179 2 -660.077000 -861.428000 63.533200 1 1.000000 1 -3.000000
180 2 -661.343000 -871.186000 64.773700 1 1.000000 1 -3.000000
181 2 -663.348000 -880.557000 67.407100 1 1.000000 1 -3.000000
182 2 -667.489000 -889.394000 69.263000 1 1.000000 1 -3.000000
183 2 -671.559000 -898.364000 68.234500 1 1.000000 8 -3.000000
184 1 -705.782000 -897.953000 100.672000 1 1.000000 8 0.000000
185 3 -692.301000 -865.716000 102.832000 1 1.000000 8 0.000000
186 2 -733.124000 -877.002000 132.912000 1 1.000000 8 -3.000000
187 2 -733.148000 -867.300000 131.199000 1 1.000000 1 -3.000000
188 2 -735.058000 -857.583000 130.342000 1 1.000000 1 -3.000000
189 2 -735.749000 -847.898000 132.189000 1 1.000000 1 -3.000000
190 2 -737.845000 -840.132000 137.763000 1 1.000000 1 -3.000000
191 2 -739.170000 -832.140000 143.414000 1 1.000000 1 -3.000000
192 2 -739.461000 -822.523000 145.584000 1 1.000000 1 -3.000000
193 2 -739.348000 -813.416000 149.509000 1 1.000000 1 -3.000000
194 2 -740.769000 -804.183000 152.820000 1 1.000000 1 -3.000000
195 2 -742.765000 -794.681000 154.976000 1 1.000000 1 -3.000000
196 2 -744.354000 -785.186000 157.279000 1 1.000000 1 -3.000000
197 2 -744.668000 -775.624000 159.737000 1 1.000000 1 -3.000000
198 2 -746.868000 -765.937000 160.918000 1 1.000000 1 -3.000000
199 2 -749.918000 -756.608000 160.900000 1 1.000000 1 -3.000000
200 2 -753.484000 -747.377000 161.638000 1 1.000000 1 -3.000000
201 2 -755.896000 -737.837000 162.200000 1 1.000000 1 -3.000000
202 2 -759.026000 -728.764000 159.657000 1 1.000000 1 -3.000000
203 2 -761.228000 -719.225000 158.216000 1 1.000000 1 -3.000000
204 2 -763.911000 -709.800000 159.551000 1 1.000000 1 -3.000000
205 2 -766.337000 -700.468000 161.627000 1 1.000000 1 -3.000000
206 2 -768.552000 -691.040000 163.278000 1 1.000000 1 -3.000000
207 2 -772.760000 -682.044000 163.583000 1 1.000000 1 -3.000000
208 2 -776.706000 -672.988000 163.364000 1 1.000000 1 -3.000000
209 2 -779.653000 -663.819000 161.065000 1 1.000000 1 -3.000000
210 2 -782.524000 -654.959000 157.578000 1 1.000000 9 -3.000000
211 1 -784.511000 -657.885000 110.524000 1 1.000000 9 0.000000
212 3 -777.995000 -690.884000 120.346000 1 1.000000 9 0.000000
213 2 -782.364000 -681.122000 69.529400 1 1.000000 9 -3.000000
214 2 -781.490000 -690.250000 72.981200 1 1.000000 1 -3.000000
215 2 -781.313000 -699.589000 76.115100 1 1.000000 1 -3.000000
216 2 -781.428000 -708.949000 79.304800 1 1.000000 1 -3.000000
217 2 -781.545000 -717.299000 84.532100 1 1.000000 1 -3.000000
218 2 -782.086000 -723.724000 92.053600 1 1.000000 1 -3.000000
219 2 -782.763000 -730.651000 98.982900 1 1.000000 1 -3.000000
220 2 -785.397000 -735.857000 106.896000 1 1.000000 1 -3.000000
221 2 -786.177000 -737.915000 116.578000 1 1.000000 1 -3.000000
222 2 -789.742000 -737.704000 125.865000 1 1.000000 1 -3.000000
223 2 -791.070000 -737.930000 135.639000 1 1.000000 1 -3.000000
224 2 -793.601000 -740.022000 144.979000 1 1.000000 1 -3.000000
225 2 -797.300000 -740.715000 154.223000 1 1.000000 1 -3.000000
226 2 -802.180000 -740.643000 162.855000 1 1.000000 1 -3.000000
227 2 -809.039000 -740.239000 169.976000 1 1.000000 1 -3.000000
228 2 -814.871000 -738.907000 177.854000 1 1.000000 1 -3.000000
229 2 -819.828000 -737.855000 186.371000 1 1.000000 1 -3.000000
230 2 -823.680000 -734.363000 194.728000 1 1.000000 1 -3.000000
231 2 -825.913000 -727.461000 201.585000 1 1.000000 1 -3.000000
232 2 -827.681000 -720.845000 208.646000 1 1.000000 1 -3.000000
233 2 -831.216000 -713.705000 214.631000 1 1.000000 1 -3.000000
234 2 -834.785000 -705.431000 218.548000 1 1.000000 1 -3.000000
235 2 -839.283000 -697.403000 222.364000 1 1.000000 1 -3.000000
236 2 -845.169000 -689.489000 223.654000 1 1.000000 1 -3.000000
237 2 -847.751000 -680.037000 222.903000 1 1.000000 10 -3.000000
238 1 -807.180000 -656.809000 229.147000 1 1.000000 10 0.000000
239 3 -796.821000 -687.259000 215.470000 1 1.000000 10 0.000000
240 2 -760.095000 -653.443000 229.589000 1 1.000000 10 -3.000000
241 2 -759.333000 -659.470000 221.696000 1 1.000000 1 -3.000000
242 2 -757.185000 -667.868000 217.037000 1 1.000000 1 -3.000000
243 2 -754.536000 -676.791000 213.597000 1 1.000000 1 -3.000000
244 2 -751.709000 -685.933000 211.039000 1 1.000000 1 -3.000000
245 2 -753.299000 -694.572000 206.373000 1 1.000000 1 -3.000000
246 2 -756.810000 -702.984000 202.663000 1 1.000000 1 -3.000000
247 2 -762.057000 -711.070000 200.245000 1 1.000000 1 -3.000000
248 2 -767.526000 -719.050000 198.255000 1 1.000000 1 -3.000000
249 2 -772.162000 -727.596000 196.503000 1 1.000000 1 -3.000000
250 2 -777.244000 -735.635000 193.671000 1 1.000000 1 -3.000000
251 2 -782.369000 -743.661000 191.078000 1 1.000000 1 -3.000000
252 2 -787.262000 -752.211000 190.029000 1 1.000000 1 -3.000000
253 2 -792.262000 -760.550000 187.888000 1 1.000000 1 -3.000000
254 2 -798.293000 -768.382000 187.137000 1 1.000000 1 -3.000000
255 2 -803.527000 -776.633000 185.622000 1 1.000000 1 -3.000000
256 2 -808.917000 -784.924000 186.933000 1 1.000000 1 -3.000000
257 2 -815.121000 -792.457000 188.128000 1 1.000000 1 -3.000000
258 2 -821.727000 -799.836000 188.519000 1 1.000000 1 -3.000000
259 2 -830.358000 -804.475000 190.006000 1 1.000000 1 -3.000000
260 2 -838.827000 -808.948000 192.370000 1 1.000000 1 -3.000000
261 2 -847.633000 -813.180000 191.017000 1 1.000000 1 -3.000000
262 2 -856.611000 -816.478000 188.359000 1 1.000000 1 -3.000000
263 2 -864.899000 -819.334000 183.771000 1 1.000000 1 -3.000000
264 2 -874.022000 -820.081000 179.926000 1 1.000000 11 -3.000000
265 1 -872.078000 -790.269000 143.399000 1 1.000000 11 0.000000
266 3 -838.553000 -798.629000 148.709000 1 1.000000 11 0.000000
267 2 -849.327000 -763.939000 111.530000 1 1.000000 11 -3.000000
268 2 -841.982000 -770.096000 108.818000 1 1.000000 1 -3.000000
269 2 -835.752000 -777.575000 107.148000 1 1.000000 1 -3.000000
270 2 -829.322000 -784.760000 105.183000 1 1.000000 1 -3.000000
271 2 -823.495000 -792.791000 104.929000 1 1.000000 1 -3.000000
272 2 -818.995000 -800.538000 108.953000 1 1.000000 1 -3.000000
273 2 -814.367000 -808.968000 111.104000 1 1.000000 1 -3.000000
274 2 -809.592000 -816.871000 114.861000 1 1.000000 1 -3.000000
275 2 -805.850000 -825.567000 117.901000 1 1.000000 1 -3.000000
276 2 -800.665000 -833.564000 120.521000 1 1.000000 1 -3.000000
277 2 -796.677000 -841.703000 124.358000 1 1.000000 1 -3.000000
278 2 -792.300000 -850.049000 127.462000 1 1.000000 1 -3.000000
279 2 -786.992000 -857.300000 131.561000 1 1.000000 1 -3.000000
280 2 -781.403000 -865.193000 133.728000 1 1.000000 1 -3.000000
281 2 -775.906000 -873.334000 134.311000 1 1.000000 1 -3.000000
282 2 -772.893000 -882.711000 135.029000 1 1.000000 1 -3.000000
283 2 -772.086000 -892.533000 134.461000 1 1.000000 1 -3.000000
284 2 -770.663000 -902.375000 134.870000 1 1.000000 1 -3.000000
285 2 -768.058000 -911.662000 137.008000 1 1.000000 1 -3.000000
286 2 -766.659000 -921.373000 138.186000 1 1.000000 1 -3.000000
287 2 -765.757000 -930.843000 140.846000 1 1.000000 1 -3.000000
288 2 -768.483000 -939.715000 144.140000 1 1.000000 1 -3.000000
289 2 -772.545000 -948.315000 146.813000 1 1.000000 1 -3.000000
290 2 -776.783000 -956.586000 150.244000 1 1.000000 1 -3.000000
291 2 -783.593000 -963.237000 153.140000 1 1.000000 12 -3.000000
292 1 -794.357000 -976.080000 109.034000 1 1.000000 12 0.000000
293 3 -766.504000 -955.404000 104.797000 1 1.000000 12 0.000000
294 2 -789.322000 -974.219000 62.118500 1 1.000000 12 -3.000000
295 2 -779.880000 -971.413000 62.856300 1 1.000000 1 -3.000000
296 2 -769.994000 -970.446000 62.717300 1 1.000000 1 -3.000000
297 2 -760.133000 -971.570000 62.187500 1 1.000000 1 -3.000000
298 2 -750.194000 -971.812000 62.341400 1 1.000000 1 -3.000000
299 2 -740.620000 -970.333000 60.333000 1 1.000000 1 -3.000000
300 2 -732.235000 -967.220000 56.204300 1 1.000000 1 -3.000000
301 2 -723.374000 -965.924000 52.034600 1 1.000000 1 -3.000000
302 2 -716.805000 -965.088000 44.778900 1 1.000000 1 -3.000000
303 2 -710.872000 -960.955000 37.981500 1 1.000000 1 -3.000000
304 2 -706.114000 -956.143000 30.785000 1 1.000000 1 -3.000000
305 2 -702.020000 -951.660000 23.018900 1 1.000000 1 -3.000000
306 2 -698.009000 -946.730000 15.478500 1 1.000000 1 -3.000000
307 2 -695.955000 -940.689000 7.950570 1 1.000000 1 -3.000000
308 2 -692.486000 -935.450000 0.333178 1 1.000000 1 -3.000000
309 2 -689.323000 -931.522000 -8.115380 1 1.000000 1 -3.000000
310 2 -687.918000 -928.031000 -17.246300 1 1.000000 1 -3.000000
311 2 -688.507000 -922.485000 -25.384500 1 1.000000 1 -3.000000
312 2 -691.842000 -917.449000 -33.176100 1 1.000000 1 -3.000000
313 2 -694.734000 -913.617000 -41.864500 1 1.000000 1 -3.000000
314 2 -696.065000 -909.576000 -50.764900 1 1.000000 1 -3.000000
315 2 -696.743000 -907.064000 -60.348900 1 1.000000 1 -3.000000
316 2 -696.322000 -902.322000 -69.120300 1 1.000000 1 -3.000000
317 2 -695.192000 -898.098000 -77.978600 1 1.000000 1 -3.000000
318 2 -692.789000 -894.090000 -86.714700 1 1.000000 13 -3.000000
319 1 -667.336000 -928.736000 -106.264000 1 1.000000 13 0.000000
320 3 -681.652000 -944.022000 -78.209200 1 1.000000 13 0.000000
321 2 -651.446000 -973.107000 -108.885000 1 1.000000 13 -3.000000
322 2 -657.575000 -976.563000 -101.850000 1 1.000000 1 -3.000000
323 2 -664.652000 -981.460000 -97.103000 1 1.000000 1 -3.000000
324 2 -671.554000 -985.651000 -91.386300 1 1.000000 1 -3.000000
325 2 -678.949000 -987.281000 -85.009200 1 1.000000 1 -3.000000
326 2 -685.845000 -989.038000 -78.230700 1 1.000000 1 -3.000000
327 2 -692.591000 -991.043000 -71.252200 1 1.000000 1 -3.000000
328 2 -697.297000 -993.434000 -62.838400 1 1.000000 1 -3.000000
329 2 -701.640000 -995.193000 -54.048900 1 1.000000 1 -3.000000
330 2 -707.860000 -996.144000 -46.479500 1 1.000000 1 -3.000000
331 2 -712.572000 -999.698000 -38.581200 1 1.000000 1 -3.000000
332 2 -715.394000 -1006.010000 -31.481800 1 1.000000 1 -3.000000
333 2 -717.499000 -1012.390000 -24.241000 1 1.000000 1 -3.000000
334 2 -717.540000 -1018.650000 -16.548300 1 1.000000 1 -3.000000
335 2 -717.350000 -1024.490000 -8.555790 1 1.000000 1 -3.000000
336 2 -717.867000 -1031.880000 -2.020040 1 1.000000 1 -3.000000
337 2 -717.795000 -1039.540000 4.278260 1 1.000000 1 -3.000000
338 2 -718.397000 -1048.370000 8.420200 1 1.000000 1 -3.000000
339 2 -720.321000 -1057.180000 12.579600 1 1.000000 1 -3.000000
340 2 -722.560000 -1065.980000 16.474500 1 1.000000 1 -3.000000
341 2 -724.012000 -1075.740000 17.112500 1 1.000000 1 -3.000000
342 2 -724.951000 -1085.350000 15.234500 1 1.000000 1 -3.000000
343 2 -724.873000 -1094.890000 12.511200 1 1.000000 1 -3.000000
344 2 -722.597000 -1103.680000 8.676730 1 1.000000 1 -3.000000
345 2 -722.131000 -1113.200000 6.132570 1 1.000000 14 -3.000000
346 1 -689.922000 -1107.870000 -27.926400 1 1.000000 14 0.000000
347 3 -689.136000 -1077.140000 -11.211200 1 1.000000 14 0.000000
348 2 -658.266000 -1083.050000 -52.584400 1 1.000000 14 -3.000000
349 2 -654.491000 -1077.630000 -45.214700 1 1.000000 1 -3.000000
350 2 -650.792000 -1072.300000 -37.837500 1 1.000000 1 -3.000000
351 2 -650.176000 -1066.180000 -30.031700 1 1.000000 1 -3.000000
352 2 -648.373000 -1060.930000 -21.828400 1 1.000000 1 -3.000000
353 2 -650.169000 -1055.070000 -13.973200 1 1.000000 1 -3.000000
354 2 -654.538000 -1050.150000 -6.499090 1 1.000000 1 -3.000000
355 2 -658.515000 -1047.180000 1.976460 1 1.000000 1 -3.000000
356 2 -662.274000 -1043.570000 10.398800 1 1.000000 1 -3.000000
357 2 -665.686000 -1040.750000 19.321800 1 1.000000 1 -3.000000
358 2 -671.685000 -1037.870000 26.603200 1 1.000000 1 -3.000000
359 2 -677.544000 -1034.000000 33.514100 1 1.000000 1 -3.000000
360 2 -685.299000 -1030.770000 38.908900 1 1.000000 1 -3.000000
361 2 -692.812000 -1029.090000 45.144500 1 1.000000 1 -3.000000
362 2 -700.247000 -1028.330000 51.626100 1 1.000000 1 -3.000000
363 2 -707.792000 -1026.130000 57.687200 1 1.000000 1 -3.000000
364 2 -714.856000 -1025.590000 64.704500 1 1.000000 1 -3.000000
365 2 -723.186000 -1025.460000 70.063100 1 1.000000 1 -3.000000
366 2 -729.793000 -1027.260000 77.272900 1 1.000000 1 -3.000000
367 2 -736.006000 -1028.170000 85.034600 1 1.000000 1 -3.000000
368 2 -740.648000 -1030.940000 93.339100 1 1.000000 1 -3.000000
369 2 -745.733000 -1036.590000 99.697300 1 1.000000 1 -3.000000
370 2 -748.098000 -1042.370000 107.272000 1 1.000000 1 -3.000000
371 2 -748.562000 -1049.090000 114.486000 1 1.000000 1 -3.000000
372 2 -751.609000 -1057.060000 119.498000 1 1.000000 15 -3.000000
373 1 -708.486000 -1074.300000 127.635000 1 1.000000 15 0.000000
374 3 -702.145000 -1044.870000 109.792000 1 1.000000 15 0.000000
375 2 -661.367000 -1072.480000 126.423000 1 1.000000 15 -3.000000
376 2 -660.695000 -1064.600000 120.360000 1 1.000000 1 -3.000000
377 2 -657.883000 -1057.320000 114.264000 1 1.000000 1 -3.000000
378 2 -657.542000 -1048.180000 110.580000 1 1.000000 1 -3.000000
379 2 -657.339000 -1038.510000 108.316000 1 1.000000 1 -3.000000
380 2 -660.796000 -1029.770000 105.299000 1 1.000000 1 -3.000000
381 2 -664.282000 -1021.140000 101.882000 1 1.000000 1 -3.000000
382 2 -666.631000 -1011.920000 99.185800 1 1.000000 1 -3.000000
383 2 -666.175000 -1002.110000 98.141500 1 1.000000 1 -3.000000
384 2 -667.237000 -992.270000 99.015600 1 1.000000 1 -3.000000
385 2 -666.365000 -982.537000 99.659500 1 1.000000 1 -3.000000
386 2 -666.935000 -973.050000 102.544000 1 1.000000 1 -3.000000
387 2 -666.025000 -963.298000 103.699000 1 1.000000 1 -3.000000
388 2 -665.143000 -953.542000 105.171000 1 1.000000 1 -3.000000
389 2 -664.090000 -943.639000 105.403000 1 1.000000 1 -3.000000
390 2 -663.130000 -934.127000 107.633000 1 1.000000 1 -3.000000
391 2 -660.354000 -924.853000 109.518000 1 1.000000 1 -3.000000
392 2 -658.131000 -915.217000 109.712000 1 1.000000 1 -3.000000
393 2 -656.368000 -905.521000 108.355000 1 1.000000 1 -3.000000
394 2 -653.405000 -896.182000 107.332000 1 1.000000 1 -3.000000
395 2 -651.031000 -886.880000 104.805000 1 1.000000 1 -3.000000
396 2 -648.869000 -877.624000 102.082000 1 1.000000 1 -3.000000
397 2 -647.291000 -867.942000 101.123000 1 1.000000 1 -3.000000
398 2 -648.028000 -858.207000 99.823900 1 1.000000 1 -3.000000
399 2 -650.926000 -849.222000 96.790100 1 1.000000 16 -3.000000
400 1 -622.809000 -846.183000 59.037100 1 1.000000 16 0.000000
401 3 -603.634000 -864.452000 81.945200 1 1.000000 16 0.000000
402 2 -583.616000 -856.150000 34.696900 1 1.000000 16 -3.000000
403 2 -580.511000 -864.426000 39.131400 1 1.000000 1 -3.000000
404 2 -577.072000 -871.662000 44.940400 1 1.000000 1 -3.000000
405 2 -571.517000 -876.761000 51.394600 1 1.000000 1 -3.000000
406 2 -568.739000 -882.692000 58.654700 1 1.000000 1 -3.000000
407 2 -566.935000 -886.296000 67.782200 1 1.000000 1 -3.000000
408 2 -565.747000 -890.251000 76.778300 1 1.000000 1 -3.000000
409 2 -562.248000 -894.662000 84.973700 1 1.000000 1 -3.000000
410 2 -557.107000 -898.290000 92.664800 1 1.000000 1 -3.000000
411 2 -550.701000 -900.901000 99.771500 1 1.000000 1 -3.000000
412 2 -546.361000 -902.223000 108.560000 1 1.000000 1 -3.000000
413 2 -542.999000 -904.845000 117.560000 1 1.000000 1 -3.000000
414 2 -538.756000 -907.056000 126.234000 1 1.000000 1 -3.000000
415 2 -536.760000 -909.688000 135.556000 1 1.000000 1 -3.000000
416 2 -533.619000 -913.156000 144.180000 1 1.000000 1 -3.000000
417 2 -532.228000 -917.232000 153.062000 1 1.000000 1 -3.000000
418 2 -530.537000 -923.284000 160.848000 1 1.000000 1 -3.000000
419 2 -530.285000 -927.195000 169.943000 1 1.000000 1 -3.000000
420 2 -532.167000 -932.196000 178.215000 1 1.000000 1 -3.000000
421 2 -535.016000 -934.608000 187.374000 1 1.000000 1 -3.000000
422 2 -536.310000 -935.973000 197.103000 1 1.000000 1 -3.000000
423 2 -539.305000 -934.220000 206.347000 1 1.000000 1 -3.000000
424 2 -542.284000 -931.186000 215.252000 1 1.000000 1 -3.000000
425 2 -545.560000 -928.676000 224.356000 1 1.000000 1 -3.000000
426 2 -550.140000 -924.841000 232.217000 1 1.000000 17 -3.000000
427 1 -521.769000 -887.384000 236.608000 1 1.000000 17 0.000000
428 3 -517.522000 -896.968000 203.259000 1 1.000000 17 0.000000
429 2 -491.823000 -854.942000 219.934000 1 1.000000 17 -3.000000
430 2 -489.886000 -858.760000 211.121000 1 1.000000 1 -3.000000
431 2 -488.016000 -863.641000 202.592000 1 1.000000 1 -3.000000
432 2 -486.544000 -868.459000 194.020000 1 1.000000 1 -3.000000
433 2 -485.257000 -873.849000 185.826000 1 1.000000 1 -3.000000
434 2 -483.995000 -878.574000 177.177000 1 1.000000 1 -3.000000
435 2 -480.328000 -883.282000 169.322000 1 1.000000 1 -3.000000
436 2 -476.993000 -887.199000 160.860000 1 1.000000 1 -3.000000
437 2 -474.445000 -891.343000 152.342000 1 1.000000 1 -3.000000
438 2 -471.110000 -895.231000 143.929000 1 1.000000 1 -3.000000
439 2 -466.000000 -899.887000 136.854000 1 1.000000 1 -3.000000
440 2 -461.350000 -903.932000 129.040000 1 1.000000 1 -3.000000
441 2 -453.536000 -907.960000 124.262000 1 1.000000 1 -3.000000
442 2 -447.467000 -912.263000 117.759000 1 1.000000 1 -3.000000
443 2 -442.894000 -914.049000 109.192000 1 1.000000 1 -3.000000
444 2 -438.052000 -915.997000 100.782000 1 1.000000 1 -3.000000
445 2 -431.147000 -918.291000 94.034400 1 1.000000 1 -3.000000
446 2 -425.215000 -922.415000 87.311000 1 1.000000 1 -3.000000
447 2 -418.508000 -925.764000 80.968200 1 1.000000 1 -3.000000
448 2 -412.835000 -930.132000 74.202300 1 1.000000 1 -3.000000
449 2 -408.756000 -937.253000 68.553300 1 1.000000 1 -3.000000
450 2 -404.016000 -943.909000 63.006200 1 1.000000 1 -3.000000
451 2 -397.910000 -950.397000 58.679900 1 1.000000 1 -3.000000
452 2 -392.828000 -958.112000 55.220200 1 1.000000 1 -3.000000
453 2 -388.117000 -964.659000 49.563800 1 1.000000 18 -3.000000
454 1 -349.487000 -956.768000 75.493800 1 1.000000 18 0.000000
455 3 -375.433000 -946.180000 96.341600 1 1.000000 18 0.000000
456 2 -327.036000 -944.028000 114.986000 1 1.000000 18 -3.000000
457 2 -334.584000 -942.819000 121.232000 1 1.000000 1 -3.000000
458 2 -341.729000 -942.973000 128.050000 1 1.000000 1 -3.000000
459 2 -350.502000 -942.899000 132.696000 1 1.000000 1 -3.000000
460 2 -359.518000 -941.813000 136.452000 1 1.000000 1 -3.000000
461 2 -368.671000 -943.375000 139.801000 1 1.000000 1 -3.000000
462 2 -378.170000 -945.768000 141.615000 1 1.000000 1 -3.000000
463 2 -387.468000 -948.862000 141.122000 1 1.000000 1 -3.000000
464 2 -397.337000 -950.292000 141.612000 1 1.000000 1 -3.000000
465 2 -407.068000 -950.331000 143.622000 1 1.000000 1 -3.000000
466 2 -416.670000 -949.187000 145.688000 1 1.000000 1 -3.000000
467 2 -425.939000 -948.739000 149.199000 1 1.000000 1 -3.000000