LAMMPS data file

4067 atoms
4067 ellipsoids
4516 bonds
8882 angles
0 dihedrals

3 atom types
5 bond types
12 angle types
0 dihedral types

-4631.092947 4670.465898 xlo xhi
-4631.092947 4670.465898 ylo yhi
-4631.092947 4670.465898 zlo zhi

Masses

1 196016.000000
2 1950.000000
3 19500.000000

Atoms

1 2 87.113600 -1637.710000 1018.360000 1 1.000000 1 -3.000000
2 2 85.713900 -1628.020000 1016.680000 1 1.000000 1 -3.000000
3 2 83.942800 -1618.460000 1014.860000 1 1.000000 1 -3.000000
4 2 81.432500 -1609.230000 1012.420000 1 1.000000 1 -3.000000
5 2 79.405700 -1600.500000 1008.180000 1 1.000000 1 -3.000000
6 2 75.912300 -1591.700000 1005.380000 1 1.000000 1 -3.000000
7 2 72.669500 -1582.360000 1005.070000 1 1.000000 1 -3.000000
8 2 71.131800 -1572.660000 1003.810000 1 1.000000 1 -3.000000
9 2 71.659000 -1562.760000 1004.120000 1 1.000000 1 -3.000000
10 2 72.024100 -1552.960000 1002.650000 1 1.000000 1 -3.000000
11 2 71.674700 -1543.520000 999.959000 1 1.000000 1 -3.000000
12 2 69.938300 -1533.750000 1000.780000 1 1.000000 1 -3.000000
13 2 66.815200 -1524.490000 1002.430000 1 1.000000 1 -3.000000
14 2 61.606700 -1516.340000 1004.780000 1 1.000000 1 -3.000000
15 2 56.693800 -1507.700000 1004.710000 1 1.000000 1 -3.000000
16 2 51.769300 -1499.130000 1003.750000 1 1.000000 1 -3.000000
17 2 46.999400 -1490.820000 1000.700000 1 1.000000 1 -3.000000
18 2 42.820600 -1483.010000 996.367000 1 1.000000 1 -3.000000
19 2 39.667400 -1475.480000 990.750000 1 1.000000 1 -3.000000
20 2 37.886900 -1468.200000 984.285000 1 1.000000 1 -3.000000
21 2 39.473900 -1460.040000 978.987000 1 1.000000 2 -3.000000
22 1 75.236500 -1469.230000 949.539000 1 1.000000 2 0.000000
23 3 67.573500 -1500.720000 962.740000 1 1.000000 2 0.000000
24 2 106.910000 -1497.550000 929.110000 1 1.000000 2 -3.000000
25 2 102.013000 -1506.060000 929.883000 1 1.000000 1 -3.000000
26 2 97.030300 -1514.560000 931.305000 1 1.000000 1 -3.000000
27 2 92.639400 -1523.300000 933.002000 1 1.000000 1 -3.000000
28 2 87.694100 -1531.250000 936.224000 1 1.000000 1 -3.000000
29 2 79.920700 -1537.020000 938.608000 1 1.000000 1 -3.000000
30 2 72.300000 -1541.790000 942.788000 1 1.000000 1 -3.000000
31 2 64.202500 -1546.320000 946.123000 1 1.000000 1 -3.000000
32 2 55.161800 -1547.690000 949.961000 1 1.000000 1 -3.000000
33 2 45.783800 -1548.740000 952.985000 1 1.000000 1 -3.000000
34 2 36.781000 -1548.840000 957.064000 1 1.000000 1 -3.000000
35 2 27.952800 -1547.910000 961.290000 1 1.000000 1 -3.000000
36 2 20.304500 -1548.940000 967.499000 1 1.000000 1 -3.000000
37 2 13.176900 -1548.950000 974.386000 1 1.000000 1 -3.000000
38 2 6.345640 -1548.940000 981.598000 1 1.000000 1 -3.000000
39 2 -0.218829 -1550.400000 988.885000 1 1.000000 1 -3.000000
40 2 -7.655040 -1550.300000 995.498000 1 1.000000 1 -3.000000
41 2 -15.264100 -1549.510000 1001.800000 1 1.000000 1 -3.000000
42 2 -22.009900 -1549.100000 1008.980000 1 1.000000 1 -3.000000
43 2 -28.006300 -1547.310000 1016.760000 1 1.000000 1 -3.000000
44 2 -34.748900 -1542.850000 1022.390000 1 1.000000 1 -3.000000
45 2 -40.929200 -1538.940000 1028.950000 1 1.000000 1 -3.000000
46 2 -47.710000 -1535.570000 1035.300000 1 1.000000 1 -3.000000
47 2 -54.311900 -1533.370000 1042.330000 1 1.000000 1 -3.000000
48 2 -61.149500 -1529.890000 1048.580000 1 1.000000 3 -3.000000
49 1 -99.333700 -1545.920000 1025.940000 1 1.000000 3 0.000000
50 3 -73.362400 -1565.190000 1012.630000 1 1.000000 3 0.000000
51 2 -121.163000 -1572.100000 993.345000 1 1.000000 3 -3.000000
52 2 -113.358000 -1578.120000 992.636000 1 1.000000 1 -3.000000
53 2 -106.758000 -1585.490000 993.032000 1 1.000000 1 -3.000000
54 2 -99.781200 -1592.570000 992.959000 1 1.000000 1 -3.000000
55 2 -92.061600 -1598.580000 992.049000 1 1.000000 1 -3.000000
56 2 -83.364500 -1603.370000 991.975000 1 1.000000 1 -3.000000
57 2 -74.129500 -1606.680000 993.197000 1 1.000000 1 -3.000000
58 2 -64.783700 -1609.720000 993.827000 1 1.000000 1 -3.000000
59 2 -55.163700 -1611.030000 995.648000 1 1.000000 1 -3.000000
60 2 -45.770800 -1614.090000 995.954000 1 1.000000 1 -3.000000
61 2 -35.918400 -1614.750000 995.499000 1 1.000000 1 -3.000000
62 2 -26.298100 -1617.250000 994.994000 1 1.000000 1 -3.000000
63 2 -17.120100 -1620.330000 996.419000 1 1.000000 1 -3.000000
64 2 -7.274330 -1621.230000 996.868000 1 1.000000 1 -3.000000
65 2 1.884000 -1622.580000 1000.340000 1 1.000000 1 -3.000000
66 2 11.377600 -1625.150000 1001.350000 1 1.000000 1 -3.000000
67 2 20.332300 -1629.260000 1002.250000 1 1.000000 1 -3.000000
68 2 28.499700 -1634.760000 1002.930000 1 1.000000 1 -3.000000
69 2 36.869700 -1639.860000 1004.420000 1 1.000000 1 -3.000000
70 2 45.710400 -1643.770000 1006.600000 1 1.000000 1 -3.000000
71 2 53.277800 -1649.520000 1009.540000 1 1.000000 1 -3.000000
72 2 62.016100 -1654.070000 1010.580000 1 1.000000 1 -3.000000
73 2 70.214300 -1659.430000 1011.340000 1 1.000000 1 -3.000000
74 2 77.625100 -1666.010000 1012.200000 1 1.000000 1 -3.000000
75 2 85.084600 -1672.460000 1013.450000 1 1.000000 4 -3.000000
76 1 79.167600 -1696.430000 973.203000 1 1.000000 4 0.000000
77 3 51.716700 -1674.600000 973.650000 1 1.000000 4 0.000000
78 2 55.126400 -1708.150000 934.256000 1 1.000000 4 -3.000000
79 2 48.341500 -1701.190000 935.663000 1 1.000000 1 -3.000000
80 2 42.013700 -1694.000000 937.875000 1 1.000000 1 -3.000000
81 2 35.494300 -1686.730000 939.631000 1 1.000000 1 -3.000000
82 2 27.821700 -1680.930000 942.017000 1 1.000000 1 -3.000000
83 2 20.123300 -1674.960000 943.583000 1 1.000000 1 -3.000000
84 2 12.007200 -1669.960000 946.248000 1 1.000000 1 -3.000000
85 2 3.992040 -1665.070000 949.306000 1 1.000000 1 -3.000000
86 2 -4.083090 -1662.190000 954.358000 1 1.000000 1 -3.000000
87 2 -12.849300 -1660.780000 958.603000 1 1.000000 1 -3.000000
88 2 -21.661200 -1661.550000 963.114000 1 1.000000 1 -3.000000
89 2 -31.032300 -1660.840000 966.475000 1 1.000000 1 -3.000000
90 2 -40.095400 -1662.430000 970.212000 1 1.000000 1 -3.000000
91 2 -48.611900 -1664.600000 974.644000 1 1.000000 1 -3.000000
92 2 -57.472400 -1667.830000 977.689000 1 1.000000 1 -3.000000
93 2 -67.047700 -1670.050000 978.066000 1 1.000000 1 -3.000000
94 2 -76.840700 -1671.290000 978.272000 1 1.000000 1 -3.000000
95 2 -86.620700 -1672.580000 977.570000 1 1.000000 1 -3.000000
96 2 -96.495900 -1673.440000 976.755000 1 1.000000 1 -3.000000
97 2 -106.351000 -1673.200000 977.704000 1 1.000000 1 -3.000000
98 2 -116.239000 -1673.300000 978.473000 1 1.000000 1 -3.000000
99 2 -126.055000 -1672.140000 978.169000 1 1.000000 1 -3.000000
100 2 -135.772000 -1670.440000 978.510000 1 1.000000 1 -3.000000
101 2 -145.549000 -1668.960000 977.454000 1 1.000000 1 -3.000000
102 2 -155.166000 -1669.680000 975.570000 1 1.000000 5 -3.000000
103 1 -153.644000 -1637.670000 941.035000 1 1.000000 5 0.000000
104 3 -121.423000 -1651.430000 940.650000 1 1.000000 5 0.000000
105 2 -132.091000 -1613.750000 906.541000 1 1.000000 5 -3.000000
106 2 -123.371000 -1618.270000 907.179000 1 1.000000 1 -3.000000
107 2 -114.511000 -1622.280000 905.292000 1 1.000000 1 -3.000000
108 2 -107.019000 -1628.880000 905.817000 1 1.000000 1 -3.000000
109 2 -100.940000 -1636.650000 905.214000 1 1.000000 1 -3.000000
110 2 -95.988100 -1645.240000 905.563000 1 1.000000 1 -3.000000
111 2 -90.083500 -1653.180000 905.461000 1 1.000000 1 -3.000000
112 2 -82.879400 -1659.930000 904.240000 1 1.000000 1 -3.000000
113 2 -74.835100 -1665.670000 904.191000 1 1.000000 1 -3.000000
114 2 -65.903100 -1669.990000 903.523000 1 1.000000 1 -3.000000
115 2 -56.877800 -1673.060000 901.003000 1 1.000000 1 -3.000000
116 2 -48.834400 -1677.210000 897.027000 1 1.000000 1 -3.000000
117 2 -40.765800 -1682.010000 893.787000 1 1.000000 1 -3.000000
118 2 -34.196800 -1687.550000 888.733000 1 1.000000 1 -3.000000
119 2 -29.686900 -1692.340000 881.275000 1 1.000000 1 -3.000000
120 2 -25.014400 -1697.290000 874.171000 1 1.000000 1 -3.000000
121 2 -21.423100 -1701.440000 865.847000 1 1.000000 1 -3.000000
122 2 -18.467600 -1706.240000 857.714000 1 1.000000 1 -3.000000
123 2 -15.027500 -1710.800000 849.699000 1 1.000000 1 -3.000000
124 2 -12.433400 -1716.720000 842.154000 1 1.000000 1 -3.000000
125 2 -10.850200 -1722.680000 834.213000 1 1.000000 1 -3.000000
126 2 -11.158800 -1725.750000 824.870000 1 1.000000 1 -3.000000
127 2 -9.676090 -1728.660000 815.521000 1 1.000000 1 -3.000000
128 2 -8.634000 -1729.900000 805.754000 1 1.000000 1 -3.000000
129 2 -5.674140 -1727.090000 796.622000 1 1.000000 6 -3.000000
130 1 37.446500 -1743.900000 805.892000 1 1.000000 6 0.000000
131 3 17.580800 -1758.790000 830.520000 1 1.000000 6 0.000000
132 2 68.491400 -1768.900000 831.129000 1 1.000000 6 -3.000000
133 2 61.897100 -1775.270000 834.922000 1 1.000000 1 -3.000000
134 2 55.992800 -1781.260000 840.129000 1 1.000000 1 -3.000000
135 2 48.819200 -1787.150000 843.569000 1 1.000000 1 -3.000000
136 2 40.740100 -1791.840000 846.529000 1 1.000000 1 -3.000000
137 2 32.422800 -1797.350000 846.997000 1 1.000000 1 -3.000000
138 2 23.490300 -1801.000000 849.066000 1 1.000000 1 -3.000000
139 2 16.149600 -1806.620000 852.631000 1 1.000000 1 -3.000000
140 2 9.096160 -1811.920000 857.152000 1 1.000000 1 -3.000000
141 2 2.507290 -1817.770000 861.581000 1 1.000000 1 -3.000000
142 2 -1.710710 -1825.340000 866.394000 1 1.000000 1 -3.000000
143 2 -7.043180 -1830.240000 873.186000 1 1.000000 1 -3.000000
144 2 -12.452800 -1835.150000 879.906000 1 1.000000 1 -3.000000
145 2 -15.872000 -1839.110000 888.262000 1 1.000000 1 -3.000000
146 2 -16.888500 -1843.070000 897.242000 1 1.000000 1 -3.000000
147 2 -18.127100 -1848.020000 905.712000 1 1.000000 1 -3.000000
148 2 -19.850300 -1851.580000 914.770000 1 1.000000 1 -3.000000
149 2 -22.124300 -1854.460000 923.961000 1 1.000000 1 -3.000000
150 2 -23.032400 -1857.620000 933.253000 1 1.000000 1 -3.000000
151 2 -22.936500 -1859.670000 942.974000 1 1.000000 1 -3.000000
152 2 -24.867700 -1859.850000 952.735000 1 1.000000 1 -3.000000
153 2 -26.047200 -1861.370000 962.523000 1 1.000000 1 -3.000000
154 2 -26.974200 -1865.630000 971.438000 1 1.000000 1 -3.000000
155 2 -32.649700 -1868.680000 979.058000 1 1.000000 1 -3.000000
156 2 -39.422700 -1870.080000 986.144000 1 1.000000 7 -3.000000
157 1 -55.695600 -1911.140000 969.558000 1 1.000000 7 0.000000
158 3 -29.352000 -1903.680000 947.671000 1 1.000000 7 0.000000
159 2 -55.591100 -1947.630000 939.611000 1 1.000000 7 -3.000000
160 2 -47.207200 -1948.550000 934.437000 1 1.000000 1 -3.000000
161 2 -38.879500 -1948.870000 929.353000 1 1.000000 1 -3.000000
162 2 -29.155300 -1947.240000 928.512000 1 1.000000 1 -3.000000
163 2 -19.782900 -1944.090000 928.290000 1 1.000000 1 -3.000000
164 2 -10.898400 -1939.840000 927.280000 1 1.000000 1 -3.000000
165 2 -2.956370 -1933.910000 927.977000 1 1.000000 1 -3.000000
166 2 4.270450 -1927.160000 927.237000 1 1.000000 1 -3.000000
167 2 10.967500 -1919.760000 927.352000 1 1.000000 1 -3.000000
168 2 17.114400 -1912.040000 928.716000 1 1.000000 1 -3.000000
169 2 23.576800 -1905.180000 931.643000 1 1.000000 1 -3.000000
170 2 31.644100 -1899.420000 932.507000 1 1.000000 1 -3.000000
171 2 39.346700 -1893.310000 931.868000 1 1.000000 1 -3.000000
172 2 46.548500 -1886.670000 930.411000 1 1.000000 1 -3.000000
173 2 55.391700 -1882.200000 929.927000 1 1.000000 1 -3.000000
174 2 64.733400 -1878.870000 929.672000 1 1.000000 1 -3.000000
175 2 72.927300 -1874.570000 926.289000 1 1.000000 1 -3.000000
176 2 81.230800 -1870.250000 922.850000 1 1.000000 1 -3.000000
177 2 89.540200 -1865.420000 920.687000 1 1.000000 1 -3.000000
178 2 98.267000 -1861.830000 917.841000 1 1.000000 1 -3.000000
179 2 107.690000 -1860.080000 915.401000 1 1.000000 1 -3.000000
180 2 116.495000 -1858.340000 911.095000 1 1.000000 1 -3.000000
181 2 124.601000 -1858.270000 905.402000 1 1.000000 1 -3.000000
182 2 132.615000 -1860.940000 900.129000 1 1.000000 1 -3.000000
183 2 140.113000 -1864.190000 894.626000 1 1.000000 8 -3.000000
184 1 119.278000 -1880.630000 855.635000 1 1.000000 8 0.000000
185 3 92.892000 -1865.640000 873.100000 1 1.000000 8 0.000000
186 2 82.385500 -1886.960000 826.903000 1 1.000000 8 -3.000000
187 2 76.089400 -1881.030000 831.930000 1 1.000000 1 -3.000000
188 2 69.861100 -1874.020000 834.945000 1 1.000000 1 -3.000000
189 2 64.522300 -1866.420000 838.412000 1 1.000000 1 -3.000000
190 2 59.937600 -1858.960000 842.880000 1 1.000000 1 -3.000000
191 2 56.601800 -1850.800000 847.353000 1 1.000000 1 -3.000000
192 2 52.561500 -1843.590000 852.884000 1 1.000000 1 -3.000000
193 2 50.065000 -1836.090000 858.764000 1 1.000000 1 -3.000000
194 2 46.939800 -1828.060000 863.741000 1 1.000000 1 -3.000000
195 2 42.812700 -1821.240000 869.458000 1 1.000000 1 -3.000000
196 2 37.902900 -1814.520000 874.751000 1 1.000000 1 -3.000000
197 2 32.684900 -1807.230000 879.008000 1 1.000000 1 -3.000000
198 2 29.645200 -1798.450000 882.627000 1 1.000000 1 -3.000000
199 2 26.029500 -1790.040000 886.589000 1 1.000000 1 -3.000000
200 2 22.105900 -1782.010000 890.854000 1 1.000000 1 -3.000000
201 2 16.831600 -1774.150000 893.795000 1 1.000000 1 -3.000000
202 2 12.799900 -1765.980000 897.670000 1 1.000000 1 -3.000000
203 2 11.693600 -1758.290000 903.747000 1 1.000000 1 -3.000000
204 2 12.535000 -1751.570000 910.927000 1 1.000000 1 -3.000000
205 2 13.465300 -1744.630000 917.895000 1 1.000000 1 -3.000000
206 2 16.170700 -1739.040000 925.656000 1 1.000000 1 -3.000000
207 2 21.448300 -1734.980000 932.987000 1 1.000000 1 -3.000000
208 2 27.109300 -1731.950000 940.595000 1 1.000000 1 -3.000000
209 2 32.078900 -1730.640000 948.976000 1 1.000000 1 -3.000000
210 2 36.045100 -1728.470000 957.824000 1 1.000000 9 -3.000000
211 1 62.303300 -1767.430000 962.319000 1 1.000000 9 0.000000
212 3 49.363400 -1770.080000 929.949000 1 1.000000 9 0.000000
213 2 82.450000 -1806.870000 946.119000 1 1.000000 9 -3.000000
214 2 78.166700 -1805.840000 937.238000 1 1.000000 1 -3.000000
215 2 75.710500 -1805.960000 927.618000 1 1.000000 1 -3.000000
216 2 73.131100 -1805.010000 918.117000 1 1.000000 1 -3.000000
217 2 71.667400 -1801.390000 909.056000 1 1.000000 1 -3.000000
218 2 67.333800 -1795.480000 902.450000 1 1.000000 1 -3.000000
219 2 64.408100 -1788.660000 895.940000 1 1.000000 1 -3.000000
220 2 61.694000 -1781.510000 889.705000 1 1.000000 1 -3.000000
221 2 57.889600 -1774.580000 883.717000 1 1.000000 1 -3.000000
222 2 53.981600 -1768.020000 877.468000 1 1.000000 1 -3.000000
223 2 49.704100 -1761.880000 871.069000 1 1.000000 1 -3.000000
224 2 44.772900 -1756.050000 864.697000 1 1.000000 1 -3.000000
225 2 39.606600 -1750.600000 858.412000 1 1.000000 1 -3.000000
226 2 34.278800 -1744.770000 852.346000 1 1.000000 1 -3.000000
227 2 27.758700 -1738.810000 847.830000 1 1.000000 1 -3.000000
228 2 23.809000 -1732.110000 841.682000 1 1.000000 1 -3.000000
229 2 19.260000 -1726.350000 835.003000 1 1.000000 1 -3.000000
230 2 14.794900 -1718.780000 830.486000 1 1.000000 1 -3.000000
231 2 8.556260 -1712.740000 825.801000 1 1.000000 1 -3.000000
232 2 2.963900 -1706.530000 820.540000 1 1.000000 1 -3.000000
233 2 -1.749960 -1699.410000 815.617000 1 1.000000 1 -3.000000
234 2 -6.050230 -1691.710000 811.102000 1 1.000000 1 -3.000000
235 2 -11.732300 -1684.900000 806.852000 1 1.000000 1 -3.000000
236 2 -18.340500 -1679.500000 801.805000 1 1.000000 1 -3.000000
237 2 -22.689900 -1673.280000 795.572000 1 1.000000 10 -3.000000
238 1 -36.236300 -1706.120000 764.522000 1 1.000000 10 0.000000
239 3 -31.867500 -1724.470000 794.122000 1 1.000000 10 0.000000
240 2 -48.581800 -1749.940000 752.152000 1 1.000000 10 -3.000000
241 2 -46.819500 -1755.070000 760.499000 1 1.000000 1 -3.000000
242 2 -46.754400 -1758.140000 769.880000 1 1.000000 1 -3.000000
243 2 -46.693700 -1761.230000 779.383000 1 1.000000 1 -3.000000
244 2 -49.690800 -1761.660000 788.792000 1 1.000000 1 -3.000000
245 2 -52.145000 -1764.070000 798.041000 1 1.000000 1 -3.000000
246 2 -55.558500 -1767.650000 806.647000 1 1.000000 1 -3.000000
247 2 -58.925500 -1772.220000 814.762000 1 1.000000 1 -3.000000
248 2 -63.193800 -1777.410000 822.084000 1 1.000000 1 -3.000000
249 2 -68.328500 -1782.190000 829.065000 1 1.000000 1 -3.000000
250 2 -72.672200 -1789.670000 834.063000 1 1.000000 1 -3.000000
251 2 -76.950100 -1798.380000 836.364000 1 1.000000 1 -3.000000
252 2 -83.127700 -1805.990000 837.648000 1 1.000000 1 -3.000000
253 2 -88.590600 -1814.150000 839.017000 1 1.000000 1 -3.000000
254 2 -96.458300 -1820.010000 839.769000 1 1.000000 1 -3.000000
255 2 -105.032000 -1824.360000 842.063000 1 1.000000 1 -3.000000
256 2 -113.142000 -1828.640000 845.588000 1 1.000000 1 -3.000000
257 2 -121.200000 -1833.390000 848.872000 1 1.000000 1 -3.000000
258 2 -129.347000 -1838.270000 851.627000 1 1.000000 1 -3.000000
259 2 -136.186000 -1843.140000 856.844000 1 1.000000 1 -3.000000
260 2 -142.179000 -1850.530000 859.518000 1 1.000000 1 -3.000000
261 2 -148.807000 -1857.840000 859.755000 1 1.000000 1 -3.000000
262 2 -156.438000 -1864.090000 858.574000 1 1.000000 1 -3.000000
263 2 -164.672000 -1869.180000 856.585000 1 1.000000 1 -3.000000
264 2 -172.853000 -1874.820000 856.155000 1 1.000000 11 -3.000000
265 1 -199.643000 -1846.410000 829.741000 1 1.000000 11 0.000000
266 3 -167.809000 -1832.020000 827.149000 1 1.000000 11 0.000000
267 2 -206.917000 -1809.090000 801.794000 1 1.000000 11 -3.000000
268 2 -197.417000 -1807.330000 800.117000 1 1.000000 1 -3.000000
269 2 -188.048000 -1805.200000 797.902000 1 1.000000 1 -3.000000
270 2 -178.829000 -1802.250000 795.579000 1 1.000000 1 -3.000000
271 2 -169.290000 -1802.700000 792.752000 1 1.000000 1 -3.000000
272 2 -159.587000 -1802.920000 790.730000 1 1.000000 1 -3.000000
273 2 -150.084000 -1804.070000 788.288000 1 1.000000 1 -3.000000
274 2 -140.585000 -1805.840000 786.007000 1 1.000000 1 -3.000000
275 2 -131.287000 -1808.650000 784.137000 1 1.000000 1 -3.000000
276 2 -122.324000 -1812.210000 781.912000 1 1.000000 1 -3.000000
277 2 -113.005000 -1814.940000 780.094000 1 1.000000 1 -3.000000
278 2 -103.247000 -1815.210000 778.656000 1 1.000000 1 -3.000000
279 2 -93.808000 -1815.280000 775.689000 1 1.000000 1 -3.000000
280 2 -84.444600 -1817.610000 773.224000 1 1.000000 1 -3.000000
281 2 -74.517400 -1817.960000 773.121000 1 1.000000 1 -3.000000
282 2 -64.707100 -1817.080000 774.188000 1 1.000000 1 -3.000000
283 2 -54.969500 -1815.280000 774.318000 1 1.000000 1 -3.000000
284 2 -45.354400 -1812.910000 774.190000 1 1.000000 1 -3.000000
285 2 -35.871500 -1810.470000 773.724000 1 1.000000 1 -3.000000
286 2 -26.360400 -1810.260000 776.554000 1 1.000000 1 -3.000000
287 2 -18.095100 -1809.440000 782.022000 1 1.000000 1 -3.000000
288 2 -11.225300 -1811.380000 788.834000 1 1.000000 1 -3.000000
289 2 -4.416900 -1814.250000 795.390000 1 1.000000 1 -3.000000
290 2 1.794210 -1819.210000 801.381000 1 1.000000 1 -3.000000
291 2 9.207490 -1822.350000 807.094000 1 1.000000 12 -3.000000
292 1 -19.587900 -1850.990000 831.133000 1 1.000000 12 0.000000
293 3 -37.292100 -1844.910000 801.642000 1 1.000000 12 0.000000
294 2 -59.374600 -1875.620000 837.215000 1 1.000000 12 -3.000000
295 2 -61.433100 -1876.490000 827.504000 1 1.000000 1 -3.000000
296 2 -62.014900 -1877.380000 817.703000 1 1.000000 1 -3.000000
297 2 -64.009000 -1878.370000 807.999000 1 1.000000 1 -3.000000
298 2 -65.362000 -1880.740000 798.458000 1 1.000000 1 -3.000000
299 2 -67.799800 -1882.230000 788.935000 1 1.000000 1 -3.000000
300 2 -70.172200 -1882.920000 779.293000 1 1.000000 1 -3.000000
301 2 -72.284900 -1882.380000 769.517000 1 1.000000 1 -3.000000
302 2 -71.952500 -1882.560000 759.612000 1 1.000000 1 -3.000000
303 2 -72.462700 -1881.470000 749.795000 1 1.000000 1 -3.000000
304 2 -74.554900 -1879.420000 740.262000 1 1.000000 1 -3.000000
305 2 -75.695300 -1877.550000 730.673000 1 1.000000 1 -3.000000
306 2 -75.791600 -1874.840000 721.107000 1 1.000000 1 -3.000000
307 2 -75.593400 -1869.970000 712.545000 1 1.000000 1 -3.000000
308 2 -77.167000 -1865.780000 703.622000 1 1.000000 1 -3.000000
309 2 -77.938300 -1863.130000 694.082000 1 1.000000 1 -3.000000
310 2 -80.697500 -1860.590000 684.902000 1 1.000000 1 -3.000000
311 2 -86.578200 -1857.870000 677.462000 1 1.000000 1 -3.000000
312 2 -93.112700 -1853.650000 671.361000 1 1.000000 1 -3.000000
313 2 -99.857700 -1848.240000 666.485000 1 1.000000 1 -3.000000
314 2 -103.443000 -1840.800000 661.124000 1 1.000000 1 -3.000000
315 2 -105.988000 -1832.760000 656.012000 1 1.000000 1 -3.000000
316 2 -108.076000 -1823.760000 652.252000 1 1.000000 1 -3.000000
317 2 -110.418000 -1814.240000 651.172000 1 1.000000 1 -3.000000
318 2 -112.791000 -1804.830000 648.972000 1 1.000000 13 -3.000000
319 1 -78.806000 -1783.470000 673.816000 1 1.000000 13 0.000000
320 3 -69.172800 -1817.110000 674.303000 1 1.000000 13 0.000000
321 2 -39.524400 -1783.080000 699.967000 1 1.000000 13 -3.000000
322 2 -36.997000 -1791.780000 695.943000 1 1.000000 1 -3.000000
323 2 -32.198000 -1800.220000 693.832000 1 1.000000 1 -3.000000
324 2 -28.626500 -1809.110000 691.319000 1 1.000000 1 -3.000000
325 2 -26.036100 -1816.980000 686.110000 1 1.000000 1 -3.000000
326 2 -25.100600 -1824.410000 679.540000 1 1.000000 1 -3.000000
327 2 -25.274700 -1830.950000 672.082000 1 1.000000 1 -3.000000
328 2 -26.308400 -1837.150000 664.514000 1 1.000000 1 -3.000000
329 2 -27.181800 -1842.820000 656.512000 1 1.000000 1 -3.000000
330 2 -27.128200 -1843.960000 646.668000 1 1.000000 1 -3.000000
331 2 -29.140100 -1845.660000 637.154000 1 1.000000 1 -3.000000
332 2 -33.016100 -1846.920000 628.117000 1 1.000000 1 -3.000000
333 2 -37.986600 -1847.300000 619.518000 1 1.000000 1 -3.000000
334 2 -42.195900 -1849.470000 610.823000 1 1.000000 1 -3.000000
335 2 -46.442000 -1853.930000 602.997000 1 1.000000 1 -3.000000
336 2 -50.880600 -1857.090000 594.741000 1 1.000000 1 -3.000000
337 2 -55.387200 -1859.450000 586.270000 1 1.000000 1 -3.000000
338 2 -58.429400 -1861.850000 577.131000 1 1.000000 1 -3.000000
339 2 -58.563700 -1864.170000 567.515000 1 1.000000 1 -3.000000
340 2 -60.820800 -1865.200000 558.002000 1 1.000000 1 -3.000000
341 2 -64.480300 -1864.010000 548.896000 1 1.000000 1 -3.000000
342 2 -68.947400 -1860.860000 540.666000 1 1.000000 1 -3.000000
343 2 -75.186500 -1857.410000 533.737000 1 1.000000 1 -3.000000
344 2 -79.927100 -1852.280000 526.755000 1 1.000000 1 -3.000000
345 2 -84.396600 -1845.110000 521.579000 1 1.000000 14 -3.000000
346 1 -75.593900 -1802.630000 540.176000 1 1.000000 14 0.000000
347 3 -49.086500 -1822.350000 552.029000 1 1.000000 14 0.000000
348 2 -49.795100 -1771.990000 565.102000 1 1.000000 14 -3.000000
349 2 -42.433900 -1775.000000 559.230000 1 1.000000 1 -3.000000
350 2 -35.018900 -1779.580000 554.500000 1 1.000000 1 -3.000000
351 2 -27.362600 -1784.530000 550.781000 1 1.000000 1 -3.000000
352 2 -19.926200 -1789.930000 547.136000 1 1.000000 1 -3.000000
353 2 -12.591100 -1796.580000 547.525000 1 1.000000 1 -3.000000
354 2 -4.917420 -1802.710000 548.403000 1 1.000000 1 -3.000000
355 2 2.952840 -1808.670000 548.472000 1 1.000000 1 -3.000000
356 2 9.754250 -1815.880000 548.422000 1 1.000000 1 -3.000000
357 2 16.552200 -1823.050000 549.083000 1 1.000000 1 -3.000000
358 2 23.659000 -1830.080000 548.804000 1 1.000000 1 -3.000000
359 2 29.163500 -1838.350000 548.565000 1 1.000000 1 -3.000000
360 2 34.176900 -1846.340000 551.514000 1 1.000000 1 -3.000000
361 2 40.142400 -1854.180000 552.635000 1 1.000000 1 -3.000000
362 2 45.252100 -1862.580000 554.133000 1 1.000000 1 -3.000000
363 2 50.667900 -1870.900000 555.338000 1 1.000000 1 -3.000000
364 2 55.857000 -1879.160000 556.859000 1 1.000000 1 -3.000000
365 2 60.815800 -1887.570000 558.044000 1 1.000000 1 -3.000000
366 2 65.227800 -1896.090000 560.633000 1 1.000000 1 -3.000000
367 2 71.194700 -1903.740000 562.748000 1 1.000000 1 -3.000000
368 2 76.540600 -1912.000000 562.369000 1 1.000000 1 -3.000000
369 2 81.290000 -1920.410000 564.440000 1 1.000000 1 -3.000000
370 2 84.935600 -1929.620000 565.413000 1 1.000000 1 -3.000000
371 2 88.810300 -1938.720000 565.015000 1 1.000000 1 -3.000000
372 2 93.483400 -1947.420000 564.225000 1 1.000000 15 -3.000000
373 1 53.294600 -1971.140000 557.333000 1 1.000000 15 0.000000
374 3 46.573000 -1939.800000 543.382000 1 1.000000 15 0.000000
375 2 8.557820 -1975.210000 542.968000 1 1.000000 15 -3.000000
376 2 7.127400 -1968.490000 535.785000 1 1.000000 1 -3.000000
377 2 6.593150 -1961.590000 528.685000 1 1.000000 1 -3.000000
378 2 8.131830 -1954.120000 522.394000 1 1.000000 1 -3.000000
379 2 10.255000 -1945.950000 517.160000 1 1.000000 1 -3.000000
380 2 13.685400 -1937.650000 512.939000 1 1.000000 1 -3.000000
381 2 18.621400 -1930.330000 508.503000 1 1.000000 1 -3.000000
382 2 23.593300 -1922.820000 504.394000 1 1.000000 1 -3.000000
383 2 27.893600 -1916.080000 498.547000 1 1.000000 1 -3.000000
384 2 32.556100 -1909.700000 492.695000 1 1.000000 1 -3.000000
385 2 38.599000 -1903.700000 487.673000 1 1.000000 1 -3.000000
386 2 43.635000 -1896.380000 483.107000 1 1.000000 1 -3.000000
387 2 49.106700 -1889.650000 478.377000 1 1.000000 1 -3.000000
388 2 54.564800 -1882.890000 473.554000 1 1.000000 1 -3.000000
389 2 61.259200 -1877.150000 469.128000 1 1.000000 1 -3.000000
390 2 68.522900 -1871.050000 465.861000 1 1.000000 1 -3.000000
391 2 75.760200 -1865.210000 462.458000 1 1.000000 1 -3.000000
392 2 83.652000 -1859.380000 460.899000 1 1.000000 1 -3.000000
393 2 91.460700 -1853.290000 460.396000 1 1.000000 1 -3.000000
394 2 98.221700 -1846.400000 457.994000 1 1.000000 1 -3.000000
395 2 104.939000 -1839.660000 455.431000 1 1.000000 1 -3.000000
396 2 111.586000 -1832.450000 454.352000 1 1.000000 1 -3.000000
397 2 117.467000 -1824.510000 453.122000 1 1.000000 1 -3.000000
398 2 126.030000 -1819.750000 454.231000 1 1.000000 1 -3.000000
399 2 133.519000 -1813.900000 457.257000 1 1.000000 16 -3.000000
400 1 159.691000 -1838.470000 487.920000 1 1.000000 16 0.000000
401 3 135.516000 -1861.580000 477.629000 1 1.000000 16 0.000000
402 2 172.240000 -1877.980000 510.459000 1 1.000000 16 -3.000000
403 2 169.099000 -1885.150000 504.483000 1 1.000000 1 -3.000000
404 2 163.641000 -1890.020000 497.750000 1 1.000000 1 -3.000000
405 2 157.159000 -1896.040000 493.259000 1 1.000000 1 -3.000000
406 2 152.035000 -1901.280000 486.540000 1 1.000000 1 -3.000000
407 2 146.516000 -1905.740000 479.552000 1 1.000000 1 -3.000000
408 2 141.129000 -1909.660000 472.157000 1 1.000000 1 -3.000000
409 2 135.233000 -1915.420000 466.543000 1 1.000000 1 -3.000000
410 2 130.236000 -1920.920000 459.933000 1 1.000000 1 -3.000000
411 2 125.784000 -1926.010000 452.705000 1 1.000000 1 -3.000000
412 2 121.385000 -1931.190000 445.487000 1 1.000000 1 -3.000000
413 2 117.195000 -1937.660000 439.279000 1 1.000000 1 -3.000000
414 2 112.837000 -1944.930000 434.164000 1 1.000000 1 -3.000000
415 2 107.668000 -1952.550000 430.471000 1 1.000000 1 -3.000000
416 2 102.581000 -1960.250000 426.766000 1 1.000000 1 -3.000000
417 2 97.769000 -1968.020000 423.024000 1 1.000000 1 -3.000000
418 2 94.764400 -1976.860000 419.530000 1 1.000000 1 -3.000000
419 2 91.400400 -1984.130000 413.789000 1 1.000000 1 -3.000000
420 2 87.643900 -1991.880000 408.898000 1 1.000000 1 -3.000000
421 2 82.825100 -2000.100000 406.480000 1 1.000000 1 -3.000000
422 2 78.423300 -2008.630000 404.336000 1 1.000000 1 -3.000000
423 2 72.964000 -2016.820000 404.067000 1 1.000000 1 -3.000000
424 2 66.925000 -2024.280000 406.033000 1 1.000000 1 -3.000000
425 2 59.824000 -2030.630000 408.723000 1 1.000000 1 -3.000000
426 2 53.529800 -2037.640000 411.827000 1 1.000000 17 -3.000000
427 1 25.581200 -2011.440000 439.412000 1 1.000000 17 0.000000
428 3 47.926400 -1988.060000 425.837000 1 1.000000 17 0.000000
429 2 11.625800 -1970.840000 458.946000 1 1.000000 17 -3.000000
430 2 15.989200 -1965.470000 451.740000 1 1.000000 1 -3.000000
431 2 19.231300 -1957.620000 446.553000 1 1.000000 1 -3.000000
432 2 23.242300 -1952.460000 439.099000 1 1.000000 1 -3.000000
433 2 27.429900 -1948.650000 431.072000 1 1.000000 1 -3.000000
434 2 33.058000 -1945.170000 423.746000 1 1.000000 1 -3.000000
435 2 37.459600 -1943.240000 415.154000 1 1.000000 1 -3.000000
436 2 43.310600 -1939.530000 408.157000 1 1.000000 1 -3.000000
437 2 50.531900 -1935.670000 402.577000 1 1.000000 1 -3.000000
438 2 57.452300 -1931.170000 397.020000 1 1.000000 1 -3.000000
439 2 65.298600 -1927.660000 392.137000 1 1.000000 1 -3.000000
440 2 73.766900 -1927.120000 386.960000 1 1.000000 1 -3.000000
441 2 80.931400 -1925.280000 380.289000 1 1.000000 1 -3.000000
442 2 87.524100 -1924.670000 372.920000 1 1.000000 1 -3.000000
443 2 94.168000 -1923.190000 365.813000 1 1.000000 1 -3.000000
444 2 99.123700 -1921.680000 357.336000 1 1.000000 1 -3.000000
445 2 105.342000 -1921.420000 349.636000 1 1.000000 1 -3.000000
446 2 110.590000 -1920.050000 341.368000 1 1.000000 1 -3.000000
447 2 116.174000 -1918.040000 333.397000 1 1.000000 1 -3.000000
448 2 122.534000 -1917.230000 325.856000 1 1.000000 1 -3.000000
449 2 128.159000 -1918.250000 317.726000 1 1.000000 1 -3.000000
450 2 133.539000 -1920.230000 309.682000 1 1.000000 1 -3.000000
451 2 140.196000 -1924.170000 303.373000 1 1.000000 1 -3.000000
452 2 148.156000 -1926.950000 298.178000 1 1.000000 1 -3.000000
453 2 156.305000 -1928.440000 292.659000 1 1.000000 18 -3.000000
454 1 159.234000 -1972.390000 309.515000 1 1.000000 18 0.000000
455 3 129.111000 -1960.640000 322.785000 1 1.000000 18 0.000000
456 2 144.115000 -2008.550000 335.812000 1 1.000000 18 -3.000000
457 2 135.031000 -2005.310000 337.920000 1 1.000000 1 -3.000000
458 2 125.615000 -2002.390000 338.888000 1 1.000000 1 -3.000000
459 2 115.934000 -2000.350000 338.933000 1 1.000000 1 -3.000000
460 2 107.178000 -1997.000000 335.976000 1 1.000000 1 -3.000000
461 2 99.720700 -1991.810000 332.087000 1 1.000000 1 -3.000000
462 2 92.244700 -1986.040000 329.237000 1 1.000000 1 -3.000000
463 2 85.633600 -1979.480000 326.001000 1 1.000000 1 -3.000000
464 2 80.009300 -1972.520000 321.687000 1 1.000000 1 -3.000000
465 2 73.239400 -1966.960000 317.077000 1 1.000000 1 -3.000000
466 2 65.305700 -1961.910000 313.975000 1 1.000000 1 -3.000000
467 2 57.789000 -1957.080000 309.618000 1 1.000000 1 -3.000000
468 2 51.189600 -1952.620000 303.689000 1 1.000000 1 -3.000000