LAMMPS data file

4067 atoms
4067 ellipsoids
4516 bonds
8882 angles
0 dihedrals

3 atom types
5 bond types
12 angle types
0 dihedral types

-4631.092947 4670.465898 xlo xhi
-4631.092947 4670.465898 ylo yhi
-4631.092947 4670.465898 zlo zhi

Masses

1 196016.000000
2 1950.000000
3 19500.000000

Atoms

1 2 -168.179000 -1511.540000 -386.475000 1 1.000000 1 -3.000000
2 2 -159.317000 -1515.850000 -386.463000 1 1.000000 1 -3.000000
3 2 -150.549000 -1520.070000 -388.110000 1 1.000000 1 -3.000000
4 2 -140.869000 -1521.570000 -389.505000 1 1.000000 1 -3.000000
5 2 -131.091000 -1522.800000 -390.842000 1 1.000000 1 -3.000000
6 2 -121.224000 -1523.110000 -391.356000 1 1.000000 1 -3.000000
7 2 -111.778000 -1521.030000 -393.807000 1 1.000000 1 -3.000000
8 2 -102.254000 -1518.480000 -394.766000 1 1.000000 1 -3.000000
9 2 -93.598600 -1514.260000 -396.865000 1 1.000000 1 -3.000000
10 2 -84.459700 -1511.000000 -398.674000 1 1.000000 1 -3.000000
11 2 -75.359100 -1507.870000 -401.013000 1 1.000000 1 -3.000000
12 2 -66.046000 -1505.230000 -402.489000 1 1.000000 1 -3.000000
13 2 -57.054700 -1502.640000 -405.795000 1 1.000000 1 -3.000000
14 2 -47.949400 -1501.050000 -409.308000 1 1.000000 1 -3.000000
15 2 -38.771900 -1499.310000 -412.538000 1 1.000000 1 -3.000000
16 2 -29.916600 -1495.270000 -414.516000 1 1.000000 1 -3.000000
17 2 -21.536600 -1491.470000 -418.056000 1 1.000000 1 -3.000000
18 2 -15.171800 -1487.020000 -424.169000 1 1.000000 1 -3.000000
19 2 -10.979200 -1481.020000 -430.883000 1 1.000000 1 -3.000000
20 2 -5.742240 -1475.050000 -436.833000 1 1.000000 1 -3.000000
21 2 -1.747650 -1467.590000 -441.829000 1 1.000000 2 -3.000000
22 1 -24.017500 -1479.420000 -481.623000 1 1.000000 2 0.000000
23 3 -43.311100 -1494.920000 -456.794000 1 1.000000 2 0.000000
24 2 -57.408200 -1501.860000 -506.330000 1 1.000000 2 -3.000000
25 2 -62.304500 -1506.010000 -498.785000 1 1.000000 1 -3.000000
26 2 -67.570100 -1509.140000 -490.997000 1 1.000000 1 -3.000000
27 2 -73.998900 -1512.060000 -484.138000 1 1.000000 1 -3.000000
28 2 -78.162400 -1514.390000 -475.482000 1 1.000000 1 -3.000000
29 2 -82.014500 -1513.000000 -466.360000 1 1.000000 1 -3.000000
30 2 -84.926700 -1509.340000 -457.661000 1 1.000000 1 -3.000000
31 2 -88.676700 -1505.470000 -449.407000 1 1.000000 1 -3.000000
32 2 -92.917700 -1499.070000 -443.190000 1 1.000000 1 -3.000000
33 2 -98.252700 -1492.480000 -438.238000 1 1.000000 1 -3.000000
34 2 -103.126000 -1484.410000 -435.542000 1 1.000000 1 -3.000000
35 2 -107.610000 -1476.560000 -431.505000 1 1.000000 1 -3.000000
36 2 -111.116000 -1468.180000 -427.723000 1 1.000000 1 -3.000000
37 2 -115.036000 -1460.450000 -422.923000 1 1.000000 1 -3.000000
38 2 -117.969000 -1451.100000 -421.675000 1 1.000000 1 -3.000000
39 2 -119.620000 -1441.390000 -420.851000 1 1.000000 1 -3.000000
40 2 -120.551000 -1432.000000 -417.916000 1 1.000000 1 -3.000000
41 2 -121.872000 -1422.450000 -415.535000 1 1.000000 1 -3.000000
42 2 -123.379000 -1412.740000 -414.051000 1 1.000000 1 -3.000000
43 2 -125.930000 -1403.680000 -410.757000 1 1.000000 1 -3.000000
44 2 -129.412000 -1394.650000 -409.027000 1 1.000000 1 -3.000000
45 2 -132.516000 -1386.930000 -403.601000 1 1.000000 1 -3.000000
46 2 -134.797000 -1380.000000 -396.854000 1 1.000000 1 -3.000000
47 2 -138.881000 -1373.980000 -390.030000 1 1.000000 1 -3.000000
48 2 -144.924000 -1368.140000 -384.896000 1 1.000000 3 -3.000000
49 1 -172.381000 -1399.530000 -362.839000 1 1.000000 3 0.000000
50 3 -145.720000 -1418.950000 -374.305000 1 1.000000 3 0.000000
51 2 -182.420000 -1442.540000 -346.191000 1 1.000000 3 -3.000000
52 2 -173.240000 -1446.040000 -347.282000 1 1.000000 1 -3.000000
53 2 -163.457000 -1447.540000 -347.292000 1 1.000000 1 -3.000000
54 2 -154.122000 -1449.700000 -344.909000 1 1.000000 1 -3.000000
55 2 -144.740000 -1452.510000 -343.833000 1 1.000000 1 -3.000000
56 2 -134.775000 -1453.300000 -344.603000 1 1.000000 1 -3.000000
57 2 -126.383000 -1452.080000 -349.820000 1 1.000000 1 -3.000000
58 2 -118.501000 -1450.330000 -355.568000 1 1.000000 1 -3.000000
59 2 -110.428000 -1446.570000 -359.778000 1 1.000000 1 -3.000000
60 2 -101.576000 -1443.220000 -362.535000 1 1.000000 1 -3.000000
61 2 -93.091900 -1438.810000 -365.279000 1 1.000000 1 -3.000000
62 2 -84.527700 -1434.550000 -367.668000 1 1.000000 1 -3.000000
63 2 -76.490300 -1429.760000 -370.835000 1 1.000000 1 -3.000000
64 2 -69.146000 -1423.530000 -372.810000 1 1.000000 1 -3.000000
65 2 -62.694200 -1417.110000 -376.718000 1 1.000000 1 -3.000000
66 2 -55.777300 -1411.540000 -381.181000 1 1.000000 1 -3.000000
67 2 -47.026100 -1407.590000 -383.508000 1 1.000000 1 -3.000000
68 2 -38.647000 -1403.380000 -386.573000 1 1.000000 1 -3.000000
69 2 -30.385400 -1400.200000 -390.985000 1 1.000000 1 -3.000000
70 2 -22.536800 -1397.810000 -396.477000 1 1.000000 1 -3.000000
71 2 -16.107700 -1395.240000 -403.627000 1 1.000000 1 -3.000000
72 2 -10.559600 -1391.820000 -411.163000 1 1.000000 1 -3.000000
73 2 -6.902630 -1387.970000 -419.430000 1 1.000000 1 -3.000000
74 2 -6.271430 -1383.250000 -428.107000 1 1.000000 1 -3.000000
75 2 -4.221210 -1377.950000 -436.158000 1 1.000000 4 -3.000000
76 1 -45.135900 -1380.910000 -459.430000 1 1.000000 4 0.000000
77 3 -53.362400 -1391.880000 -427.242000 1 1.000000 4 0.000000
78 2 -91.250500 -1390.280000 -462.705000 1 1.000000 4 -3.000000
79 2 -93.075200 -1388.530000 -453.155000 1 1.000000 1 -3.000000
80 2 -96.616800 -1387.750000 -443.917000 1 1.000000 1 -3.000000
81 2 -97.192300 -1388.480000 -434.049000 1 1.000000 1 -3.000000
82 2 -97.370200 -1387.020000 -424.300000 1 1.000000 1 -3.000000
83 2 -96.998300 -1386.140000 -414.455000 1 1.000000 1 -3.000000
84 2 -95.691600 -1385.090000 -404.716000 1 1.000000 1 -3.000000
85 2 -97.222400 -1381.490000 -395.504000 1 1.000000 1 -3.000000
86 2 -99.331500 -1377.730000 -386.605000 1 1.000000 1 -3.000000
87 2 -103.218000 -1374.240000 -378.267000 1 1.000000 1 -3.000000
88 2 -106.048000 -1369.540000 -370.036000 1 1.000000 1 -3.000000
89 2 -110.030000 -1365.770000 -361.737000 1 1.000000 1 -3.000000
90 2 -113.380000 -1362.420000 -353.097000 1 1.000000 1 -3.000000
91 2 -116.357000 -1358.070000 -344.758000 1 1.000000 1 -3.000000
92 2 -120.144000 -1353.250000 -336.995000 1 1.000000 1 -3.000000
93 2 -124.805000 -1349.330000 -329.209000 1 1.000000 1 -3.000000
94 2 -130.390000 -1346.860000 -321.462000 1 1.000000 1 -3.000000
95 2 -135.325000 -1344.130000 -313.396000 1 1.000000 1 -3.000000
96 2 -141.125000 -1341.640000 -305.645000 1 1.000000 1 -3.000000
97 2 -148.785000 -1340.260000 -299.545000 1 1.000000 1 -3.000000
98 2 -156.642000 -1340.190000 -293.479000 1 1.000000 1 -3.000000
99 2 -164.312000 -1339.840000 -287.218000 1 1.000000 1 -3.000000
100 2 -171.665000 -1340.130000 -280.551000 1 1.000000 1 -3.000000
101 2 -177.674000 -1340.660000 -272.712000 1 1.000000 1 -3.000000
102 2 -183.751000 -1341.660000 -265.003000 1 1.000000 5 -3.000000
103 1 -159.257000 -1370.950000 -237.280000 1 1.000000 5 0.000000
104 3 -135.031000 -1358.850000 -259.537000 1 1.000000 5 0.000000
105 2 -119.863000 -1392.600000 -223.036000 1 1.000000 5 -3.000000
106 2 -113.082000 -1389.990000 -229.777000 1 1.000000 1 -3.000000
107 2 -106.234000 -1387.000000 -236.206000 1 1.000000 1 -3.000000
108 2 -100.331000 -1381.700000 -242.195000 1 1.000000 1 -3.000000
109 2 -94.739400 -1376.500000 -248.448000 1 1.000000 1 -3.000000
110 2 -90.023500 -1369.760000 -254.007000 1 1.000000 1 -3.000000
111 2 -88.448800 -1361.130000 -258.660000 1 1.000000 1 -3.000000
112 2 -88.933100 -1352.260000 -263.062000 1 1.000000 1 -3.000000
113 2 -89.447300 -1344.250000 -268.756000 1 1.000000 1 -3.000000
114 2 -91.227700 -1337.810000 -276.015000 1 1.000000 1 -3.000000
115 2 -93.403100 -1329.920000 -281.498000 1 1.000000 1 -3.000000
116 2 -96.758800 -1321.670000 -285.949000 1 1.000000 1 -3.000000
117 2 -102.189000 -1315.040000 -290.788000 1 1.000000 1 -3.000000
118 2 -106.389000 -1307.620000 -295.728000 1 1.000000 1 -3.000000
119 2 -110.124000 -1299.840000 -300.737000 1 1.000000 1 -3.000000
120 2 -112.200000 -1291.140000 -305.059000 1 1.000000 1 -3.000000
121 2 -115.698000 -1282.260000 -307.698000 1 1.000000 1 -3.000000
122 2 -117.384000 -1272.680000 -309.547000 1 1.000000 1 -3.000000
123 2 -118.519000 -1263.010000 -311.510000 1 1.000000 1 -3.000000
124 2 -118.605000 -1253.150000 -311.632000 1 1.000000 1 -3.000000
125 2 -119.085000 -1243.240000 -311.374000 1 1.000000 1 -3.000000
126 2 -118.015000 -1233.450000 -310.667000 1 1.000000 1 -3.000000
127 2 -115.316000 -1223.960000 -309.792000 1 1.000000 1 -3.000000
128 2 -109.805000 -1215.900000 -308.907000 1 1.000000 1 -3.000000
129 2 -103.254000 -1208.600000 -308.128000 1 1.000000 6 -3.000000
130 1 -81.509500 -1219.860000 -267.784000 1 1.000000 6 0.000000
131 3 -86.121900 -1250.880000 -283.288000 1 1.000000 6 0.000000
132 2 -62.444000 -1250.230000 -237.138000 1 1.000000 6 -3.000000
133 2 -62.590700 -1258.770000 -242.109000 1 1.000000 1 -3.000000
134 2 -61.468800 -1266.840000 -247.715000 1 1.000000 1 -3.000000
135 2 -61.684400 -1274.610000 -253.863000 1 1.000000 1 -3.000000
136 2 -62.033200 -1281.700000 -260.728000 1 1.000000 1 -3.000000
137 2 -61.556100 -1286.630000 -269.346000 1 1.000000 1 -3.000000
138 2 -62.145100 -1287.430000 -279.153000 1 1.000000 1 -3.000000
139 2 -63.548800 -1288.670000 -288.919000 1 1.000000 1 -3.000000
140 2 -64.734600 -1290.830000 -298.476000 1 1.000000 1 -3.000000
141 2 -65.008100 -1292.160000 -308.332000 1 1.000000 1 -3.000000
142 2 -63.006500 -1293.020000 -318.020000 1 1.000000 1 -3.000000
143 2 -61.214000 -1294.060000 -327.656000 1 1.000000 1 -3.000000
144 2 -60.659400 -1295.000000 -337.505000 1 1.000000 1 -3.000000
145 2 -58.800700 -1295.860000 -347.122000 1 1.000000 1 -3.000000
146 2 -54.938600 -1296.420000 -356.207000 1 1.000000 1 -3.000000
147 2 -52.435800 -1297.310000 -365.748000 1 1.000000 1 -3.000000
148 2 -50.878900 -1296.770000 -375.551000 1 1.000000 1 -3.000000
149 2 -49.753300 -1295.590000 -385.316000 1 1.000000 1 -3.000000
150 2 -50.569400 -1295.450000 -395.160000 1 1.000000 1 -3.000000
151 2 -51.302700 -1293.630000 -404.802000 1 1.000000 1 -3.000000
152 2 -51.394100 -1293.110000 -414.702000 1 1.000000 1 -3.000000
153 2 -52.908100 -1292.210000 -424.415000 1 1.000000 1 -3.000000
154 2 -53.821800 -1292.650000 -434.266000 1 1.000000 1 -3.000000
155 2 -57.479900 -1292.560000 -443.570000 1 1.000000 1 -3.000000
156 2 -63.138400 -1290.930000 -451.572000 1 1.000000 7 -3.000000
157 1 -101.475000 -1316.910000 -442.597000 1 1.000000 7 0.000000
158 3 -93.519800 -1303.330000 -411.328000 1 1.000000 7 0.000000
159 2 -134.527000 -1334.990000 -414.158000 1 1.000000 7 -3.000000
160 2 -133.992000 -1329.040000 -406.325000 1 1.000000 1 -3.000000
161 2 -134.542000 -1321.700000 -399.593000 1 1.000000 1 -3.000000
162 2 -134.315000 -1314.450000 -392.923000 1 1.000000 1 -3.000000
163 2 -130.923000 -1307.200000 -387.067000 1 1.000000 1 -3.000000
164 2 -127.367000 -1299.530000 -382.043000 1 1.000000 1 -3.000000
165 2 -123.086000 -1291.800000 -377.564000 1 1.000000 1 -3.000000
166 2 -117.190000 -1284.150000 -375.272000 1 1.000000 1 -3.000000
167 2 -111.327000 -1276.240000 -375.047000 1 1.000000 1 -3.000000
168 2 -106.641000 -1268.100000 -372.135000 1 1.000000 1 -3.000000
169 2 -101.203000 -1259.900000 -370.680000 1 1.000000 1 -3.000000
170 2 -97.073100 -1251.030000 -369.109000 1 1.000000 1 -3.000000
171 2 -93.772900 -1241.740000 -368.886000 1 1.000000 1 -3.000000
172 2 -90.543500 -1233.370000 -364.862000 1 1.000000 1 -3.000000
173 2 -88.417300 -1224.330000 -361.484000 1 1.000000 1 -3.000000
174 2 -84.300100 -1216.480000 -357.310000 1 1.000000 1 -3.000000
175 2 -80.935000 -1207.490000 -354.998000 1 1.000000 1 -3.000000
176 2 -76.881800 -1199.470000 -350.790000 1 1.000000 1 -3.000000
177 2 -73.498300 -1190.670000 -347.845000 1 1.000000 1 -3.000000
178 2 -68.857500 -1182.290000 -345.151000 1 1.000000 1 -3.000000
179 2 -62.386500 -1176.120000 -340.870000 1 1.000000 1 -3.000000
180 2 -55.532500 -1170.680000 -336.216000 1 1.000000 1 -3.000000
181 2 -49.006300 -1165.900000 -330.558000 1 1.000000 1 -3.000000
182 2 -42.621200 -1161.060000 -324.774000 1 1.000000 1 -3.000000
183 2 -36.754000 -1156.880000 -318.027000 1 1.000000 8 -3.000000
184 1 -9.215840 -1193.960000 -308.412000 1 1.000000 8 0.000000
185 3 -30.765600 -1206.190000 -333.114000 1 1.000000 8 0.000000
186 2 7.016850 -1237.610000 -316.097000 1 1.000000 8 -3.000000
187 2 2.060140 -1238.520000 -324.615000 1 1.000000 1 -3.000000
188 2 -1.250300 -1238.650000 -333.950000 1 1.000000 1 -3.000000
189 2 -5.983240 -1241.490000 -342.175000 1 1.000000 1 -3.000000
190 2 -11.187200 -1241.670000 -350.546000 1 1.000000 1 -3.000000
191 2 -17.471100 -1240.530000 -358.102000 1 1.000000 1 -3.000000
192 2 -24.696100 -1237.400000 -364.079000 1 1.000000 1 -3.000000
193 2 -30.514500 -1231.940000 -369.841000 1 1.000000 1 -3.000000
194 2 -37.126400 -1225.710000 -373.765000 1 1.000000 1 -3.000000
195 2 -42.959700 -1218.930000 -378.020000 1 1.000000 1 -3.000000
196 2 -49.112100 -1212.710000 -382.634000 1 1.000000 1 -3.000000
197 2 -54.104400 -1206.100000 -388.013000 1 1.000000 1 -3.000000
198 2 -61.030500 -1199.620000 -390.754000 1 1.000000 1 -3.000000
199 2 -67.730700 -1192.820000 -393.275000 1 1.000000 1 -3.000000
200 2 -75.305400 -1186.490000 -393.875000 1 1.000000 1 -3.000000
201 2 -81.986400 -1179.160000 -393.895000 1 1.000000 1 -3.000000
202 2 -88.054000 -1171.470000 -392.629000 1 1.000000 1 -3.000000
203 2 -93.129300 -1163.060000 -393.332000 1 1.000000 1 -3.000000
204 2 -99.007000 -1155.200000 -394.360000 1 1.000000 1 -3.000000
205 2 -105.091000 -1147.420000 -395.380000 1 1.000000 1 -3.000000
206 2 -109.603000 -1138.640000 -395.760000 1 1.000000 1 -3.000000
207 2 -114.048000 -1130.160000 -393.329000 1 1.000000 1 -3.000000
208 2 -118.465000 -1123.140000 -388.011000 1 1.000000 1 -3.000000
209 2 -123.228000 -1115.440000 -383.927000 1 1.000000 1 -3.000000
210 2 -129.121000 -1109.800000 -378.314000 1 1.000000 9 -3.000000
211 1 -110.927000 -1115.550000 -335.184000 1 1.000000 9 0.000000
212 3 -89.980600 -1135.120000 -355.341000 1 1.000000 9 0.000000
213 2 -80.076700 -1133.770000 -304.474000 1 1.000000 9 -3.000000
214 2 -73.493700 -1137.150000 -310.976000 1 1.000000 1 -3.000000
215 2 -65.835900 -1139.660000 -316.836000 1 1.000000 1 -3.000000
216 2 -59.071100 -1142.130000 -323.658000 1 1.000000 1 -3.000000
217 2 -52.922100 -1144.090000 -331.210000 1 1.000000 1 -3.000000
218 2 -48.340500 -1144.930000 -339.983000 1 1.000000 1 -3.000000
219 2 -45.503600 -1145.010000 -349.422000 1 1.000000 1 -3.000000
220 2 -43.932400 -1145.480000 -359.215000 1 1.000000 1 -3.000000
221 2 -44.289600 -1146.000000 -369.179000 1 1.000000 1 -3.000000
222 2 -44.128100 -1143.840000 -378.817000 1 1.000000 1 -3.000000
223 2 -43.096500 -1141.230000 -388.351000 1 1.000000 1 -3.000000
224 2 -42.228300 -1137.040000 -397.171000 1 1.000000 1 -3.000000
225 2 -41.203700 -1131.630000 -405.450000 1 1.000000 1 -3.000000
226 2 -41.897400 -1127.780000 -414.574000 1 1.000000 1 -3.000000
227 2 -42.944500 -1123.120000 -423.269000 1 1.000000 1 -3.000000
228 2 -44.541900 -1118.280000 -431.639000 1 1.000000 1 -3.000000
229 2 -43.780500 -1114.860000 -440.838000 1 1.000000 1 -3.000000
230 2 -43.613200 -1112.050000 -450.343000 1 1.000000 1 -3.000000
231 2 -42.914500 -1111.700000 -460.200000 1 1.000000 1 -3.000000
232 2 -43.172700 -1112.360000 -470.105000 1 1.000000 1 -3.000000
233 2 -45.776100 -1113.550000 -479.595000 1 1.000000 1 -3.000000
234 2 -49.450800 -1115.880000 -488.525000 1 1.000000 1 -3.000000
235 2 -52.967800 -1120.940000 -496.263000 1 1.000000 1 -3.000000
236 2 -56.653700 -1127.260000 -502.941000 1 1.000000 1 -3.000000
237 2 -59.871800 -1132.680000 -510.642000 1 1.000000 10 -3.000000
238 1 -55.527800 -1175.230000 -490.789000 1 1.000000 10 0.000000
239 3 -56.924100 -1153.730000 -463.245000 1 1.000000 10 0.000000
240 2 -51.038100 -1204.410000 -453.975000 1 1.000000 10 -3.000000
241 2 -55.185300 -1197.600000 -448.245000 1 1.000000 1 -3.000000
242 2 -59.867300 -1190.520000 -443.178000 1 1.000000 1 -3.000000
243 2 -64.303000 -1185.410000 -435.992000 1 1.000000 1 -3.000000
244 2 -68.043400 -1178.300000 -430.236000 1 1.000000 1 -3.000000
245 2 -70.152000 -1169.720000 -425.829000 1 1.000000 1 -3.000000
246 2 -70.490100 -1160.760000 -421.627000 1 1.000000 1 -3.000000
247 2 -72.011200 -1152.310000 -416.608000 1 1.000000 1 -3.000000
248 2 -74.393400 -1144.280000 -411.292000 1 1.000000 1 -3.000000
249 2 -74.121600 -1135.980000 -405.832000 1 1.000000 1 -3.000000
250 2 -74.296300 -1129.330000 -398.507000 1 1.000000 1 -3.000000
251 2 -76.345200 -1123.040000 -391.151000 1 1.000000 1 -3.000000
252 2 -75.841800 -1117.770000 -382.828000 1 1.000000 1 -3.000000
253 2 -77.331800 -1114.050000 -373.778000 1 1.000000 1 -3.000000
254 2 -77.523100 -1111.440000 -364.206000 1 1.000000 1 -3.000000
255 2 -76.276500 -1111.720000 -354.451000 1 1.000000 1 -3.000000
256 2 -75.004500 -1113.700000 -344.786000 1 1.000000 1 -3.000000
257 2 -72.913100 -1113.610000 -335.088000 1 1.000000 1 -3.000000
258 2 -71.715500 -1111.910000 -325.417000 1 1.000000 1 -3.000000
259 2 -69.210300 -1108.910000 -316.324000 1 1.000000 1 -3.000000
260 2 -65.474500 -1104.330000 -308.386000 1 1.000000 1 -3.000000
261 2 -59.864700 -1098.490000 -302.737000 1 1.000000 1 -3.000000
262 2 -53.573300 -1092.520000 -297.995000 1 1.000000 1 -3.000000
263 2 -47.921000 -1086.370000 -292.703000 1 1.000000 1 -3.000000
264 2 -42.383200 -1079.290000 -288.643000 1 1.000000 11 -3.000000
265 1 -21.728800 -1059.990000 -326.468000 1 1.000000 11 0.000000
266 3 -49.939200 -1075.770000 -339.763000 1 1.000000 11 0.000000
267 2 -16.992300 -1053.040000 -372.924000 1 1.000000 11 -3.000000
268 2 -26.463300 -1055.810000 -373.783000 1 1.000000 1 -3.000000
269 2 -35.964800 -1057.970000 -375.351000 1 1.000000 1 -3.000000
270 2 -45.492500 -1057.760000 -377.747000 1 1.000000 1 -3.000000
271 2 -55.077600 -1058.440000 -380.194000 1 1.000000 1 -3.000000
272 2 -64.923600 -1059.020000 -379.563000 1 1.000000 1 -3.000000
273 2 -74.004800 -1060.680000 -376.109000 1 1.000000 1 -3.000000
274 2 -82.894200 -1061.970000 -372.104000 1 1.000000 1 -3.000000
275 2 -91.412400 -1061.940000 -366.971000 1 1.000000 1 -3.000000
276 2 -100.080000 -1061.810000 -362.038000 1 1.000000 1 -3.000000
277 2 -108.345000 -1061.600000 -356.646000 1 1.000000 1 -3.000000
278 2 -116.696000 -1063.090000 -351.537000 1 1.000000 1 -3.000000
279 2 -124.283000 -1067.080000 -346.495000 1 1.000000 1 -3.000000
280 2 -130.402000 -1070.280000 -339.413000 1 1.000000 1 -3.000000
281 2 -137.126000 -1072.200000 -332.422000 1 1.000000 1 -3.000000
282 2 -143.965000 -1070.550000 -325.516000 1 1.000000 1 -3.000000
283 2 -151.421000 -1068.940000 -319.154000 1 1.000000 1 -3.000000
284 2 -157.173000 -1066.070000 -311.627000 1 1.000000 1 -3.000000
285 2 -163.093000 -1061.350000 -305.077000 1 1.000000 1 -3.000000
286 2 -169.245000 -1057.590000 -298.389000 1 1.000000 1 -3.000000
287 2 -175.819000 -1052.470000 -293.223000 1 1.000000 1 -3.000000
288 2 -184.315000 -1048.300000 -290.116000 1 1.000000 1 -3.000000
289 2 -193.429000 -1044.660000 -288.160000 1 1.000000 1 -3.000000
290 2 -203.020000 -1043.250000 -286.189000 1 1.000000 1 -3.000000
291 2 -211.541000 -1038.660000 -284.370000 1 1.000000 12 -3.000000
292 1 -235.619000 -1075.510000 -301.390000 1 1.000000 12 0.000000
293 3 -202.282000 -1084.100000 -307.718000 1 1.000000 12 0.000000
294 2 -239.013000 -1118.160000 -321.184000 1 1.000000 12 -3.000000
295 2 -229.376000 -1120.510000 -321.700000 1 1.000000 1 -3.000000
296 2 -220.030000 -1123.790000 -321.995000 1 1.000000 1 -3.000000
297 2 -210.294000 -1125.320000 -321.207000 1 1.000000 1 -3.000000
298 2 -200.634000 -1125.100000 -319.043000 1 1.000000 1 -3.000000
299 2 -191.027000 -1124.890000 -316.508000 1 1.000000 1 -3.000000
300 2 -181.416000 -1124.520000 -314.058000 1 1.000000 1 -3.000000
301 2 -172.495000 -1126.210000 -310.342000 1 1.000000 1 -3.000000
302 2 -163.379000 -1127.250000 -306.663000 1 1.000000 1 -3.000000
303 2 -154.737000 -1128.730000 -301.954000 1 1.000000 1 -3.000000
304 2 -146.110000 -1131.650000 -298.002000 1 1.000000 1 -3.000000
305 2 -137.142000 -1132.810000 -293.860000 1 1.000000 1 -3.000000
306 2 -128.205000 -1133.680000 -289.829000 1 1.000000 1 -3.000000
307 2 -119.033000 -1132.860000 -286.147000 1 1.000000 1 -3.000000
308 2 -110.227000 -1129.330000 -283.186000 1 1.000000 1 -3.000000
309 2 -102.327000 -1124.970000 -279.076000 1 1.000000 1 -3.000000
310 2 -94.104600 -1119.940000 -276.693000 1 1.000000 1 -3.000000
311 2 -86.549600 -1113.780000 -274.891000 1 1.000000 1 -3.000000
312 2 -78.598200 -1107.960000 -273.352000 1 1.000000 1 -3.000000
313 2 -69.021400 -1105.620000 -273.403000 1 1.000000 1 -3.000000
314 2 -59.377400 -1103.620000 -273.967000 1 1.000000 1 -3.000000
315 2 -50.051600 -1100.450000 -274.254000 1 1.000000 1 -3.000000
316 2 -40.638000 -1097.400000 -274.622000 1 1.000000 1 -3.000000
317 2 -31.132900 -1094.850000 -273.971000 1 1.000000 1 -3.000000
318 2 -22.438800 -1090.290000 -272.786000 1 1.000000 13 -3.000000
319 1 -19.591600 -1083.450000 -226.202000 1 1.000000 13 0.000000
320 3 -50.789400 -1098.720000 -230.125000 1 1.000000 13 0.000000
321 2 -36.488600 -1084.750000 -182.191000 1 1.000000 13 -3.000000
322 2 -44.072600 -1090.890000 -183.861000 1 1.000000 1 -3.000000
323 2 -51.883100 -1096.570000 -185.910000 1 1.000000 1 -3.000000
324 2 -60.188400 -1101.940000 -186.469000 1 1.000000 1 -3.000000
325 2 -68.222500 -1106.930000 -189.392000 1 1.000000 1 -3.000000
326 2 -76.278100 -1109.460000 -194.563000 1 1.000000 1 -3.000000
327 2 -84.262900 -1112.260000 -199.730000 1 1.000000 1 -3.000000
328 2 -92.767900 -1113.510000 -204.719000 1 1.000000 1 -3.000000
329 2 -101.280000 -1112.370000 -209.532000 1 1.000000 1 -3.000000
330 2 -109.911000 -1112.580000 -214.195000 1 1.000000 1 -3.000000
331 2 -118.684000 -1111.470000 -218.635000 1 1.000000 1 -3.000000
332 2 -127.484000 -1111.340000 -223.155000 1 1.000000 1 -3.000000
333 2 -136.345000 -1112.600000 -227.388000 1 1.000000 1 -3.000000
334 2 -145.701000 -1113.100000 -230.471000 1 1.000000 1 -3.000000
335 2 -154.230000 -1112.570000 -235.401000 1 1.000000 1 -3.000000
336 2 -163.499000 -1112.330000 -238.701000 1 1.000000 1 -3.000000
337 2 -172.856000 -1111.900000 -242.007000 1 1.000000 1 -3.000000
338 2 -181.649000 -1110.500000 -246.220000 1 1.000000 1 -3.000000
339 2 -190.299000 -1110.140000 -251.006000 1 1.000000 1 -3.000000
340 2 -199.050000 -1107.460000 -254.597000 1 1.000000 1 -3.000000
341 2 -207.700000 -1103.350000 -257.197000 1 1.000000 1 -3.000000
342 2 -217.073000 -1100.000000 -257.140000 1 1.000000 1 -3.000000
343 2 -224.927000 -1095.180000 -253.691000 1 1.000000 1 -3.000000
344 2 -233.540000 -1090.760000 -251.764000 1 1.000000 1 -3.000000
345 2 -242.377000 -1086.430000 -250.436000 1 1.000000 14 -3.000000
346 1 -245.096000 -1108.060000 -208.627000 1 1.000000 14 0.000000
347 3 -210.788000 -1103.110000 -212.901000 1 1.000000 14 0.000000
348 2 -226.727000 -1125.340000 -168.693000 1 1.000000 14 -3.000000
349 2 -219.750000 -1118.230000 -168.871000 1 1.000000 1 -3.000000
350 2 -211.659000 -1112.530000 -169.374000 1 1.000000 1 -3.000000
351 2 -204.340000 -1105.820000 -169.496000 1 1.000000 1 -3.000000
352 2 -196.681000 -1099.700000 -170.632000 1 1.000000 1 -3.000000
353 2 -188.762000 -1094.280000 -172.922000 1 1.000000 1 -3.000000
354 2 -181.210000 -1091.120000 -178.433000 1 1.000000 1 -3.000000
355 2 -175.289000 -1085.980000 -184.460000 1 1.000000 1 -3.000000
356 2 -169.898000 -1080.660000 -190.756000 1 1.000000 1 -3.000000
357 2 -164.484000 -1075.850000 -197.671000 1 1.000000 1 -3.000000
358 2 -158.699000 -1068.960000 -201.702000 1 1.000000 1 -3.000000
359 2 -153.055000 -1063.220000 -207.546000 1 1.000000 1 -3.000000
360 2 -146.822000 -1057.370000 -212.572000 1 1.000000 1 -3.000000
361 2 -142.461000 -1049.980000 -217.382000 1 1.000000 1 -3.000000
362 2 -138.706000 -1041.330000 -220.581000 1 1.000000 1 -3.000000
363 2 -135.103000 -1032.400000 -222.867000 1 1.000000 1 -3.000000
364 2 -131.356000 -1023.230000 -222.970000 1 1.000000 1 -3.000000
365 2 -128.313000 -1013.860000 -221.305000 1 1.000000 1 -3.000000
366 2 -127.185000 -1004.640000 -217.891000 1 1.000000 1 -3.000000
367 2 -124.627000 -995.757000 -214.389000 1 1.000000 1 -3.000000
368 2 -123.285000 -989.169000 -207.077000 1 1.000000 1 -3.000000
369 2 -122.297000 -985.005000 -198.118000 1 1.000000 1 -3.000000
370 2 -122.844000 -981.623000 -188.751000 1 1.000000 1 -3.000000
371 2 -123.460000 -977.767000 -179.593000 1 1.000000 1 -3.000000
372 2 -124.837000 -972.067000 -171.566000 1 1.000000 15 -3.000000
373 1 -151.005000 -1004.660000 -149.729000 1 1.000000 15 0.000000
374 3 -139.638000 -1021.300000 -178.356000 1 1.000000 15 0.000000
375 2 -169.951000 -1047.680000 -145.343000 1 1.000000 15 -3.000000
376 2 -162.372000 -1050.960000 -150.831000 1 1.000000 1 -3.000000
377 2 -155.461000 -1056.540000 -155.035000 1 1.000000 1 -3.000000
378 2 -147.545000 -1061.040000 -158.980000 1 1.000000 1 -3.000000
379 2 -139.841000 -1064.500000 -164.140000 1 1.000000 1 -3.000000
380 2 -133.151000 -1065.370000 -171.409000 1 1.000000 1 -3.000000
381 2 -127.843000 -1064.510000 -179.774000 1 1.000000 1 -3.000000
382 2 -122.849000 -1061.950000 -188.014000 1 1.000000 1 -3.000000
383 2 -117.080000 -1057.500000 -194.890000 1 1.000000 1 -3.000000
384 2 -113.332000 -1053.250000 -202.981000 1 1.000000 1 -3.000000
385 2 -109.245000 -1048.790000 -210.867000 1 1.000000 1 -3.000000
386 2 -103.932000 -1046.690000 -218.887000 1 1.000000 1 -3.000000
387 2 -99.058100 -1044.950000 -227.289000 1 1.000000 1 -3.000000
388 2 -94.276500 -1040.550000 -234.808000 1 1.000000 1 -3.000000
389 2 -90.863800 -1037.220000 -243.537000 1 1.000000 1 -3.000000
390 2 -87.439600 -1036.750000 -252.768000 1 1.000000 1 -3.000000
391 2 -85.149900 -1035.670000 -262.351000 1 1.000000 1 -3.000000
392 2 -84.784400 -1033.500000 -271.966000 1 1.000000 1 -3.000000
393 2 -84.478300 -1032.850000 -281.819000 1 1.000000 1 -3.000000
394 2 -84.152400 -1031.170000 -291.594000 1 1.000000 1 -3.000000
395 2 -83.413700 -1028.130000 -301.028000 1 1.000000 1 -3.000000
396 2 -81.844000 -1025.980000 -310.402000 1 1.000000 1 -3.000000
397 2 -81.629600 -1025.860000 -320.265000 1 1.000000 1 -3.000000
398 2 -81.236200 -1023.970000 -329.896000 1 1.000000 1 -3.000000
399 2 -81.930700 -1020.830000 -339.232000 1 1.000000 16 -3.000000
400 1 -54.238400 -982.898000 -334.534000 1 1.000000 16 0.000000
401 3 -45.172900 -1002.940000 -307.347000 1 1.000000 16 0.000000
402 2 -18.749600 -958.844000 -314.893000 1 1.000000 16 -3.000000
403 2 -16.401700 -967.286000 -310.188000 1 1.000000 1 -3.000000
404 2 -12.881300 -974.800000 -304.860000 1 1.000000 1 -3.000000
405 2 -9.168920 -982.709000 -300.246000 1 1.000000 1 -3.000000
406 2 -5.319300 -991.252000 -297.010000 1 1.000000 1 -3.000000
407 2 -1.149810 -1000.100000 -295.265000 1 1.000000 1 -3.000000
408 2 2.217460 -1009.420000 -294.917000 1 1.000000 1 -3.000000
409 2 7.324130 -1017.870000 -293.900000 1 1.000000 1 -3.000000
410 2 11.366600 -1026.900000 -292.713000 1 1.000000 1 -3.000000
411 2 16.391300 -1035.320000 -293.714000 1 1.000000 1 -3.000000
412 2 21.959300 -1043.230000 -295.668000 1 1.000000 1 -3.000000
413 2 26.116400 -1052.000000 -297.730000 1 1.000000 1 -3.000000
414 2 31.681600 -1059.440000 -301.318000 1 1.000000 1 -3.000000
415 2 37.792300 -1066.260000 -305.129000 1 1.000000 1 -3.000000
416 2 45.276700 -1071.720000 -308.490000 1 1.000000 1 -3.000000
417 2 52.302000 -1076.930000 -313.029000 1 1.000000 1 -3.000000
418 2 59.594500 -1082.540000 -316.744000 1 1.000000 1 -3.000000
419 2 65.141500 -1089.430000 -321.077000 1 1.000000 1 -3.000000
420 2 68.253100 -1098.440000 -323.878000 1 1.000000 1 -3.000000
421 2 71.307200 -1107.870000 -323.247000 1 1.000000 1 -3.000000
422 2 72.167700 -1117.630000 -321.827000 1 1.000000 1 -3.000000
423 2 71.901600 -1126.880000 -318.379000 1 1.000000 1 -3.000000
424 2 70.929300 -1134.880000 -312.681000 1 1.000000 1 -3.000000
425 2 68.464600 -1142.790000 -307.155000 1 1.000000 1 -3.000000
426 2 68.116100 -1151.110000 -301.964000 1 1.000000 17 -3.000000
427 1 33.185500 -1136.240000 -274.003000 1 1.000000 17 0.000000
428 3 34.455000 -1111.780000 -299.056000 1 1.000000 17 0.000000
429 2 -1.838220 -1106.750000 -262.232000 1 1.000000 17 -3.000000
430 2 0.677474 -1098.490000 -267.167000 1 1.000000 1 -3.000000
431 2 1.002490 -1092.200000 -274.756000 1 1.000000 1 -3.000000
432 2 1.900940 -1086.530000 -282.851000 1 1.000000 1 -3.000000
433 2 3.525860 -1080.960000 -290.872000 1 1.000000 1 -3.000000
434 2 6.462250 -1077.620000 -299.729000 1 1.000000 1 -3.000000
435 2 9.857160 -1074.470000 -308.443000 1 1.000000 1 -3.000000
436 2 13.229400 -1073.360000 -317.609000 1 1.000000 1 -3.000000
437 2 16.729300 -1069.530000 -326.077000 1 1.000000 1 -3.000000
438 2 20.142800 -1065.400000 -334.503000 1 1.000000 1 -3.000000
439 2 23.254200 -1061.520000 -343.087000 1 1.000000 1 -3.000000
440 2 25.601900 -1059.020000 -352.387000 1 1.000000 1 -3.000000
441 2 26.641700 -1055.420000 -361.576000 1 1.000000 1 -3.000000
442 2 27.273300 -1053.150000 -371.181000 1 1.000000 1 -3.000000
443 2 28.766600 -1050.350000 -380.586000 1 1.000000 1 -3.000000
444 2 28.197100 -1047.490000 -390.113000 1 1.000000 1 -3.000000
445 2 25.859300 -1047.720000 -399.730000 1 1.000000 1 -3.000000
446 2 23.188500 -1047.620000 -409.242000 1 1.000000 1 -3.000000
447 2 18.882800 -1050.150000 -417.850000 1 1.000000 1 -3.000000
448 2 13.942400 -1050.900000 -426.379000 1 1.000000 1 -3.000000
449 2 8.280750 -1049.500000 -434.396000 1 1.000000 1 -3.000000
450 2 1.326060 -1048.960000 -441.419000 1 1.000000 1 -3.000000
451 2 -6.835280 -1047.710000 -446.937000 1 1.000000 1 -3.000000
452 2 -15.541600 -1047.360000 -451.657000 1 1.000000 1 -3.000000
453 2 -23.891800 -1047.220000 -456.994000 1 1.000000 18 -3.000000
454 1 -51.993800 -1035.350000 -420.993000 1 1.000000 18 0.000000
455 3 -19.888700 -1029.700000 -408.231000 1 1.000000 18 0.000000
456 2 -60.358700 -1019.910000 -377.205000 1 1.000000 18 -3.000000
457 2 -52.816800 -1014.010000 -374.284000 1 1.000000 1 -3.000000