LAMMPS data file

4067 atoms
4067 ellipsoids
4516 bonds
8882 angles
0 dihedrals

3 atom types
5 bond types
12 angle types
0 dihedral types

-4631.092947 4670.465898 xlo xhi
-4631.092947 4670.465898 ylo yhi
-4631.092947 4670.465898 zlo zhi

Masses

1 196016.000000
2 1950.000000
3 19500.000000

Atoms

1 2 183.874000 -1197.570000 363.669000 1 1.000000 1 -3.000000
2 2 185.612000 -1205.410000 357.679000 1 1.000000 1 -3.000000
3 2 187.196000 -1214.030000 353.079000 1 1.000000 1 -3.000000
4 2 190.805000 -1221.850000 348.175000 1 1.000000 1 -3.000000
5 2 192.808000 -1230.150000 343.285000 1 1.000000 1 -3.000000
6 2 191.587000 -1238.910000 338.702000 1 1.000000 1 -3.000000
7 2 190.946000 -1248.120000 335.318000 1 1.000000 1 -3.000000
8 2 189.405000 -1257.860000 334.085000 1 1.000000 1 -3.000000
9 2 189.555000 -1267.670000 334.426000 1 1.000000 1 -3.000000
10 2 188.288000 -1277.260000 332.022000 1 1.000000 1 -3.000000
11 2 187.271000 -1286.390000 328.395000 1 1.000000 1 -3.000000
12 2 185.037000 -1295.070000 324.263000 1 1.000000 1 -3.000000
13 2 183.830000 -1304.600000 321.933000 1 1.000000 1 -3.000000
14 2 182.740000 -1314.070000 319.227000 1 1.000000 1 -3.000000
15 2 181.207000 -1323.690000 317.735000 1 1.000000 1 -3.000000
16 2 179.212000 -1333.060000 314.984000 1 1.000000 1 -3.000000
17 2 175.079000 -1341.490000 311.847000 1 1.000000 1 -3.000000
18 2 169.779000 -1349.490000 309.343000 1 1.000000 1 -3.000000
19 2 161.886000 -1354.830000 306.622000 1 1.000000 1 -3.000000
20 2 154.277000 -1361.140000 306.500000 1 1.000000 1 -3.000000
21 2 146.341000 -1366.920000 305.115000 1 1.000000 2 -3.000000
22 1 127.261000 -1365.810000 348.242000 1 1.000000 2 0.000000
23 3 151.325000 -1340.440000 349.534000 1 1.000000 2 0.000000
24 2 121.877000 -1347.830000 391.535000 1 1.000000 2 -3.000000
25 2 123.445000 -1338.390000 388.960000 1 1.000000 1 -3.000000
26 2 126.678000 -1329.590000 385.762000 1 1.000000 1 -3.000000
27 2 130.752000 -1320.840000 383.559000 1 1.000000 1 -3.000000
28 2 137.638000 -1314.020000 381.459000 1 1.000000 1 -3.000000
29 2 145.385000 -1308.460000 378.683000 1 1.000000 1 -3.000000
30 2 153.848000 -1304.710000 375.125000 1 1.000000 1 -3.000000
31 2 161.912000 -1300.130000 371.809000 1 1.000000 1 -3.000000
32 2 170.168000 -1296.830000 367.421000 1 1.000000 1 -3.000000
33 2 179.164000 -1294.340000 363.902000 1 1.000000 1 -3.000000
34 2 188.657000 -1293.390000 361.106000 1 1.000000 1 -3.000000
35 2 198.140000 -1294.730000 358.494000 1 1.000000 1 -3.000000
36 2 207.100000 -1297.570000 355.212000 1 1.000000 1 -3.000000
37 2 215.302000 -1301.670000 351.478000 1 1.000000 1 -3.000000
38 2 222.815000 -1304.360000 345.657000 1 1.000000 1 -3.000000
39 2 226.782000 -1310.760000 339.312000 1 1.000000 1 -3.000000
40 2 229.734000 -1317.070000 332.084000 1 1.000000 1 -3.000000
41 2 231.496000 -1322.570000 324.080000 1 1.000000 1 -3.000000
42 2 234.149000 -1328.400000 316.666000 1 1.000000 1 -3.000000
43 2 234.175000 -1333.660000 308.275000 1 1.000000 1 -3.000000
44 2 233.805000 -1338.080000 299.419000 1 1.000000 1 -3.000000
45 2 232.693000 -1343.330000 291.020000 1 1.000000 1 -3.000000
46 2 231.279000 -1347.660000 282.222000 1 1.000000 1 -3.000000
47 2 229.228000 -1349.870000 272.864000 1 1.000000 1 -3.000000
48 2 226.991000 -1351.750000 263.310000 1 1.000000 3 -3.000000
49 1 233.403000 -1309.990000 242.264000 1 1.000000 3 0.000000
50 3 247.617000 -1305.320000 273.822000 1 1.000000 3 0.000000
51 2 252.240000 -1266.900000 239.156000 1 1.000000 3 -3.000000
52 2 258.275000 -1268.200000 246.877000 1 1.000000 1 -3.000000
53 2 263.392000 -1270.230000 255.087000 1 1.000000 1 -3.000000
54 2 267.679000 -1271.540000 263.870000 1 1.000000 1 -3.000000
55 2 272.401000 -1271.110000 272.560000 1 1.000000 1 -3.000000
56 2 275.289000 -1270.420000 281.992000 1 1.000000 1 -3.000000
57 2 279.383000 -1268.610000 290.750000 1 1.000000 1 -3.000000
58 2 283.989000 -1265.930000 299.199000 1 1.000000 1 -3.000000
59 2 287.914000 -1263.230000 307.955000 1 1.000000 1 -3.000000
60 2 292.445000 -1259.170000 315.772000 1 1.000000 1 -3.000000
61 2 298.583000 -1256.760000 323.214000 1 1.000000 1 -3.000000
62 2 303.627000 -1252.800000 330.755000 1 1.000000 1 -3.000000
63 2 306.388000 -1246.190000 337.580000 1 1.000000 1 -3.000000
64 2 310.161000 -1239.450000 343.729000 1 1.000000 1 -3.000000
65 2 313.071000 -1231.580000 349.020000 1 1.000000 1 -3.000000
66 2 315.031000 -1222.270000 351.886000 1 1.000000 1 -3.000000
67 2 316.399000 -1212.950000 355.060000 1 1.000000 1 -3.000000
68 2 316.447000 -1204.690000 360.493000 1 1.000000 1 -3.000000
69 2 316.777000 -1196.720000 366.335000 1 1.000000 1 -3.000000
70 2 317.461000 -1188.990000 372.363000 1 1.000000 1 -3.000000
71 2 318.572000 -1181.730000 378.947000 1 1.000000 1 -3.000000
72 2 321.539000 -1173.950000 384.415000 1 1.000000 1 -3.000000
73 2 325.308000 -1166.120000 389.124000 1 1.000000 1 -3.000000
74 2 330.488000 -1159.200000 393.987000 1 1.000000 1 -3.000000
75 2 335.949000 -1152.030000 398.262000 1 1.000000 4 -3.000000
76 1 376.371000 -1175.200000 405.941000 1 1.000000 4 0.000000
77 3 361.464000 -1193.340000 380.052000 1 1.000000 4 0.000000
78 2 406.627000 -1210.680000 398.783000 1 1.000000 4 -3.000000
79 2 404.083000 -1214.500000 389.932000 1 1.000000 1 -3.000000
80 2 402.714000 -1217.260000 380.647000 1 1.000000 1 -3.000000
81 2 399.221000 -1220.520000 371.968000 1 1.000000 1 -3.000000
82 2 393.733000 -1222.150000 363.956000 1 1.000000 1 -3.000000
83 2 386.218000 -1221.920000 357.452000 1 1.000000 1 -3.000000
84 2 379.110000 -1224.630000 351.179000 1 1.000000 1 -3.000000
85 2 371.484000 -1223.550000 345.020000 1 1.000000 1 -3.000000
86 2 362.738000 -1223.210000 340.474000 1 1.000000 1 -3.000000
87 2 355.390000 -1224.630000 333.884000 1 1.000000 1 -3.000000
88 2 348.942000 -1224.500000 326.364000 1 1.000000 1 -3.000000
89 2 342.821000 -1225.370000 318.597000 1 1.000000 1 -3.000000
90 2 336.228000 -1227.760000 311.632000 1 1.000000 1 -3.000000
91 2 330.297000 -1232.250000 305.057000 1 1.000000 1 -3.000000
92 2 324.956000 -1237.760000 298.847000 1 1.000000 1 -3.000000
93 2 320.099000 -1242.210000 291.479000 1 1.000000 1 -3.000000
94 2 313.983000 -1245.800000 284.501000 1 1.000000 1 -3.000000
95 2 307.036000 -1247.260000 277.435000 1 1.000000 1 -3.000000
96 2 299.242000 -1247.400000 271.427000 1 1.000000 1 -3.000000
97 2 291.255000 -1245.590000 265.893000 1 1.000000 1 -3.000000
98 2 282.914000 -1243.590000 260.950000 1 1.000000 1 -3.000000
99 2 274.636000 -1241.600000 255.883000 1 1.000000 1 -3.000000
100 2 267.150000 -1240.630000 249.485000 1 1.000000 1 -3.000000
101 2 261.035000 -1240.130000 241.698000 1 1.000000 1 -3.000000
102 2 255.867000 -1238.430000 233.467000 1 1.000000 5 -3.000000
103 1 214.868000 -1235.310000 256.599000 1 1.000000 5 0.000000
104 3 236.107000 -1250.030000 280.068000 1 1.000000 5 0.000000
105 2 187.559000 -1239.090000 294.858000 1 1.000000 5 -3.000000
106 2 194.207000 -1242.970000 301.107000 1 1.000000 1 -3.000000
107 2 200.903000 -1244.760000 308.168000 1 1.000000 1 -3.000000
108 2 208.177000 -1246.870000 314.463000 1 1.000000 1 -3.000000
109 2 216.788000 -1245.590000 319.106000 1 1.000000 1 -3.000000
110 2 224.523000 -1243.170000 324.683000 1 1.000000 1 -3.000000
111 2 231.414000 -1240.490000 331.206000 1 1.000000 1 -3.000000
112 2 236.885000 -1239.590000 339.378000 1 1.000000 1 -3.000000
113 2 243.582000 -1237.130000 346.260000 1 1.000000 1 -3.000000
114 2 250.489000 -1236.670000 353.386000 1 1.000000 1 -3.000000
115 2 258.945000 -1237.620000 358.413000 1 1.000000 1 -3.000000
116 2 267.526000 -1239.280000 363.088000 1 1.000000 1 -3.000000
117 2 274.612000 -1242.530000 369.208000 1 1.000000 1 -3.000000
118 2 281.497000 -1245.550000 375.554000 1 1.000000 1 -3.000000
119 2 288.244000 -1248.740000 381.928000 1 1.000000 1 -3.000000
120 2 294.590000 -1252.860000 388.186000 1 1.000000 1 -3.000000
121 2 300.815000 -1254.270000 395.777000 1 1.000000 1 -3.000000
122 2 307.017000 -1254.750000 403.565000 1 1.000000 1 -3.000000
123 2 314.794000 -1254.670000 409.721000 1 1.000000 1 -3.000000
124 2 324.197000 -1254.310000 412.896000 1 1.000000 1 -3.000000
125 2 332.699000 -1255.660000 417.691000 1 1.000000 1 -3.000000
126 2 340.771000 -1255.560000 423.357000 1 1.000000 1 -3.000000
127 2 349.280000 -1255.570000 428.423000 1 1.000000 1 -3.000000
128 2 357.043000 -1256.090000 434.636000 1 1.000000 1 -3.000000
129 2 362.723000 -1259.630000 441.862000 1 1.000000 6 -3.000000
130 1 343.999000 -1231.900000 475.147000 1 1.000000 6 0.000000
131 3 315.991000 -1242.990000 457.271000 1 1.000000 6 0.000000
132 2 307.926000 -1211.980000 498.077000 1 1.000000 6 -3.000000
133 2 300.555000 -1216.530000 493.451000 1 1.000000 1 -3.000000
134 2 292.534000 -1221.310000 489.966000 1 1.000000 1 -3.000000
135 2 285.457000 -1227.050000 486.031000 1 1.000000 1 -3.000000
136 2 279.875000 -1233.440000 480.851000 1 1.000000 1 -3.000000
137 2 275.805000 -1240.670000 475.407000 1 1.000000 1 -3.000000
138 2 271.692000 -1247.990000 470.109000 1 1.000000 1 -3.000000
139 2 267.670000 -1256.190000 466.147000 1 1.000000 1 -3.000000
140 2 263.457000 -1263.170000 460.600000 1 1.000000 1 -3.000000
141 2 260.159000 -1271.580000 456.406000 1 1.000000 1 -3.000000
142 2 258.539000 -1279.480000 450.625000 1 1.000000 1 -3.000000
143 2 257.285000 -1287.080000 444.434000 1 1.000000 1 -3.000000
144 2 255.527000 -1293.380000 436.879000 1 1.000000 1 -3.000000
145 2 253.419000 -1300.900000 430.828000 1 1.000000 1 -3.000000
146 2 251.912000 -1308.320000 424.413000 1 1.000000 1 -3.000000
147 2 250.394000 -1315.550000 417.745000 1 1.000000 1 -3.000000
148 2 249.888000 -1322.900000 410.945000 1 1.000000 1 -3.000000
149 2 249.409000 -1329.990000 404.054000 1 1.000000 1 -3.000000
150 2 250.758000 -1335.240000 395.691000 1 1.000000 1 -3.000000
151 2 253.749000 -1336.350000 386.322000 1 1.000000 1 -3.000000
152 2 256.211000 -1336.160000 376.749000 1 1.000000 1 -3.000000
153 2 261.281000 -1335.570000 368.302000 1 1.000000 1 -3.000000
154 2 269.702000 -1334.530000 363.156000 1 1.000000 1 -3.000000
155 2 278.090000 -1335.020000 357.879000 1 1.000000 1 -3.000000
156 2 286.118000 -1334.950000 352.146000 1 1.000000 7 -3.000000
157 1 312.120000 -1301.390000 372.671000 1 1.000000 7 0.000000
158 3 289.037000 -1309.940000 397.560000 1 1.000000 7 0.000000
159 2 324.519000 -1273.730000 408.855000 1 1.000000 7 -3.000000
160 2 322.960000 -1280.090000 416.294000 1 1.000000 1 -3.000000
161 2 321.692000 -1287.830000 422.365000 1 1.000000 1 -3.000000
162 2 319.991000 -1296.340000 427.124000 1 1.000000 1 -3.000000
163 2 318.087000 -1305.720000 429.899000 1 1.000000 1 -3.000000
164 2 317.938000 -1315.210000 432.757000 1 1.000000 1 -3.000000
165 2 318.025000 -1324.810000 434.805000 1 1.000000 1 -3.000000
166 2 316.335000 -1333.740000 438.876000 1 1.000000 1 -3.000000
167 2 313.784000 -1343.020000 441.457000 1 1.000000 1 -3.000000
168 2 311.791000 -1351.300000 446.616000 1 1.000000 1 -3.000000
169 2 309.509000 -1359.050000 452.454000 1 1.000000 1 -3.000000
170 2 306.929000 -1366.300000 458.600000 1 1.000000 1 -3.000000
171 2 305.120000 -1373.430000 465.289000 1 1.000000 1 -3.000000
172 2 304.806000 -1380.950000 471.789000 1 1.000000 1 -3.000000
173 2 303.965000 -1387.220000 479.462000 1 1.000000 1 -3.000000
174 2 302.806000 -1394.810000 485.722000 1 1.000000 1 -3.000000
175 2 300.762000 -1401.320000 492.946000 1 1.000000 1 -3.000000
176 2 298.907000 -1409.330000 498.569000 1 1.000000 1 -3.000000
177 2 297.338000 -1417.130000 504.446000 1 1.000000 1 -3.000000
178 2 295.777000 -1424.530000 510.913000 1 1.000000 1 -3.000000
179 2 294.374000 -1432.070000 517.064000 1 1.000000 1 -3.000000
180 2 292.041000 -1440.250000 522.228000 1 1.000000 1 -3.000000
181 2 289.495000 -1449.050000 525.873000 1 1.000000 1 -3.000000
182 2 285.616000 -1458.170000 525.296000 1 1.000000 1 -3.000000
183 2 283.164000 -1467.660000 526.090000 1 1.000000 8 -3.000000
184 1 312.810000 -1489.780000 496.780000 1 1.000000 8 0.000000
185 3 324.649000 -1456.840000 496.797000 1 1.000000 8 0.000000
186 2 348.517000 -1491.260000 466.072000 1 1.000000 8 -3.000000
187 2 350.271000 -1481.570000 466.948000 1 1.000000 1 -3.000000
188 2 355.050000 -1473.370000 469.990000 1 1.000000 1 -3.000000
189 2 359.312000 -1464.700000 471.789000 1 1.000000 1 -3.000000
190 2 363.230000 -1455.940000 474.082000 1 1.000000 1 -3.000000
191 2 365.201000 -1447.190000 478.036000 1 1.000000 1 -3.000000
192 2 364.893000 -1437.770000 480.890000 1 1.000000 1 -3.000000
193 2 364.944000 -1428.350000 483.970000 1 1.000000 1 -3.000000
194 2 367.489000 -1419.480000 487.536000 1 1.000000 1 -3.000000
195 2 370.196000 -1410.420000 490.611000 1 1.000000 1 -3.000000
196 2 373.209000 -1401.020000 491.434000 1 1.000000 1 -3.000000
197 2 374.683000 -1391.270000 491.634000 1 1.000000 1 -3.000000
198 2 377.579000 -1382.040000 493.527000 1 1.000000 1 -3.000000
199 2 379.769000 -1373.140000 497.304000 1 1.000000 1 -3.000000
200 2 381.626000 -1363.970000 500.661000 1 1.000000 1 -3.000000
201 2 382.861000 -1354.490000 503.127000 1 1.000000 1 -3.000000
202 2 383.055000 -1344.990000 506.075000 1 1.000000 1 -3.000000
203 2 381.750000 -1336.190000 510.495000 1 1.000000 1 -3.000000
204 2 382.820000 -1326.940000 513.984000 1 1.000000 1 -3.000000
205 2 383.489000 -1317.310000 516.179000 1 1.000000 1 -3.000000
206 2 386.172000 -1308.270000 519.406000 1 1.000000 1 -3.000000
207 2 389.787000 -1300.060000 523.483000 1 1.000000 1 -3.000000
208 2 395.546000 -1293.300000 527.812000 1 1.000000 1 -3.000000
209 2 400.064000 -1287.000000 534.031000 1 1.000000 1 -3.000000
210 2 402.615000 -1279.880000 540.283000 1 1.000000 9 -3.000000
211 1 425.791000 -1307.460000 570.716000 1 1.000000 9 0.000000
212 3 413.901000 -1330.090000 546.804000 1 1.000000 9 0.000000
213 2 438.674000 -1349.390000 588.189000 1 1.000000 9 -3.000000
214 2 438.649000 -1355.060000 580.107000 1 1.000000 1 -3.000000
215 2 439.062000 -1358.140000 570.705000 1 1.000000 1 -3.000000
216 2 436.304000 -1363.130000 562.660000 1 1.000000 1 -3.000000
217 2 432.564000 -1368.040000 555.007000 1 1.000000 1 -3.000000
218 2 429.120000 -1372.190000 546.749000 1 1.000000 1 -3.000000
219 2 424.355000 -1374.510000 538.381000 1 1.000000 1 -3.000000
220 2 421.788000 -1376.700000 529.121000 1 1.000000 1 -3.000000
221 2 418.525000 -1376.950000 519.706000 1 1.000000 1 -3.000000
222 2 416.554000 -1376.070000 510.047000 1 1.000000 1 -3.000000
223 2 414.390000 -1375.720000 500.426000 1 1.000000 1 -3.000000
224 2 409.890000 -1372.790000 492.024000 1 1.000000 1 -3.000000
225 2 406.652000 -1367.570000 484.269000 1 1.000000 1 -3.000000
226 2 405.004000 -1362.940000 475.643000 1 1.000000 1 -3.000000
227 2 403.684000 -1356.910000 467.915000 1 1.000000 1 -3.000000
228 2 403.256000 -1348.050000 463.406000 1 1.000000 1 -3.000000
229 2 403.233000 -1339.520000 458.354000 1 1.000000 1 -3.000000
230 2 402.246000 -1330.970000 453.422000 1 1.000000 1 -3.000000
231 2 401.149000 -1323.330000 447.167000 1 1.000000 1 -3.000000
232 2 401.233000 -1315.040000 441.747000 1 1.000000 1 -3.000000
233 2 401.027000 -1306.560000 436.638000 1 1.000000 1 -3.000000
234 2 403.024000 -1297.840000 432.493000 1 1.000000 1 -3.000000
235 2 406.510000 -1289.510000 428.519000 1 1.000000 1 -3.000000
236 2 410.777000 -1280.900000 425.938000 1 1.000000 1 -3.000000
237 2 412.587000 -1271.250000 424.497000 1 1.000000 10 -3.000000
238 1 435.768000 -1261.260000 464.352000 1 1.000000 10 0.000000
239 3 435.241000 -1296.170000 464.092000 1 1.000000 10 0.000000
240 2 457.568000 -1272.640000 504.595000 1 1.000000 10 -3.000000
241 2 462.198000 -1281.120000 502.356000 1 1.000000 1 -3.000000
242 2 465.886000 -1289.210000 498.067000 1 1.000000 1 -3.000000
243 2 469.305000 -1297.650000 494.106000 1 1.000000 1 -3.000000
244 2 471.570000 -1306.050000 489.335000 1 1.000000 1 -3.000000
245 2 473.807000 -1313.570000 483.367000 1 1.000000 1 -3.000000
246 2 475.742000 -1322.040000 478.696000 1 1.000000 1 -3.000000
247 2 475.482000 -1331.050000 474.640000 1 1.000000 1 -3.000000
248 2 474.270000 -1339.800000 470.206000 1 1.000000 1 -3.000000
249 2 473.311000 -1346.900000 463.358000 1 1.000000 1 -3.000000
250 2 471.335000 -1355.060000 458.195000 1 1.000000 1 -3.000000
251 2 469.472000 -1362.240000 451.667000 1 1.000000 1 -3.000000
252 2 467.275000 -1370.480000 446.668000 1 1.000000 1 -3.000000
253 2 465.084000 -1378.240000 440.955000 1 1.000000 1 -3.000000
254 2 464.900000 -1385.890000 434.615000 1 1.000000 1 -3.000000
255 2 463.050000 -1392.110000 427.032000 1 1.000000 1 -3.000000
256 2 460.939000 -1397.420000 418.956000 1 1.000000 1 -3.000000
257 2 461.108000 -1400.650000 409.628000 1 1.000000 1 -3.000000
258 2 462.487000 -1402.080000 399.945000 1 1.000000 1 -3.000000
259 2 465.168000 -1402.420000 390.370000 1 1.000000 1 -3.000000
260 2 467.626000 -1403.260000 380.780000 1 1.000000 1 -3.000000
261 2 471.327000 -1402.830000 371.593000 1 1.000000 1 -3.000000
262 2 475.092000 -1400.480000 362.681000 1 1.000000 1 -3.000000
263 2 479.444000 -1395.870000 355.098000 1 1.000000 1 -3.000000
264 2 483.774000 -1394.680000 346.235000 1 1.000000 11 -3.000000
265 1 510.083000 -1358.770000 361.934000 1 1.000000 11 0.000000
266 3 503.001000 -1376.810000 391.000000 1 1.000000 11 0.000000
267 2 533.244000 -1334.850000 395.380000 1 1.000000 11 -3.000000
268 2 531.853000 -1341.000000 403.155000 1 1.000000 1 -3.000000
269 2 531.066000 -1347.780000 410.271000 1 1.000000 1 -3.000000
270 2 530.428000 -1354.490000 417.435000 1 1.000000 1 -3.000000
271 2 526.214000 -1361.420000 423.103000 1 1.000000 1 -3.000000
272 2 523.389000 -1368.340000 429.548000 1 1.000000 1 -3.000000
273 2 521.695000 -1377.060000 434.064000 1 1.000000 1 -3.000000
274 2 520.263000 -1385.730000 438.492000 1 1.000000 1 -3.000000
275 2 520.857000 -1395.220000 441.385000 1 1.000000 1 -3.000000
276 2 523.427000 -1404.520000 443.657000 1 1.000000 1 -3.000000
277 2 527.426000 -1413.110000 446.466000 1 1.000000 1 -3.000000
278 2 532.978000 -1418.710000 452.365000 1 1.000000 1 -3.000000
279 2 539.307000 -1424.780000 456.973000 1 1.000000 1 -3.000000
280 2 543.918000 -1432.580000 461.017000 1 1.000000 1 -3.000000
281 2 546.990000 -1440.560000 465.929000 1 1.000000 1 -3.000000
282 2 552.000000 -1448.740000 468.433000 1 1.000000 1 -3.000000
283 2 557.451000 -1456.160000 471.917000 1 1.000000 1 -3.000000
284 2 562.656000 -1462.050000 478.007000 1 1.000000 1 -3.000000
285 2 566.915000 -1467.930000 484.782000 1 1.000000 1 -3.000000
286 2 569.325000 -1473.410000 492.722000 1 1.000000 1 -3.000000
287 2 572.898000 -1480.210000 499.020000 1 1.000000 1 -3.000000
288 2 579.425000 -1485.740000 504.124000 1 1.000000 1 -3.000000
289 2 586.099000 -1490.810000 509.366000 1 1.000000 1 -3.000000
290 2 593.533000 -1495.500000 513.894000 1 1.000000 1 -3.000000
291 2 601.323000 -1497.110000 519.832000 1 1.000000 12 -3.000000
292 1 635.774000 -1486.150000 489.549000 1 1.000000 12 0.000000
293 3 610.723000 -1462.970000 481.851000 1 1.000000 12 0.000000
294 2 654.902000 -1460.760000 454.711000 1 1.000000 12 -3.000000
295 2 646.819000 -1454.950000 454.577000 1 1.000000 1 -3.000000
296 2 640.031000 -1447.760000 454.055000 1 1.000000 1 -3.000000
297 2 633.926000 -1439.890000 453.735000 1 1.000000 1 -3.000000
298 2 627.378000 -1432.770000 455.875000 1 1.000000 1 -3.000000
299 2 618.667000 -1428.260000 456.040000 1 1.000000 1 -3.000000
300 2 609.399000 -1424.830000 456.791000 1 1.000000 1 -3.000000
301 2 600.936000 -1419.850000 456.024000 1 1.000000 1 -3.000000
302 2 593.423000 -1413.600000 454.372000 1 1.000000 1 -3.000000
303 2 585.768000 -1408.080000 451.488000 1 1.000000 1 -3.000000
304 2 578.431000 -1401.640000 449.599000 1 1.000000 1 -3.000000
305 2 571.443000 -1395.160000 446.658000 1 1.000000 1 -3.000000
306 2 563.747000 -1389.350000 444.338000 1 1.000000 1 -3.000000
307 2 557.634000 -1381.640000 443.014000 1 1.000000 1 -3.000000
308 2 552.220000 -1373.360000 442.856000 1 1.000000 1 -3.000000
309 2 546.113000 -1365.530000 442.691000 1 1.000000 1 -3.000000
310 2 542.315000 -1356.720000 445.211000 1 1.000000 1 -3.000000
311 2 537.862000 -1347.950000 446.634000 1 1.000000 1 -3.000000
312 2 533.681000 -1339.000000 447.187000 1 1.000000 1 -3.000000
313 2 528.504000 -1330.640000 447.768000 1 1.000000 1 -3.000000
314 2 525.471000 -1321.250000 448.402000 1 1.000000 1 -3.000000
315 2 523.232000 -1312.050000 451.101000 1 1.000000 1 -3.000000
316 2 520.910000 -1302.820000 453.607000 1 1.000000 1 -3.000000
317 2 520.527000 -1294.040000 458.203000 1 1.000000 1 -3.000000
318 2 519.821000 -1285.260000 462.742000 1 1.000000 13 -3.000000
319 1 526.700000 -1300.420000 506.896000 1 1.000000 13 0.000000
320 3 545.764000 -1322.670000 487.671000 1 1.000000 13 0.000000
321 2 543.715000 -1330.460000 539.034000 1 1.000000 13 -3.000000
322 2 551.695000 -1333.570000 533.974000 1 1.000000 1 -3.000000
323 2 559.919000 -1336.360000 529.215000 1 1.000000 1 -3.000000
324 2 567.610000 -1339.030000 523.652000 1 1.000000 1 -3.000000
325 2 574.253000 -1339.590000 516.350000 1 1.000000 1 -3.000000
326 2 580.095000 -1342.630000 508.940000 1 1.000000 1 -3.000000
327 2 584.108000 -1343.720000 499.947000 1 1.000000 1 -3.000000
328 2 587.547000 -1344.580000 490.715000 1 1.000000 1 -3.000000
329 2 590.765000 -1345.150000 481.356000 1 1.000000 1 -3.000000
330 2 594.317000 -1345.620000 472.120000 1 1.000000 1 -3.000000
331 2 599.708000 -1347.020000 464.006000 1 1.000000 1 -3.000000
332 2 605.236000 -1347.970000 455.825000 1 1.000000 1 -3.000000
333 2 611.040000 -1350.070000 448.023000 1 1.000000 1 -3.000000
334 2 616.989000 -1353.330000 440.855000 1 1.000000 1 -3.000000
335 2 622.489000 -1357.010000 433.463000 1 1.000000 1 -3.000000
336 2 629.396000 -1360.540000 427.243000 1 1.000000 1 -3.000000
337 2 637.491000 -1363.190000 422.179000 1 1.000000 1 -3.000000
338 2 646.055000 -1365.650000 417.948000 1 1.000000 1 -3.000000
339 2 654.622000 -1369.710000 415.151000 1 1.000000 1 -3.000000
340 2 662.799000 -1373.180000 410.846000 1 1.000000 1 -3.000000
341 2 669.371000 -1377.660000 404.877000 1 1.000000 1 -3.000000
342 2 672.663000 -1384.510000 398.552000 1 1.000000 1 -3.000000
343 2 674.339000 -1391.720000 391.785000 1 1.000000 1 -3.000000
344 2 676.331000 -1399.790000 386.274000 1 1.000000 1 -3.000000
345 2 680.333000 -1405.980000 379.728000 1 1.000000 14 -3.000000
346 1 639.076000 -1413.290000 358.195000 1 1.000000 14 0.000000
347 3 632.782000 -1385.270000 378.216000 1 1.000000 14 0.000000
348 2 593.606000 -1403.850000 349.655000 1 1.000000 14 -3.000000
349 2 592.580000 -1394.140000 351.568000 1 1.000000 1 -3.000000
350 2 593.045000 -1384.830000 355.055000 1 1.000000 1 -3.000000
351 2 593.998000 -1375.540000 358.182000 1 1.000000 1 -3.000000
352 2 596.562000 -1366.490000 361.266000 1 1.000000 1 -3.000000
353 2 599.778000 -1358.140000 365.344000 1 1.000000 1 -3.000000
354 2 604.652000 -1350.550000 369.329000 1 1.000000 1 -3.000000
355 2 608.598000 -1341.840000 371.569000 1 1.000000 1 -3.000000
356 2 613.516000 -1333.760000 374.401000 1 1.000000 1 -3.000000
357 2 617.801000 -1325.180000 376.767000 1 1.000000 1 -3.000000
358 2 621.967000 -1316.310000 378.159000 1 1.000000 1 -3.000000
359 2 623.505000 -1306.680000 379.925000 1 1.000000 1 -3.000000
360 2 624.894000 -1297.040000 381.133000 1 1.000000 1 -3.000000
361 2 624.504000 -1287.180000 380.291000 1 1.000000 1 -3.000000
362 2 622.268000 -1278.050000 377.064000 1 1.000000 1 -3.000000
363 2 618.542000 -1269.540000 373.532000 1 1.000000 1 -3.000000
364 2 615.843000 -1260.570000 370.254000 1 1.000000 1 -3.000000
365 2 612.447000 -1252.300000 365.952000 1 1.000000 1 -3.000000
366 2 608.834000 -1243.860000 362.229000 1 1.000000 1 -3.000000
367 2 603.716000 -1236.420000 358.123000 1 1.000000 1 -3.000000
368 2 599.617000 -1227.540000 356.722000 1 1.000000 1 -3.000000
369 2 595.920000 -1218.410000 356.364000 1 1.000000 1 -3.000000
370 2 592.660000 -1209.190000 357.831000 1 1.000000 1 -3.000000
371 2 590.974000 -1199.380000 358.035000 1 1.000000 1 -3.000000
372 2 587.623000 -1190.050000 357.028000 1 1.000000 15 -3.000000
373 1 600.935000 -1182.380000 401.675000 1 1.000000 15 0.000000
374 3 619.038000 -1210.980000 392.833000 1 1.000000 15 0.000000
375 2 624.284000 -1193.210000 441.208000 1 1.000000 15 -3.000000
376 2 628.195000 -1201.030000 436.501000 1 1.000000 1 -3.000000
377 2 633.860000 -1208.730000 433.668000 1 1.000000 1 -3.000000
378 2 639.715000 -1215.890000 430.080000 1 1.000000 1 -3.000000
379 2 645.830000 -1222.370000 425.681000 1 1.000000 1 -3.000000
380 2 649.636000 -1229.800000 420.206000 1 1.000000 1 -3.000000
381 2 652.066000 -1235.880000 412.821000 1 1.000000 1 -3.000000
382 2 651.168000 -1240.800000 404.320000 1 1.000000 1 -3.000000
383 2 650.118000 -1245.550000 395.810000 1 1.000000 1 -3.000000
384 2 649.269000 -1252.350000 388.688000 1 1.000000 1 -3.000000
385 2 649.483000 -1258.820000 381.255000 1 1.000000 1 -3.000000
386 2 650.388000 -1265.770000 374.211000 1 1.000000 1 -3.000000
387 2 651.076000 -1273.160000 367.688000 1 1.000000 1 -3.000000
388 2 651.209000 -1281.540000 362.334000 1 1.000000 1 -3.000000
389 2 651.084000 -1289.060000 355.923000 1 1.000000 1 -3.000000
390 2 653.421000 -1297.280000 350.876000 1 1.000000 1 -3.000000
391 2 655.173000 -1306.350000 347.387000 1 1.000000 1 -3.000000
392 2 659.364000 -1314.550000 343.954000 1 1.000000 1 -3.000000
393 2 664.174000 -1322.420000 340.370000 1 1.000000 1 -3.000000
394 2 667.177000 -1330.910000 336.225000 1 1.000000 1 -3.000000
395 2 668.855000 -1339.050000 330.812000 1 1.000000 1 -3.000000
396 2 667.963000 -1345.720000 323.617000 1 1.000000 1 -3.000000
397 2 665.872000 -1351.650000 315.894000 1 1.000000 1 -3.000000
398 2 664.487000 -1358.800000 309.256000 1 1.000000 1 -3.000000
399 2 661.851000 -1363.310000 300.858000 1 1.000000 16 -3.000000
400 1 626.584000 -1339.230000 280.855000 1 1.000000 16 0.000000
401 3 637.879000 -1317.530000 305.923000 1 1.000000 16 0.000000
402 2 598.867000 -1301.380000 275.702000 1 1.000000 16 -3.000000
403 2 606.138000 -1295.790000 279.520000 1 1.000000 1 -3.000000
404 2 611.499000 -1288.350000 283.060000 1 1.000000 1 -3.000000
405 2 618.155000 -1282.350000 287.191000 1 1.000000 1 -3.000000
406 2 622.884000 -1275.500000 292.495000 1 1.000000 1 -3.000000
407 2 626.155000 -1267.630000 297.575000 1 1.000000 1 -3.000000
408 2 630.334000 -1258.920000 299.652000 1 1.000000 1 -3.000000
409 2 635.743000 -1250.790000 300.966000 1 1.000000 1 -3.000000
410 2 642.788000 -1243.940000 300.217000 1 1.000000 1 -3.000000
411 2 650.023000 -1237.190000 300.082000 1 1.000000 1 -3.000000
412 2 657.538000 -1230.820000 300.142000 1 1.000000 1 -3.000000
413 2 666.094000 -1225.900000 299.552000 1 1.000000 1 -3.000000
414 2 675.044000 -1221.590000 299.591000 1 1.000000 1 -3.000000
415 2 682.940000 -1215.690000 299.421000 1 1.000000 1 -3.000000
416 2 691.209000 -1210.740000 297.213000 1 1.000000 1 -3.000000
417 2 698.217000 -1205.300000 292.713000 1 1.000000 1 -3.000000
418 2 704.986000 -1200.300000 287.560000 1 1.000000 1 -3.000000
419 2 713.105000 -1196.750000 283.075000 1 1.000000 1 -3.000000
420 2 721.515000 -1193.450000 279.050000 1 1.000000 1 -3.000000
421 2 728.746000 -1191.420000 272.541000 1 1.000000 1 -3.000000
422 2 735.900000 -1190.830000 265.712000 1 1.000000 1 -3.000000
423 2 745.134000 -1190.440000 262.102000 1 1.000000 1 -3.000000
424 2 752.635000 -1191.770000 255.771000 1 1.000000 1 -3.000000
425 2 760.596000 -1194.430000 250.354000 1 1.000000 1 -3.000000
426 2 768.566000 -1197.930000 245.702000 1 1.000000 17 -3.000000
427 1 742.429000 -1223.010000 215.474000 1 1.000000 17 0.000000
428 3 721.780000 -1195.900000 223.257000 1 1.000000 17 0.000000
429 2 704.648000 -1230.140000 188.173000 1 1.000000 17 -3.000000
430 2 701.374000 -1220.830000 188.061000 1 1.000000 1 -3.000000
431 2 696.726000 -1212.010000 188.393000 1 1.000000 1 -3.000000
432 2 691.621000 -1204.000000 190.855000 1 1.000000 1 -3.000000
433 2 687.818000 -1195.550000 194.427000 1 1.000000 1 -3.000000
434 2 685.027000 -1186.880000 198.247000 1 1.000000 1 -3.000000
435 2 686.301000 -1177.760000 201.860000 1 1.000000 1 -3.000000
436 2 688.997000 -1168.410000 203.600000 1 1.000000 1 -3.000000
437 2 690.288000 -1158.800000 205.560000 1 1.000000 1 -3.000000
438 2 691.504000 -1149.330000 207.940000 1 1.000000 1 -3.000000
439 2 694.375000 -1140.030000 209.509000 1 1.000000 1 -3.000000
440 2 695.349000 -1130.640000 212.422000 1 1.000000 1 -3.000000
441 2 695.694000 -1120.820000 213.652000 1 1.000000 1 -3.000000
442 2 697.222000 -1111.130000 214.663000 1 1.000000 1 -3.000000
443 2 700.172000 -1101.760000 216.383000 1 1.000000 1 -3.000000
444 2 701.988000 -1092.090000 217.541000 1 1.000000 1 -3.000000
445 2 705.211000 -1083.260000 220.476000 1 1.000000 1 -3.000000
446 2 708.125000 -1073.930000 221.660000 1 1.000000 1 -3.000000
447 2 713.914000 -1066.090000 222.071000 1 1.000000 1 -3.000000
448 2 719.843000 -1058.090000 222.561000 1 1.000000 1 -3.000000
449 2 726.017000 -1050.490000 224.104000 1 1.000000 1 -3.000000
450 2 731.073000 -1042.780000 227.909000 1 1.000000 1 -3.000000
451 2 735.694000 -1035.100000 232.169000 1 1.000000 1 -3.000000
452 2 740.601000 -1027.390000 236.000000 1 1.000000 1 -3.000000
453 2 746.110000 -1020.360000 240.166000 1 1.000000 18 -3.000000
454 1 761.790000 -1004.870000 198.411000 1 1.000000 18 0.000000
455 3 732.070000 -1021.480000 190.166000 1 1.000000 18 0.000000
456 2 757.252000 -996.559000 152.148000 1 1.000000 18 -3.000000
457 2 748.276000 -999.892000 149.794000 1 1.000000 1 -3.000000
458 2 738.551000 -1001.360000 150.821000 1 1.000000 1 -3.000000
459 2 728.662000 -1001.200000 151.248000 1 1.000000 1 -3.000000
460 2 718.905000 -1002.000000 152.327000 1 1.000000 1 -3.000000
461 2 709.776000 -1004.330000 155.541000 1 1.000000 1 -3.000000
462 2 702.119000 -1007.720000 160.631000 1 1.000000 1 -3.000000
463 2 695.137000 -1013.380000 164.700000 1 1.000000 1 -3.000000
464 2 689.322000 -1018.990000 170.339000 1 1.000000 1 -3.000000
465 2 685.175000 -1022.700000 178.555000 1 1.000000 1 -3.000000