LAMMPS data file

4067 atoms
4067 ellipsoids
4516 bonds
8882 angles
0 dihedrals

3 atom types
5 bond types
12 angle types
0 dihedral types

-4631.092947 4670.465898 xlo xhi
-4631.092947 4670.465898 ylo yhi
-4631.092947 4670.465898 zlo zhi

Masses

1 196016.000000
2 1950.000000
3 19500.000000

Atoms

1 2 549.216000 -558.053000 -370.692000 1 1.000000 1 -3.000000
2 2 542.655000 -555.675000 -377.646000 1 1.000000 1 -3.000000
3 2 535.856000 -553.632000 -384.498000 1 1.000000 1 -3.000000
4 2 530.462000 -551.365000 -392.544000 1 1.000000 1 -3.000000
5 2 527.633000 -546.979000 -400.923000 1 1.000000 1 -3.000000
6 2 526.744000 -542.278000 -409.645000 1 1.000000 1 -3.000000
7 2 527.252000 -539.114000 -418.954000 1 1.000000 1 -3.000000
8 2 527.755000 -534.446000 -427.631000 1 1.000000 1 -3.000000
9 2 526.150000 -528.309000 -435.209000 1 1.000000 1 -3.000000
10 2 526.015000 -524.772000 -444.451000 1 1.000000 1 -3.000000
11 2 525.095000 -519.903000 -453.035000 1 1.000000 1 -3.000000
12 2 525.579000 -515.845000 -462.127000 1 1.000000 1 -3.000000
13 2 525.637000 -511.561000 -470.999000 1 1.000000 1 -3.000000
14 2 526.574000 -508.555000 -480.441000 1 1.000000 1 -3.000000
15 2 526.064000 -503.457000 -488.878000 1 1.000000 1 -3.000000
16 2 522.232000 -500.907000 -497.586000 1 1.000000 1 -3.000000
17 2 517.974000 -497.613000 -505.803000 1 1.000000 1 -3.000000
18 2 514.519000 -493.596000 -514.259000 1 1.000000 1 -3.000000
19 2 511.043000 -492.159000 -523.354000 1 1.000000 1 -3.000000
20 2 508.669000 -490.062000 -532.675000 1 1.000000 1 -3.000000
21 2 508.045000 -487.072000 -542.096000 1 1.000000 2 -3.000000
22 1 512.526000 -531.234000 -558.170000 1 1.000000 2 0.000000
23 3 506.766000 -535.739000 -523.895000 1 1.000000 2 0.000000
24 2 513.048000 -578.096000 -553.176000 1 1.000000 2 -3.000000
25 2 511.695000 -580.254000 -543.601000 1 1.000000 1 -3.000000
26 2 509.456000 -580.802000 -533.993000 1 1.000000 1 -3.000000
27 2 506.849000 -579.916000 -524.483000 1 1.000000 1 -3.000000
28 2 504.907000 -580.181000 -514.839000 1 1.000000 1 -3.000000
29 2 500.335000 -577.692000 -506.404000 1 1.000000 1 -3.000000
30 2 495.900000 -572.113000 -499.402000 1 1.000000 1 -3.000000
31 2 492.351000 -566.176000 -492.308000 1 1.000000 1 -3.000000
32 2 488.307000 -559.601000 -486.085000 1 1.000000 1 -3.000000
33 2 484.923000 -553.394000 -479.283000 1 1.000000 1 -3.000000
34 2 481.691000 -546.933000 -472.604000 1 1.000000 1 -3.000000
35 2 479.756000 -539.556000 -466.269000 1 1.000000 1 -3.000000
36 2 478.182000 -531.676000 -460.460000 1 1.000000 1 -3.000000
37 2 476.748000 -525.361000 -452.985000 1 1.000000 1 -3.000000
38 2 474.602000 -518.849000 -445.803000 1 1.000000 1 -3.000000
39 2 475.980000 -511.800000 -438.998000 1 1.000000 1 -3.000000
40 2 478.813000 -506.921000 -430.708000 1 1.000000 1 -3.000000
41 2 480.011000 -501.734000 -422.331000 1 1.000000 1 -3.000000
42 2 482.443000 -496.456000 -414.270000 1 1.000000 1 -3.000000
43 2 485.742000 -492.918000 -405.526000 1 1.000000 1 -3.000000
44 2 489.205000 -491.659000 -396.266000 1 1.000000 1 -3.000000
45 2 492.120000 -490.115000 -386.908000 1 1.000000 1 -3.000000
46 2 494.485000 -487.141000 -377.729000 1 1.000000 1 -3.000000
47 2 498.025000 -484.287000 -368.957000 1 1.000000 1 -3.000000
48 2 500.197000 -479.811000 -360.433000 1 1.000000 3 -3.000000
49 1 533.396000 -451.460000 -378.234000 1 1.000000 3 0.000000
50 3 511.096000 -455.355000 -404.934000 1 1.000000 3 0.000000
51 2 552.881000 -425.585000 -412.595000 1 1.000000 3 -3.000000
52 2 544.653000 -424.430000 -417.962000 1 1.000000 1 -3.000000
53 2 536.336000 -423.002000 -423.091000 1 1.000000 1 -3.000000
54 2 529.343000 -423.484000 -430.088000 1 1.000000 1 -3.000000
55 2 521.850000 -424.780000 -436.377000 1 1.000000 1 -3.000000
56 2 512.859000 -426.427000 -440.257000 1 1.000000 1 -3.000000
57 2 504.892000 -431.704000 -442.987000 1 1.000000 1 -3.000000
58 2 495.782000 -435.010000 -445.272000 1 1.000000 1 -3.000000
59 2 486.620000 -438.572000 -446.352000 1 1.000000 1 -3.000000
60 2 477.610000 -442.769000 -445.637000 1 1.000000 1 -3.000000
61 2 468.648000 -446.611000 -443.923000 1 1.000000 1 -3.000000
62 2 459.887000 -451.225000 -443.973000 1 1.000000 1 -3.000000
63 2 453.191000 -458.234000 -442.069000 1 1.000000 1 -3.000000
64 2 446.636000 -465.151000 -439.101000 1 1.000000 1 -3.000000
65 2 439.860000 -470.327000 -434.150000 1 1.000000 1 -3.000000
66 2 434.841000 -477.246000 -429.158000 1 1.000000 1 -3.000000
67 2 428.097000 -481.973000 -423.713000 1 1.000000 1 -3.000000
68 2 420.890000 -486.787000 -419.050000 1 1.000000 1 -3.000000
69 2 413.654000 -491.193000 -414.018000 1 1.000000 1 -3.000000
70 2 406.967000 -495.587000 -408.227000 1 1.000000 1 -3.000000
71 2 399.923000 -497.555000 -401.576000 1 1.000000 1 -3.000000
72 2 393.775000 -497.852000 -393.813000 1 1.000000 1 -3.000000
73 2 387.102000 -496.064000 -386.778000 1 1.000000 1 -3.000000
74 2 381.299000 -494.239000 -378.978000 1 1.000000 1 -3.000000
75 2 374.431000 -490.705000 -372.769000 1 1.000000 4 -3.000000
76 1 399.267000 -455.207000 -354.036000 1 1.000000 4 0.000000
77 3 409.859000 -455.792000 -387.362000 1 1.000000 4 0.000000
78 2 429.270000 -418.870000 -356.397000 1 1.000000 4 -3.000000
79 2 427.715000 -417.360000 -365.949000 1 1.000000 1 -3.000000
80 2 424.362000 -415.677000 -375.148000 1 1.000000 1 -3.000000
81 2 421.666000 -413.083000 -384.391000 1 1.000000 1 -3.000000
82 2 420.654000 -412.373000 -394.116000 1 1.000000 1 -3.000000
83 2 419.596000 -414.011000 -403.781000 1 1.000000 1 -3.000000
84 2 418.630000 -414.050000 -413.665000 1 1.000000 1 -3.000000
85 2 417.318000 -412.622000 -423.409000 1 1.000000 1 -3.000000
86 2 416.285000 -410.977000 -433.099000 1 1.000000 1 -3.000000
87 2 417.034000 -409.495000 -442.807000 1 1.000000 1 -3.000000
88 2 418.397000 -406.457000 -452.145000 1 1.000000 1 -3.000000
89 2 419.371000 -402.689000 -461.313000 1 1.000000 1 -3.000000
90 2 419.601000 -398.607000 -470.313000 1 1.000000 1 -3.000000
91 2 423.371000 -396.747000 -479.272000 1 1.000000 1 -3.000000
92 2 425.826000 -396.358000 -488.815000 1 1.000000 1 -3.000000
93 2 427.913000 -393.479000 -498.053000 1 1.000000 1 -3.000000
94 2 432.434000 -389.982000 -506.069000 1 1.000000 1 -3.000000
95 2 434.430000 -385.619000 -514.796000 1 1.000000 1 -3.000000
96 2 437.171000 -379.569000 -522.170000 1 1.000000 1 -3.000000
97 2 438.780000 -374.288000 -530.327000 1 1.000000 1 -3.000000
98 2 441.429000 -369.539000 -538.680000 1 1.000000 1 -3.000000
99 2 443.818000 -364.227000 -546.754000 1 1.000000 1 -3.000000
100 2 443.907000 -359.446000 -555.488000 1 1.000000 1 -3.000000
101 2 442.608000 -354.416000 -563.840000 1 1.000000 1 -3.000000
102 2 441.532000 -348.035000 -571.366000 1 1.000000 5 -3.000000
103 1 458.698000 -380.933000 -600.462000 1 1.000000 5 0.000000
104 3 450.670000 -399.151000 -571.618000 1 1.000000 5 0.000000
105 2 470.712000 -425.114000 -611.859000 1 1.000000 5 -3.000000
106 2 466.235000 -429.956000 -604.407000 1 1.000000 1 -3.000000
107 2 460.125000 -435.962000 -599.299000 1 1.000000 1 -3.000000
108 2 453.461000 -439.091000 -592.699000 1 1.000000 1 -3.000000
109 2 445.742000 -440.308000 -586.678000 1 1.000000 1 -3.000000
110 2 439.741000 -440.613000 -578.809000 1 1.000000 1 -3.000000
111 2 434.860000 -442.221000 -570.299000 1 1.000000 1 -3.000000
112 2 429.358000 -442.208000 -562.089000 1 1.000000 1 -3.000000
113 2 423.636000 -442.153000 -553.992000 1 1.000000 1 -3.000000
114 2 416.819000 -442.718000 -546.783000 1 1.000000 1 -3.000000
115 2 409.907000 -443.768000 -539.833000 1 1.000000 1 -3.000000
116 2 401.264000 -443.187000 -535.095000 1 1.000000 1 -3.000000
117 2 393.057000 -445.411000 -530.036000 1 1.000000 1 -3.000000
118 2 385.991000 -448.109000 -523.713000 1 1.000000 1 -3.000000
119 2 379.120000 -450.859000 -516.999000 1 1.000000 1 -3.000000
120 2 370.987000 -453.557000 -512.284000 1 1.000000 1 -3.000000
121 2 362.831000 -456.743000 -507.698000 1 1.000000 1 -3.000000
122 2 354.736000 -461.682000 -504.684000 1 1.000000 1 -3.000000
123 2 346.021000 -464.889000 -501.162000 1 1.000000 1 -3.000000
124 2 336.776000 -467.088000 -498.535000 1 1.000000 1 -3.000000
125 2 327.638000 -469.473000 -495.711000 1 1.000000 1 -3.000000
126 2 318.787000 -472.594000 -492.485000 1 1.000000 1 -3.000000
127 2 309.787000 -476.138000 -490.154000 1 1.000000 1 -3.000000
128 2 302.477000 -481.836000 -486.806000 1 1.000000 1 -3.000000
129 2 293.715000 -485.865000 -484.672000 1 1.000000 6 -3.000000
130 1 283.125000 -456.008000 -449.715000 1 1.000000 6 0.000000
131 3 311.187000 -441.251000 -464.637000 1 1.000000 6 0.000000
132 2 290.309000 -417.447000 -423.485000 1 1.000000 6 -3.000000
133 2 296.412000 -413.168000 -429.879000 1 1.000000 1 -3.000000
134 2 301.740000 -409.554000 -437.357000 1 1.000000 1 -3.000000
135 2 306.425000 -404.573000 -444.494000 1 1.000000 1 -3.000000
136 2 311.590000 -400.169000 -451.769000 1 1.000000 1 -3.000000
137 2 317.102000 -396.778000 -459.336000 1 1.000000 1 -3.000000
138 2 322.217000 -392.983000 -467.068000 1 1.000000 1 -3.000000
139 2 326.625000 -387.784000 -474.353000 1 1.000000 1 -3.000000
140 2 331.589000 -382.324000 -480.899000 1 1.000000 1 -3.000000
141 2 334.780000 -377.188000 -488.847000 1 1.000000 1 -3.000000
142 2 340.043000 -373.076000 -496.093000 1 1.000000 1 -3.000000
143 2 345.783000 -369.983000 -503.543000 1 1.000000 1 -3.000000
144 2 351.819000 -367.027000 -510.771000 1 1.000000 1 -3.000000
145 2 356.180000 -363.374000 -518.893000 1 1.000000 1 -3.000000
146 2 360.545000 -357.663000 -525.722000 1 1.000000 1 -3.000000
147 2 365.646000 -351.075000 -531.076000 1 1.000000 1 -3.000000
148 2 370.787000 -344.436000 -536.360000 1 1.000000 1 -3.000000
149 2 374.277000 -336.307000 -540.791000 1 1.000000 1 -3.000000
150 2 377.753000 -327.761000 -544.397000 1 1.000000 1 -3.000000
151 2 382.053000 -319.821000 -548.384000 1 1.000000 1 -3.000000
152 2 386.786000 -311.640000 -551.135000 1 1.000000 1 -3.000000
153 2 390.658000 -302.836000 -553.519000 1 1.000000 1 -3.000000
154 2 393.215000 -293.490000 -556.080000 1 1.000000 1 -3.000000
155 2 396.792000 -284.846000 -559.274000 1 1.000000 1 -3.000000
156 2 400.523000 -276.556000 -563.141000 1 1.000000 7 -3.000000
157 1 358.072000 -256.319000 -559.208000 1 1.000000 7 0.000000
158 3 356.107000 -283.458000 -537.234000 1 1.000000 7 0.000000
159 2 314.710000 -252.466000 -540.937000 1 1.000000 7 -3.000000
160 2 317.091000 -256.735000 -532.429000 1 1.000000 1 -3.000000
161 2 317.712000 -262.682000 -524.630000 1 1.000000 1 -3.000000
162 2 318.468000 -268.447000 -516.585000 1 1.000000 1 -3.000000
163 2 322.093000 -274.507000 -509.714000 1 1.000000 1 -3.000000
164 2 326.251000 -280.205000 -502.831000 1 1.000000 1 -3.000000
165 2 332.630000 -282.772000 -495.679000 1 1.000000 1 -3.000000
166 2 338.655000 -286.110000 -488.514000 1 1.000000 1 -3.000000
167 2 345.088000 -290.325000 -482.343000 1 1.000000 1 -3.000000
168 2 350.105000 -295.474000 -475.500000 1 1.000000 1 -3.000000
169 2 353.909000 -298.308000 -466.783000 1 1.000000 1 -3.000000
170 2 356.127000 -301.934000 -457.904000 1 1.000000 1 -3.000000
171 2 359.206000 -307.485000 -450.346000 1 1.000000 1 -3.000000
172 2 361.037000 -310.306000 -441.038000 1 1.000000 1 -3.000000
173 2 363.406000 -310.671000 -431.414000 1 1.000000 1 -3.000000
174 2 365.964000 -311.965000 -421.915000 1 1.000000 1 -3.000000
175 2 366.322000 -314.143000 -412.314000 1 1.000000 1 -3.000000
176 2 366.483000 -316.094000 -402.631000 1 1.000000 1 -3.000000
177 2 367.224000 -318.436000 -393.026000 1 1.000000 1 -3.000000
178 2 366.978000 -319.294000 -383.124000 1 1.000000 1 -3.000000
179 2 364.967000 -317.984000 -373.583000 1 1.000000 1 -3.000000
180 2 361.675000 -314.485000 -364.917000 1 1.000000 1 -3.000000
181 2 357.875000 -310.557000 -356.600000 1 1.000000 1 -3.000000
182 2 354.299000 -308.163000 -347.682000 1 1.000000 1 -3.000000
183 2 351.646000 -302.311000 -340.087000 1 1.000000 8 -3.000000
184 1 365.812000 -259.033000 -352.538000 1 1.000000 8 0.000000
185 3 359.431000 -274.424000 -383.234000 1 1.000000 8 0.000000
186 2 373.422000 -224.471000 -383.632000 1 1.000000 8 -3.000000
187 2 367.741000 -227.429000 -391.230000 1 1.000000 1 -3.000000
188 2 360.260000 -229.028000 -397.470000 1 1.000000 1 -3.000000
189 2 353.725000 -232.930000 -403.830000 1 1.000000 1 -3.000000
190 2 348.726000 -237.889000 -410.671000 1 1.000000 1 -3.000000
191 2 346.008000 -245.019000 -417.050000 1 1.000000 1 -3.000000
192 2 341.860000 -253.645000 -419.841000 1 1.000000 1 -3.000000
193 2 336.698000 -261.482000 -422.718000 1 1.000000 1 -3.000000
194 2 331.564000 -269.674000 -424.963000 1 1.000000 1 -3.000000
195 2 325.102000 -276.492000 -427.926000 1 1.000000 1 -3.000000
196 2 318.654000 -283.320000 -430.618000 1 1.000000 1 -3.000000
197 2 311.766000 -290.325000 -432.316000 1 1.000000 1 -3.000000
198 2 303.356000 -295.373000 -432.895000 1 1.000000 1 -3.000000
199 2 293.797000 -297.880000 -433.667000 1 1.000000 1 -3.000000
200 2 284.522000 -299.562000 -436.678000 1 1.000000 1 -3.000000
201 2 275.423000 -302.242000 -439.690000 1 1.000000 1 -3.000000
202 2 266.284000 -304.920000 -442.295000 1 1.000000 1 -3.000000
203 2 258.131000 -307.439000 -447.311000 1 1.000000 1 -3.000000
204 2 251.422000 -311.791000 -453.046000 1 1.000000 1 -3.000000
205 2 245.268000 -316.903000 -458.811000 1 1.000000 1 -3.000000
206 2 241.024000 -324.255000 -463.901000 1 1.000000 1 -3.000000
207 2 238.721000 -332.545000 -468.853000 1 1.000000 1 -3.000000
208 2 236.833000 -340.976000 -473.681000 1 1.000000 1 -3.000000
209 2 236.241000 -350.307000 -476.717000 1 1.000000 1 -3.000000
210 2 235.959000 -358.188000 -482.574000 1 1.000000 9 -3.000000
211 1 280.819000 -372.568000 -479.642000 1 1.000000 9 0.000000
212 3 278.421000 -348.335000 -454.434000 1 1.000000 9 0.000000
213 2 323.722000 -373.247000 -460.032000 1 1.000000 9 -3.000000
214 2 320.229000 -370.939000 -451.089000 1 1.000000 1 -3.000000
215 2 316.665000 -369.133000 -442.097000 1 1.000000 1 -3.000000
216 2 311.744000 -367.513000 -433.596000 1 1.000000 1 -3.000000
217 2 308.003000 -363.254000 -425.437000 1 1.000000 1 -3.000000
218 2 303.012000 -357.544000 -419.106000 1 1.000000 1 -3.000000
219 2 296.988000 -351.723000 -413.873000 1 1.000000 1 -3.000000
220 2 290.055000 -345.883000 -409.822000 1 1.000000 1 -3.000000
221 2 283.584000 -340.303000 -404.966000 1 1.000000 1 -3.000000
222 2 276.839000 -334.594000 -400.369000 1 1.000000 1 -3.000000
223 2 270.719000 -327.942000 -396.354000 1 1.000000 1 -3.000000
224 2 263.849000 -321.614000 -392.970000 1 1.000000 1 -3.000000
225 2 257.966000 -314.661000 -389.086000 1 1.000000 1 -3.000000
226 2 252.203000 -308.201000 -384.342000 1 1.000000 1 -3.000000
227 2 245.832000 -303.862000 -378.085000 1 1.000000 1 -3.000000
228 2 240.656000 -300.237000 -370.452000 1 1.000000 1 -3.000000
229 2 235.285000 -296.979000 -362.787000 1 1.000000 1 -3.000000
230 2 231.235000 -290.929000 -355.996000 1 1.000000 1 -3.000000
231 2 226.113000 -284.871000 -350.109000 1 1.000000 1 -3.000000
232 2 223.056000 -278.661000 -342.905000 1 1.000000 1 -3.000000
233 2 220.770000 -272.413000 -335.526000 1 1.000000 1 -3.000000
234 2 220.336000 -266.019000 -327.948000 1 1.000000 1 -3.000000
235 2 222.242000 -258.816000 -321.446000 1 1.000000 1 -3.000000
236 2 225.411000 -251.070000 -315.966000 1 1.000000 1 -3.000000
237 2 228.086000 -243.363000 -310.457000 1 1.000000 10 -3.000000
238 1 262.619000 -267.307000 -289.037000 1 1.000000 10 0.000000
239 3 261.040000 -282.289000 -320.670000 1 1.000000 10 0.000000
240 2 296.249000 -300.278000 -287.073000 1 1.000000 10 -3.000000
241 2 297.889000 -301.395000 -296.736000 1 1.000000 1 -3.000000
242 2 298.419000 -304.486000 -306.179000 1 1.000000 1 -3.000000
243 2 297.743000 -306.931000 -315.805000 1 1.000000 1 -3.000000
244 2 296.908000 -309.221000 -325.447000 1 1.000000 1 -3.000000
245 2 293.317000 -310.603000 -334.513000 1 1.000000 1 -3.000000
246 2 288.582000 -310.948000 -343.198000 1 1.000000 1 -3.000000
247 2 285.378000 -309.195000 -352.306000 1 1.000000 1 -3.000000
248 2 283.123000 -305.496000 -361.187000 1 1.000000 1 -3.000000
249 2 280.267000 -300.271000 -369.084000 1 1.000000 1 -3.000000
250 2 278.551000 -294.471000 -376.968000 1 1.000000 1 -3.000000
251 2 278.004000 -289.333000 -385.402000 1 1.000000 1 -3.000000
252 2 276.561000 -282.822000 -392.725000 1 1.000000 1 -3.000000
253 2 275.270000 -275.662000 -399.286000 1 1.000000 1 -3.000000
254 2 272.420000 -269.039000 -406.059000 1 1.000000 1 -3.000000
255 2 269.912000 -263.206000 -413.663000 1 1.000000 1 -3.000000
256 2 267.607000 -258.714000 -422.192000 1 1.000000 1 -3.000000
257 2 267.941000 -253.908000 -430.905000 1 1.000000 1 -3.000000
258 2 269.218000 -249.736000 -439.736000 1 1.000000 1 -3.000000
259 2 272.133000 -247.484000 -448.884000 1 1.000000 1 -3.000000
260 2 274.176000 -247.270000 -458.613000 1 1.000000 1 -3.000000
261 2 273.400000 -246.540000 -468.408000 1 1.000000 1 -3.000000
262 2 270.751000 -246.302000 -478.041000 1 1.000000 1 -3.000000
263 2 267.723000 -245.205000 -487.348000 1 1.000000 1 -3.000000
264 2 263.741000 -245.379000 -496.429000 1 1.000000 11 -3.000000
265 1 217.469000 -246.490000 -487.637000 1 1.000000 11 0.000000
266 3 231.160000 -236.596000 -456.992000 1 1.000000 11 0.000000
267 2 179.637000 -242.418000 -459.668000 1 1.000000 11 -3.000000
268 2 185.243000 -237.129000 -453.456000 1 1.000000 1 -3.000000
269 2 188.172000 -230.228000 -446.951000 1 1.000000 1 -3.000000
270 2 193.273000 -223.458000 -441.960000 1 1.000000 1 -3.000000
271 2 198.251000 -216.204000 -437.340000 1 1.000000 1 -3.000000
272 2 206.033000 -210.443000 -435.035000 1 1.000000 1 -3.000000
273 2 214.564000 -206.147000 -432.519000 1 1.000000 1 -3.000000
274 2 222.756000 -201.669000 -429.385000 1 1.000000 1 -3.000000
275 2 230.906000 -197.896000 -425.388000 1 1.000000 1 -3.000000
276 2 238.721000 -195.593000 -419.759000 1 1.000000 1 -3.000000
277 2 246.558000 -192.875000 -414.288000 1 1.000000 1 -3.000000
278 2 254.845000 -190.607000 -409.229000 1 1.000000 1 -3.000000
279 2 263.628000 -188.224000 -405.492000 1 1.000000 1 -3.000000
280 2 270.978000 -184.392000 -399.995000 1 1.000000 1 -3.000000
281 2 278.853000 -181.862000 -394.589000 1 1.000000 1 -3.000000
282 2 284.780000 -180.587000 -386.768000 1 1.000000 1 -3.000000
283 2 291.782000 -180.423000 -379.734000 1 1.000000 1 -3.000000
284 2 298.969000 -180.295000 -372.795000 1 1.000000 1 -3.000000
285 2 305.064000 -179.080000 -365.107000 1 1.000000 1 -3.000000
286 2 312.394000 -177.279000 -358.621000 1 1.000000 1 -3.000000
287 2 319.678000 -172.689000 -353.650000 1 1.000000 1 -3.000000
288 2 328.108000 -167.648000 -352.005000 1 1.000000 1 -3.000000
289 2 336.230000 -162.247000 -350.831000 1 1.000000 1 -3.000000
290 2 343.719000 -155.786000 -350.686000 1 1.000000 1 -3.000000
291 2 352.171000 -150.651000 -350.321000 1 1.000000 12 -3.000000
292 1 364.116000 -151.854000 -396.004000 1 1.000000 12 0.000000
293 3 329.558000 -157.080000 -396.551000 1 1.000000 12 0.000000
294 2 354.256000 -154.414000 -442.077000 1 1.000000 12 -3.000000
295 2 344.526000 -154.740000 -440.500000 1 1.000000 1 -3.000000
296 2 334.726000 -154.508000 -439.615000 1 1.000000 1 -3.000000
297 2 324.927000 -152.790000 -438.808000 1 1.000000 1 -3.000000
298 2 315.961000 -149.032000 -437.015000 1 1.000000 1 -3.000000
299 2 307.455000 -145.364000 -433.256000 1 1.000000 1 -3.000000
300 2 299.009000 -141.624000 -429.856000 1 1.000000 1 -3.000000
301 2 290.468000 -138.113000 -426.106000 1 1.000000 1 -3.000000
302 2 282.476000 -134.602000 -421.460000 1 1.000000 1 -3.000000
303 2 275.171000 -128.851000 -418.002000 1 1.000000 1 -3.000000
304 2 269.467000 -122.390000 -413.154000 1 1.000000 1 -3.000000
305 2 264.217000 -117.262000 -406.416000 1 1.000000 1 -3.000000
306 2 258.119000 -111.998000 -400.578000 1 1.000000 1 -3.000000
307 2 252.314000 -104.995000 -396.616000 1 1.000000 1 -3.000000
308 2 245.305000 -99.359000 -392.541000 1 1.000000 1 -3.000000
309 2 237.685000 -95.313100 -387.726000 1 1.000000 1 -3.000000
310 2 230.498000 -91.811000 -381.868000 1 1.000000 1 -3.000000
311 2 225.528000 -88.811900 -374.010000 1 1.000000 1 -3.000000
312 2 221.455000 -85.018900 -365.837000 1 1.000000 1 -3.000000
313 2 216.546000 -80.954800 -358.296000 1 1.000000 1 -3.000000
314 2 210.922000 -76.256900 -351.586000 1 1.000000 1 -3.000000
315 2 204.525000 -71.688200 -345.650000 1 1.000000 1 -3.000000
316 2 200.382000 -68.222700 -337.384000 1 1.000000 1 -3.000000
317 2 194.829000 -66.136500 -329.415000 1 1.000000 1 -3.000000
318 2 189.102000 -62.488200 -322.120000 1 1.000000 13 -3.000000
319 1 224.818000 -42.665100 -298.526000 1 1.000000 13 0.000000
320 3 240.069000 -54.155900 -327.961000 1 1.000000 13 0.000000
321 2 270.383000 -31.959400 -292.155000 1 1.000000 13 -3.000000
322 2 274.445000 -33.103600 -301.060000 1 1.000000 1 -3.000000
323 2 277.169000 -34.141700 -310.467000 1 1.000000 1 -3.000000
324 2 280.332000 -34.471700 -319.861000 1 1.000000 1 -3.000000
325 2 280.851000 -35.764600 -329.691000 1 1.000000 1 -3.000000
326 2 279.206000 -38.688100 -339.015000 1 1.000000 1 -3.000000
327 2 276.893000 -42.396900 -347.858000 1 1.000000 1 -3.000000
328 2 274.036000 -47.372500 -355.955000 1 1.000000 1 -3.000000
329 2 271.475000 -52.159700 -364.333000 1 1.000000 1 -3.000000
330 2 267.641000 -55.759100 -372.712000 1 1.000000 1 -3.000000
331 2 262.528000 -59.522400 -380.428000 1 1.000000 1 -3.000000
332 2 257.820000 -61.689500 -388.741000 1 1.000000 1 -3.000000
333 2 253.396000 -62.635000 -397.486000 1 1.000000 1 -3.000000
334 2 249.201000 -63.068800 -406.498000 1 1.000000 1 -3.000000
335 2 246.211000 -64.431900 -415.881000 1 1.000000 1 -3.000000
336 2 245.127000 -65.465900 -425.667000 1 1.000000 1 -3.000000
337 2 247.386000 -65.885200 -435.220000 1 1.000000 1 -3.000000
338 2 250.070000 -67.226400 -444.626000 1 1.000000 1 -3.000000
339 2 251.403000 -68.552800 -454.343000 1 1.000000 1 -3.000000
340 2 254.034000 -69.447100 -463.765000 1 1.000000 1 -3.000000
341 2 255.931000 -72.530100 -473.015000 1 1.000000 1 -3.000000
342 2 259.271000 -76.022000 -481.696000 1 1.000000 1 -3.000000
343 2 264.581000 -79.514400 -489.301000 1 1.000000 1 -3.000000
344 2 270.404000 -84.826800 -495.399000 1 1.000000 1 -3.000000
345 2 275.506000 -89.392300 -502.575000 1 1.000000 14 -3.000000
346 1 306.511000 -111.563000 -474.726000 1 1.000000 14 0.000000
347 3 280.532000 -103.126000 -452.781000 1 1.000000 14 0.000000
348 2 322.474000 -126.146000 -432.722000 1 1.000000 14 -3.000000
349 2 315.707000 -121.728000 -427.008000 1 1.000000 1 -3.000000
350 2 309.099000 -117.738000 -420.839000 1 1.000000 1 -3.000000
351 2 304.864000 -113.696000 -412.949000 1 1.000000 1 -3.000000
352 2 300.627000 -109.281000 -405.151000 1 1.000000 1 -3.000000
353 2 298.275000 -104.553000 -396.736000 1 1.000000 1 -3.000000
354 2 295.945000 -102.348000 -387.292000 1 1.000000 1 -3.000000
355 2 292.306000 -99.757600 -378.456000 1 1.000000 1 -3.000000
356 2 291.171000 -97.517400 -368.865000 1 1.000000 1 -3.000000
357 2 290.295000 -94.869700 -359.332000 1 1.000000 1 -3.000000
358 2 290.005000 -93.153900 -349.524000 1 1.000000 1 -3.000000
359 2 290.421000 -91.558400 -339.747000 1 1.000000 1 -3.000000
360 2 291.795000 -88.094200 -330.552000 1 1.000000 1 -3.000000
361 2 294.386000 -85.407300 -321.435000 1 1.000000 1 -3.000000
362 2 297.771000 -85.180600 -312.129000 1 1.000000 1 -3.000000
363 2 301.403000 -85.766000 -302.981000 1 1.000000 1 -3.000000
364 2 306.246000 -84.641700 -294.395000 1 1.000000 1 -3.000000
365 2 310.780000 -81.418600 -286.196000 1 1.000000 1 -3.000000
366 2 315.580000 -76.649500 -279.078000 1 1.000000 1 -3.000000
367 2 320.426000 -73.404100 -271.012000 1 1.000000 1 -3.000000
368 2 325.476000 -69.375600 -263.508000 1 1.000000 1 -3.000000
369 2 328.351000 -65.030200 -255.056000 1 1.000000 1 -3.000000
370 2 330.472000 -61.338900 -246.143000 1 1.000000 1 -3.000000
371 2 331.940000 -57.394100 -237.197000 1 1.000000 1 -3.000000
372 2 333.398000 -52.467600 -228.774000 1 1.000000 15 -3.000000
373 1 288.603000 -56.910700 -214.654000 1 1.000000 15 0.000000
374 3 291.872000 -81.936400 -238.795000 1 1.000000 15 0.000000
375 2 245.874000 -76.908100 -215.333000 1 1.000000 15 -3.000000
376 2 248.680000 -86.168700 -217.372000 1 1.000000 1 -3.000000
377 2 252.623000 -94.793800 -220.033000 1 1.000000 1 -3.000000
378 2 256.849000 -103.705000 -221.750000 1 1.000000 1 -3.000000
379 2 261.965000 -112.076000 -223.304000 1 1.000000 1 -3.000000
380 2 267.793000 -119.723000 -225.688000 1 1.000000 1 -3.000000
381 2 272.997000 -128.110000 -226.639000 1 1.000000 1 -3.000000
382 2 279.204000 -135.784000 -227.765000 1 1.000000 1 -3.000000
383 2 285.209000 -143.559000 -228.914000 1 1.000000 1 -3.000000
384 2 289.698000 -151.836000 -232.077000 1 1.000000 1 -3.000000
385 2 296.155000 -159.252000 -232.467000 1 1.000000 1 -3.000000
386 2 302.299000 -167.025000 -232.661000 1 1.000000 1 -3.000000
387 2 308.135000 -174.649000 -230.179000 1 1.000000 1 -3.000000
388 2 315.983000 -180.342000 -228.222000 1 1.000000 1 -3.000000
389 2 324.941000 -184.416000 -228.801000 1 1.000000 1 -3.000000
390 2 333.375000 -189.489000 -229.094000 1 1.000000 1 -3.000000
391 2 341.486000 -194.702000 -231.065000 1 1.000000 1 -3.000000
392 2 350.494000 -197.944000 -233.438000 1 1.000000 1 -3.000000
393 2 358.951000 -198.662000 -238.322000 1 1.000000 1 -3.000000
394 2 367.556000 -199.335000 -243.315000 1 1.000000 1 -3.000000
395 2 375.132000 -201.472000 -249.328000 1 1.000000 1 -3.000000
396 2 382.173000 -201.086000 -256.275000 1 1.000000 1 -3.000000
397 2 389.463000 -200.272000 -262.809000 1 1.000000 1 -3.000000
398 2 397.770000 -198.826000 -268.018000 1 1.000000 1 -3.000000
399 2 405.664000 -196.884000 -273.644000 1 1.000000 16 -3.000000
400 1 414.136000 -152.329000 -260.734000 1 1.000000 16 0.000000
401 3 396.136000 -165.169000 -233.567000 1 1.000000 16 0.000000
402 2 412.488000 -115.949000 -230.797000 1 1.000000 16 -3.000000
403 2 410.871000 -121.268000 -222.595000 1 1.000000 1 -3.000000
404 2 410.297000 -126.975000 -214.528000 1 1.000000 1 -3.000000
405 2 408.387000 -133.008000 -206.924000 1 1.000000 1 -3.000000
406 2 407.742000 -138.902000 -199.002000 1 1.000000 1 -3.000000
407 2 406.246000 -145.479000 -191.663000 1 1.000000 1 -3.000000
408 2 405.414000 -151.678000 -183.995000 1 1.000000 1 -3.000000
409 2 405.903000 -158.376000 -176.555000 1 1.000000 1 -3.000000
410 2 405.559000 -164.372000 -168.764000 1 1.000000 1 -3.000000
411 2 407.042000 -169.100000 -160.219000 1 1.000000 1 -3.000000
412 2 410.829000 -173.632000 -152.246000 1 1.000000 1 -3.000000
413 2 412.565000 -177.819000 -143.454000 1 1.000000 1 -3.000000
414 2 415.915000 -180.770000 -134.647000 1 1.000000 1 -3.000000
415 2 421.467000 -184.632000 -127.373000 1 1.000000 1 -3.000000
416 2 426.616000 -186.974000 -119.199000 1 1.000000 1 -3.000000
417 2 430.341000 -188.164000 -110.094000 1 1.000000 1 -3.000000
418 2 436.024000 -189.740000 -102.119000 1 1.000000 1 -3.000000
419 2 440.093000 -192.290000 -93.451400 1 1.000000 1 -3.000000
420 2 444.712000 -192.111000 -84.693400 1 1.000000 1 -3.000000
421 2 448.296000 -190.672000 -75.567000 1 1.000000 1 -3.000000
422 2 451.416000 -189.281000 -66.360200 1 1.000000 1 -3.000000
423 2 454.915000 -186.828000 -57.427200 1 1.000000 1 -3.000000
424 2 460.257000 -183.553000 -49.794000 1 1.000000 1 -3.000000
425 2 464.381000 -178.539000 -42.288300 1 1.000000 1 -3.000000
426 2 469.180000 -173.697000 -35.176000 1 1.000000 17 -3.000000
427 1 477.552000 -202.453000 1.320830 1 1.000000 17 0.000000
428 3 452.811000 -219.364000 -16.658900 1 1.000000 17 0.000000
429 2 469.918000 -241.125000 27.181500 1 1.000000 17 -3.000000
430 2 464.809000 -246.865000 20.968000 1 1.000000 1 -3.000000
431 2 460.158000 -252.880000 14.509900 1 1.000000 1 -3.000000
432 2 457.710000 -257.308000 6.076600 1 1.000000 1 -3.000000
433 2 451.884000 -260.556000 -1.190000 1 1.000000 1 -3.000000
434 2 446.658000 -261.789000 -9.443020 1 1.000000 1 -3.000000
435 2 440.697000 -262.354000 -17.277700 1 1.000000 1 -3.000000
436 2 433.719000 -262.348000 -24.312900 1 1.000000 1 -3.000000
437 2 427.288000 -261.237000 -31.722600 1 1.000000 1 -3.000000
438 2 420.289000 -260.700000 -38.811700 1 1.000000 1 -3.000000
439 2 414.190000 -259.915000 -46.622800 1 1.000000 1 -3.000000
440 2 409.072000 -258.751000 -54.960700 1 1.000000 1 -3.000000
441 2 404.640000 -257.486000 -63.680500 1 1.000000 1 -3.000000
442 2 400.152000 -254.301000 -71.997600 1 1.000000 1 -3.000000
443 2 396.670000 -251.567000 -80.836300 1 1.000000 1 -3.000000
444 2 392.036000 -247.815000 -88.738600 1 1.000000 1 -3.000000
445 2 387.378000 -243.771000 -96.431800 1 1.000000 1 -3.000000
446 2 384.153000 -238.755000 -104.396000 1 1.000000 1 -3.000000
447 2 381.618000 -233.599000 -112.423000 1 1.000000 1 -3.000000
448 2 378.373000 -227.506000 -119.501000 1 1.000000 1 -3.000000
449 2 375.100000 -221.203000 -126.322000 1 1.000000 1 -3.000000
450 2 370.492000 -217.320000 -134.193000 1 1.000000 1 -3.000000
451 2 366.629000 -214.888000 -142.861000 1 1.000000 1 -3.000000
452 2 364.300000 -214.866000 -152.492000 1 1.000000 1 -3.000000
453 2 363.706000 -213.645000 -162.347000 1 1.000000 18 -3.000000
454 1 351.159000 -257.482000 -174.347000 1 1.000000 18 0.000000
455 3 354.444000 -259.294000 -139.469000 1 1.000000 18 0.000000
456 2 338.945000 -302.040000 -164.647000 1 1.000000 18 -3.000000
457 2 336.762000 -300.704000 -155.043000 1 1.000000 1 -3.000000
458 2 335.957000 -302.206000 -145.262000 1 1.000000 1 -3.000000
459 2 335.441000 -301.811000 -135.334000 1 1.000000 1 -3.000000
460 2 334.124000 -299.198000 -125.759000 1 1.000000 1 -3.000000
461 2 333.414000 -293.556000 -117.595000 1 1.000000 1 -3.000000
462 2 334.469000 -287.706000 -109.694000 1 1.000000 1 -3.000000
463 2 335.963000 -280.691000 -102.908000 1 1.000000 1 -3.000000
464 2 338.251000 -273.477000 -96.637600 1 1.000000 1 -3.000000
465 2 341.766000 -267.727000 -89.304100 1 1.000000 1 -3.000000
466 2 344.667000 -261.624000 -82.068100 1 1.000000 1 -3.000000
467 2 349.803000 -256.106000 -75.597600 1 1.000000 1 -3.000000