LAMMPS data file

4067 atoms
4067 ellipsoids
4516 bonds
8882 angles
0 dihedrals

3 atom types
5 bond types
12 angle types
0 dihedral types

-4631.092947 4670.465898 xlo xhi
-4631.092947 4670.465898 ylo yhi
-4631.092947 4670.465898 zlo zhi

Masses

1 196016.000000
2 1950.000000
3 19500.000000

Atoms

1 2 320.283000 -1470.390000 -65.355300 1 1.000000 1 -3.000000
2 2 326.791000 -1474.550000 -71.422000 1 1.000000 1 -3.000000
3 2 333.544000 -1478.720000 -77.291600 1 1.000000 1 -3.000000
4 2 341.892000 -1481.050000 -81.886500 1 1.000000 1 -3.000000
5 2 349.387000 -1484.420000 -87.448800 1 1.000000 1 -3.000000
6 2 358.013000 -1487.550000 -91.104200 1 1.000000 1 -3.000000
7 2 365.841000 -1489.910000 -96.668300 1 1.000000 1 -3.000000
8 2 374.315000 -1491.910000 -101.398000 1 1.000000 1 -3.000000
9 2 381.954000 -1494.840000 -106.950000 1 1.000000 1 -3.000000
10 2 390.035000 -1495.840000 -112.515000 1 1.000000 1 -3.000000
11 2 398.283000 -1495.650000 -117.978000 1 1.000000 1 -3.000000
12 2 405.475000 -1495.850000 -124.758000 1 1.000000 1 -3.000000
13 2 410.867000 -1495.210000 -133.131000 1 1.000000 1 -3.000000
14 2 416.105000 -1496.370000 -141.451000 1 1.000000 1 -3.000000
15 2 420.069000 -1497.800000 -150.351000 1 1.000000 1 -3.000000
16 2 424.892000 -1496.390000 -158.919000 1 1.000000 1 -3.000000
17 2 428.572000 -1491.900000 -166.873000 1 1.000000 1 -3.000000
18 2 429.582000 -1488.050000 -176.036000 1 1.000000 1 -3.000000
19 2 430.947000 -1484.020000 -185.017000 1 1.000000 1 -3.000000
20 2 431.172000 -1479.680000 -193.924000 1 1.000000 1 -3.000000
21 2 431.505000 -1474.640000 -202.428000 1 1.000000 2 -3.000000
22 1 384.935000 -1469.440000 -208.209000 1 1.000000 2 0.000000
23 3 388.318000 -1474.310000 -173.691000 1 1.000000 2 0.000000
24 2 340.798000 -1464.660000 -192.110000 1 1.000000 2 -3.000000
25 2 343.539000 -1465.330000 -182.681000 1 1.000000 1 -3.000000
26 2 344.279000 -1465.630000 -172.832000 1 1.000000 1 -3.000000
27 2 345.498000 -1466.360000 -163.043000 1 1.000000 1 -3.000000
28 2 349.453000 -1464.610000 -154.127000 1 1.000000 1 -3.000000
29 2 354.822000 -1463.370000 -145.907000 1 1.000000 1 -3.000000
30 2 361.720000 -1463.630000 -138.815000 1 1.000000 1 -3.000000
31 2 369.361000 -1463.990000 -132.525000 1 1.000000 1 -3.000000
32 2 376.810000 -1465.680000 -126.251000 1 1.000000 1 -3.000000
33 2 385.002000 -1467.590000 -120.937000 1 1.000000 1 -3.000000
34 2 393.929000 -1469.410000 -117.076000 1 1.000000 1 -3.000000
35 2 403.468000 -1470.700000 -114.975000 1 1.000000 1 -3.000000
36 2 412.734000 -1472.770000 -112.228000 1 1.000000 1 -3.000000
37 2 422.301000 -1475.360000 -112.145000 1 1.000000 1 -3.000000
38 2 431.978000 -1476.900000 -113.837000 1 1.000000 1 -3.000000
39 2 441.442000 -1475.840000 -116.557000 1 1.000000 1 -3.000000
40 2 450.635000 -1475.000000 -120.244000 1 1.000000 1 -3.000000
41 2 459.997000 -1474.510000 -123.238000 1 1.000000 1 -3.000000
42 2 469.771000 -1473.830000 -124.455000 1 1.000000 1 -3.000000
43 2 479.317000 -1475.660000 -126.243000 1 1.000000 1 -3.000000
44 2 488.196000 -1478.470000 -129.717000 1 1.000000 1 -3.000000
45 2 496.928000 -1478.280000 -134.344000 1 1.000000 1 -3.000000
46 2 505.760000 -1477.000000 -138.461000 1 1.000000 1 -3.000000
47 2 513.994000 -1476.340000 -143.853000 1 1.000000 1 -3.000000
48 2 522.833000 -1473.400000 -147.230000 1 1.000000 3 -3.000000
49 1 509.232000 -1439.610000 -177.212000 1 1.000000 3 0.000000
50 3 479.826000 -1447.090000 -159.740000 1 1.000000 3 0.000000
51 2 477.016000 -1412.120000 -198.056000 1 1.000000 3 -3.000000
52 2 469.002000 -1415.150000 -193.109000 1 1.000000 1 -3.000000
53 2 462.033000 -1415.550000 -186.186000 1 1.000000 1 -3.000000
54 2 454.441000 -1414.710000 -179.783000 1 1.000000 1 -3.000000
55 2 450.003000 -1416.780000 -171.207000 1 1.000000 1 -3.000000
56 2 445.023000 -1420.260000 -163.393000 1 1.000000 1 -3.000000
57 2 441.496000 -1422.910000 -154.506000 1 1.000000 1 -3.000000
58 2 439.334000 -1426.770000 -145.578000 1 1.000000 1 -3.000000
59 2 435.990000 -1429.790000 -136.832000 1 1.000000 1 -3.000000
60 2 433.337000 -1433.140000 -127.844000 1 1.000000 1 -3.000000
61 2 429.292000 -1435.920000 -119.276000 1 1.000000 1 -3.000000
62 2 424.914000 -1438.840000 -111.040000 1 1.000000 1 -3.000000
63 2 420.331000 -1440.880000 -102.619000 1 1.000000 1 -3.000000
64 2 417.260000 -1441.180000 -93.163000 1 1.000000 1 -3.000000
65 2 413.480000 -1444.750000 -84.684300 1 1.000000 1 -3.000000
66 2 410.413000 -1447.780000 -75.724500 1 1.000000 1 -3.000000
67 2 407.518000 -1451.880000 -67.160400 1 1.000000 1 -3.000000
68 2 406.181000 -1455.570000 -58.078100 1 1.000000 1 -3.000000
69 2 402.601000 -1459.320000 -49.616200 1 1.000000 1 -3.000000
70 2 398.934000 -1463.970000 -41.692000 1 1.000000 1 -3.000000
71 2 394.958000 -1466.720000 -33.116900 1 1.000000 1 -3.000000
72 2 391.614000 -1467.750000 -23.882100 1 1.000000 1 -3.000000
73 2 386.957000 -1467.100000 -15.148800 1 1.000000 1 -3.000000
74 2 383.914000 -1466.740000 -5.785840 1 1.000000 1 -3.000000
75 2 382.305000 -1466.940000 3.964440 1 1.000000 4 -3.000000
76 1 396.750000 -1423.140000 13.870900 1 1.000000 4 0.000000
77 3 395.998000 -1423.620000 -21.172200 1 1.000000 4 0.000000
78 2 411.083000 -1379.710000 2.209710 1 1.000000 4 -3.000000
79 2 411.821000 -1379.810000 -7.715810 1 1.000000 1 -3.000000
80 2 411.101000 -1380.700000 -17.445700 1 1.000000 1 -3.000000
81 2 410.679000 -1380.380000 -27.313600 1 1.000000 1 -3.000000
82 2 408.226000 -1380.680000 -36.861300 1 1.000000 1 -3.000000
83 2 405.387000 -1385.770000 -44.884600 1 1.000000 1 -3.000000
84 2 402.189000 -1391.090000 -52.645900 1 1.000000 1 -3.000000
85 2 396.981000 -1395.710000 -59.546200 1 1.000000 1 -3.000000
86 2 391.396000 -1398.240000 -67.353000 1 1.000000 1 -3.000000
87 2 385.862000 -1400.100000 -75.426800 1 1.000000 1 -3.000000
88 2 381.100000 -1401.490000 -84.060500 1 1.000000 1 -3.000000
89 2 375.292000 -1404.060000 -91.628200 1 1.000000 1 -3.000000
90 2 368.371000 -1404.790000 -98.707900 1 1.000000 1 -3.000000
91 2 360.296000 -1405.700000 -104.366000 1 1.000000 1 -3.000000
92 2 351.930000 -1406.320000 -109.515000 1 1.000000 1 -3.000000
93 2 343.241000 -1408.140000 -114.039000 1 1.000000 1 -3.000000
94 2 334.945000 -1411.750000 -118.083000 1 1.000000 1 -3.000000
95 2 326.150000 -1415.220000 -120.961000 1 1.000000 1 -3.000000
96 2 317.262000 -1418.840000 -123.411000 1 1.000000 1 -3.000000
97 2 308.162000 -1421.460000 -126.519000 1 1.000000 1 -3.000000
98 2 299.112000 -1425.200000 -127.436000 1 1.000000 1 -3.000000
99 2 292.084000 -1430.440000 -132.068000 1 1.000000 1 -3.000000
100 2 285.240000 -1435.360000 -137.120000 1 1.000000 1 -3.000000
101 2 277.954000 -1438.340000 -143.083000 1 1.000000 1 -3.000000
102 2 270.510000 -1441.590000 -148.694000 1 1.000000 5 -3.000000
103 1 277.611000 -1416.210000 -187.832000 1 1.000000 5 0.000000
104 3 305.708000 -1408.910000 -168.311000 1 1.000000 5 0.000000
105 2 301.200000 -1385.120000 -214.299000 1 1.000000 5 -3.000000
106 2 309.831000 -1386.840000 -209.586000 1 1.000000 1 -3.000000
107 2 317.624000 -1385.980000 -203.571000 1 1.000000 1 -3.000000
108 2 324.206000 -1382.730000 -196.886000 1 1.000000 1 -3.000000
109 2 330.900000 -1380.390000 -190.036000 1 1.000000 1 -3.000000
110 2 336.887000 -1376.460000 -183.220000 1 1.000000 1 -3.000000
111 2 341.305000 -1373.860000 -174.771000 1 1.000000 1 -3.000000
112 2 343.980000 -1370.130000 -165.966000 1 1.000000 1 -3.000000
113 2 347.674000 -1367.170000 -157.265000 1 1.000000 1 -3.000000
114 2 352.462000 -1363.600000 -149.381000 1 1.000000 1 -3.000000
115 2 357.964000 -1360.530000 -141.717000 1 1.000000 1 -3.000000
116 2 362.948000 -1358.210000 -133.478000 1 1.000000 1 -3.000000
117 2 370.181000 -1353.770000 -128.368000 1 1.000000 1 -3.000000
118 2 377.784000 -1350.930000 -122.685000 1 1.000000 1 -3.000000
119 2 386.634000 -1347.780000 -119.547000 1 1.000000 1 -3.000000
120 2 395.679000 -1345.750000 -115.891000 1 1.000000 1 -3.000000
121 2 404.571000 -1345.260000 -111.748000 1 1.000000 1 -3.000000
122 2 412.676000 -1347.550000 -106.618000 1 1.000000 1 -3.000000
123 2 420.629000 -1352.060000 -102.725000 1 1.000000 1 -3.000000
124 2 429.128000 -1355.960000 -99.750500 1 1.000000 1 -3.000000
125 2 437.453000 -1359.770000 -95.954400 1 1.000000 1 -3.000000
126 2 446.115000 -1363.970000 -93.597900 1 1.000000 1 -3.000000
127 2 455.697000 -1365.820000 -91.824500 1 1.000000 1 -3.000000
128 2 465.154000 -1366.280000 -89.015900 1 1.000000 1 -3.000000
129 2 474.365000 -1366.480000 -85.486600 1 1.000000 6 -3.000000
130 1 491.062000 -1326.380000 -103.785000 1 1.000000 6 0.000000
131 3 456.527000 -1323.410000 -108.267000 1 1.000000 6 0.000000
132 2 486.434000 -1283.140000 -122.005000 1 1.000000 6 -3.000000
133 2 476.638000 -1281.880000 -121.563000 1 1.000000 1 -3.000000
134 2 466.744000 -1280.950000 -121.331000 1 1.000000 1 -3.000000
135 2 456.969000 -1280.570000 -122.461000 1 1.000000 1 -3.000000
136 2 447.298000 -1281.920000 -120.921000 1 1.000000 1 -3.000000
137 2 438.465000 -1284.070000 -116.922000 1 1.000000 1 -3.000000
138 2 429.557000 -1286.890000 -114.001000 1 1.000000 1 -3.000000
139 2 420.628000 -1290.120000 -111.207000 1 1.000000 1 -3.000000
140 2 411.663000 -1293.750000 -108.977000 1 1.000000 1 -3.000000
141 2 403.205000 -1296.790000 -104.940000 1 1.000000 1 -3.000000
142 2 394.675000 -1298.520000 -100.039000 1 1.000000 1 -3.000000
143 2 386.177000 -1302.780000 -97.545300 1 1.000000 1 -3.000000
144 2 377.644000 -1307.580000 -95.821500 1 1.000000 1 -3.000000
145 2 370.027000 -1313.700000 -94.553800 1 1.000000 1 -3.000000
146 2 362.045000 -1318.940000 -91.892700 1 1.000000 1 -3.000000
147 2 353.317000 -1321.720000 -88.130800 1 1.000000 1 -3.000000
148 2 346.154000 -1327.060000 -83.893500 1 1.000000 1 -3.000000
149 2 338.745000 -1332.450000 -80.237700 1 1.000000 1 -3.000000
150 2 331.097000 -1337.280000 -76.110800 1 1.000000 1 -3.000000
151 2 323.418000 -1341.970000 -72.199300 1 1.000000 1 -3.000000
152 2 315.939000 -1345.960000 -67.031400 1 1.000000 1 -3.000000
153 2 310.256000 -1351.040000 -60.676900 1 1.000000 1 -3.000000
154 2 305.847000 -1355.950000 -53.285900 1 1.000000 1 -3.000000
155 2 300.986000 -1360.600000 -45.964600 1 1.000000 1 -3.000000
156 2 297.564000 -1365.830000 -38.364400 1 1.000000 7 -3.000000
157 1 336.031000 -1370.800000 -11.514300 1 1.000000 7 0.000000
158 3 343.639000 -1342.880000 -31.293100 1 1.000000 7 0.000000
159 2 377.955000 -1356.890000 5.115090 1 1.000000 7 -3.000000
160 2 375.862000 -1347.350000 3.403930 1 1.000000 1 -3.000000
161 2 374.834000 -1337.780000 1.294690 1 1.000000 1 -3.000000
162 2 372.102000 -1328.940000 -2.263700 1 1.000000 1 -3.000000
163 2 368.879000 -1320.490000 -6.120420 1 1.000000 1 -3.000000
164 2 365.829000 -1312.870000 -11.531400 1 1.000000 1 -3.000000
165 2 363.225000 -1305.650000 -17.630900 1 1.000000 1 -3.000000
166 2 359.136000 -1300.190000 -24.882700 1 1.000000 1 -3.000000
167 2 355.256000 -1295.120000 -32.459600 1 1.000000 1 -3.000000
168 2 352.357000 -1290.420000 -40.715700 1 1.000000 1 -3.000000
169 2 349.350000 -1286.800000 -49.378800 1 1.000000 1 -3.000000
170 2 348.599000 -1281.470000 -57.705600 1 1.000000 1 -3.000000
171 2 346.962000 -1275.090000 -65.171300 1 1.000000 1 -3.000000
172 2 344.888000 -1268.590000 -72.383700 1 1.000000 1 -3.000000
173 2 344.273000 -1263.010000 -80.524200 1 1.000000 1 -3.000000
174 2 340.500000 -1259.830000 -89.163300 1 1.000000 1 -3.000000
175 2 338.723000 -1256.110000 -98.201800 1 1.000000 1 -3.000000
176 2 337.061000 -1252.130000 -107.141000 1 1.000000 1 -3.000000
177 2 336.101000 -1246.600000 -115.343000 1 1.000000 1 -3.000000
178 2 334.263000 -1242.180000 -124.011000 1 1.000000 1 -3.000000
179 2 332.078000 -1238.550000 -132.934000 1 1.000000 1 -3.000000
180 2 327.705000 -1236.140000 -141.573000 1 1.000000 1 -3.000000
181 2 322.979000 -1235.310000 -150.215000 1 1.000000 1 -3.000000
182 2 317.312000 -1233.680000 -158.209000 1 1.000000 1 -3.000000
183 2 313.497000 -1231.430000 -167.153000 1 1.000000 8 -3.000000
184 1 302.602000 -1277.020000 -172.784000 1 1.000000 8 0.000000
185 3 305.389000 -1273.560000 -138.051000 1 1.000000 8 0.000000
186 2 295.966000 -1321.000000 -156.931000 1 1.000000 8 -3.000000
187 2 293.200000 -1318.130000 -147.822000 1 1.000000 1 -3.000000
188 2 290.985000 -1317.460000 -138.115000 1 1.000000 1 -3.000000
189 2 288.278000 -1314.120000 -129.224000 1 1.000000 1 -3.000000
190 2 285.788000 -1309.220000 -121.097000 1 1.000000 1 -3.000000
191 2 286.791000 -1305.310000 -111.992000 1 1.000000 1 -3.000000
192 2 286.137000 -1299.140000 -104.329000 1 1.000000 1 -3.000000
193 2 287.153000 -1291.960000 -97.609400 1 1.000000 1 -3.000000
194 2 286.658000 -1284.830000 -90.822700 1 1.000000 1 -3.000000
195 2 285.511000 -1277.690000 -84.121600 1 1.000000 1 -3.000000
196 2 285.696000 -1268.780000 -79.950900 1 1.000000 1 -3.000000
197 2 287.384000 -1260.140000 -75.189800 1 1.000000 1 -3.000000
198 2 289.285000 -1251.470000 -70.826700 1 1.000000 1 -3.000000
199 2 289.084000 -1244.380000 -63.848100 1 1.000000 1 -3.000000
200 2 289.531000 -1237.080000 -57.169600 1 1.000000 1 -3.000000
201 2 290.249000 -1230.480000 -49.778400 1 1.000000 1 -3.000000
202 2 290.376000 -1223.260000 -42.983300 1 1.000000 1 -3.000000
203 2 291.555000 -1215.970000 -36.525400 1 1.000000 1 -3.000000
204 2 293.482000 -1208.360000 -30.618500 1 1.000000 1 -3.000000
205 2 295.231000 -1200.510000 -24.900600 1 1.000000 1 -3.000000
206 2 298.953000 -1192.400000 -20.480700 1 1.000000 1 -3.000000
207 2 302.605000 -1183.360000 -18.858800 1 1.000000 1 -3.000000
208 2 304.873000 -1173.710000 -19.656900 1 1.000000 1 -3.000000
209 2 306.789000 -1164.070000 -18.348100 1 1.000000 1 -3.000000
210 2 310.279000 -1154.990000 -16.459000 1 1.000000 9 -3.000000
211 1 307.684000 -1142.440000 -61.848100 1 1.000000 9 0.000000
212 3 294.647000 -1174.960000 -61.766000 1 1.000000 9 0.000000
213 2 299.826000 -1151.070000 -107.575000 1 1.000000 9 -3.000000
214 2 292.593000 -1157.740000 -106.758000 1 1.000000 1 -3.000000
215 2 286.403000 -1165.360000 -105.532000 1 1.000000 1 -3.000000
216 2 279.429000 -1172.240000 -103.789000 1 1.000000 1 -3.000000
217 2 273.766000 -1179.490000 -100.229000 1 1.000000 1 -3.000000
218 2 268.803000 -1186.930000 -95.958100 1 1.000000 1 -3.000000
219 2 265.897000 -1193.480000 -89.253700 1 1.000000 1 -3.000000
220 2 264.172000 -1199.890000 -81.902400 1 1.000000 1 -3.000000
221 2 261.571000 -1206.930000 -75.418900 1 1.000000 1 -3.000000
222 2 259.971000 -1214.840000 -69.562100 1 1.000000 1 -3.000000
223 2 260.118000 -1222.380000 -63.130100 1 1.000000 1 -3.000000
224 2 259.403000 -1230.540000 -57.563200 1 1.000000 1 -3.000000
225 2 258.223000 -1239.060000 -52.599100 1 1.000000 1 -3.000000
226 2 259.271000 -1248.090000 -48.649900 1 1.000000 1 -3.000000
227 2 259.292000 -1257.340000 -45.148000 1 1.000000 1 -3.000000
228 2 261.681000 -1266.660000 -42.812300 1 1.000000 1 -3.000000
229 2 264.617000 -1275.640000 -39.888000 1 1.000000 1 -3.000000
230 2 266.397000 -1285.030000 -37.381200 1 1.000000 1 -3.000000
231 2 267.987000 -1294.380000 -34.602900 1 1.000000 1 -3.000000
232 2 270.701000 -1302.820000 -30.233500 1 1.000000 1 -3.000000
233 2 272.100000 -1309.920000 -23.448800 1 1.000000 1 -3.000000
234 2 271.361000 -1316.320000 -15.991300 1 1.000000 1 -3.000000
235 2 270.043000 -1320.820000 -7.281200 1 1.000000 1 -3.000000
236 2 269.739000 -1325.550000 1.386700 1 1.000000 1 -3.000000
237 2 268.834000 -1330.790000 9.723570 1 1.000000 10 -3.000000
238 1 275.229000 -1293.480000 37.869700 1 1.000000 10 0.000000
239 3 263.267000 -1279.150000 8.263620 1 1.000000 10 0.000000
240 2 273.869000 -1247.390000 47.970600 1 1.000000 10 -3.000000
241 2 268.513000 -1244.470000 40.126900 1 1.000000 1 -3.000000
242 2 260.979000 -1242.560000 33.978700 1 1.000000 1 -3.000000
243 2 253.060000 -1241.700000 28.136000 1 1.000000 1 -3.000000
244 2 245.287000 -1241.360000 22.015300 1 1.000000 1 -3.000000
245 2 239.170000 -1241.840000 14.242100 1 1.000000 1 -3.000000
246 2 235.360000 -1244.220000 5.359570 1 1.000000 1 -3.000000
247 2 231.959000 -1247.330000 -3.391750 1 1.000000 1 -3.000000
248 2 227.787000 -1250.620000 -11.710400 1 1.000000 1 -3.000000
249 2 224.022000 -1252.880000 -20.553800 1 1.000000 1 -3.000000
250 2 221.094000 -1257.080000 -28.979000 1 1.000000 1 -3.000000
251 2 219.678000 -1260.860000 -38.081800 1 1.000000 1 -3.000000
252 2 218.242000 -1264.820000 -47.036600 1 1.000000 1 -3.000000
253 2 217.899000 -1267.360000 -56.628800 1 1.000000 1 -3.000000
254 2 218.601000 -1270.370000 -66.027800 1 1.000000 1 -3.000000
255 2 216.578000 -1269.820000 -75.669600 1 1.000000 1 -3.000000
256 2 216.222000 -1271.820000 -85.376500 1 1.000000 1 -3.000000
257 2 217.470000 -1273.910000 -94.987600 1 1.000000 1 -3.000000
258 2 222.034000 -1274.620000 -103.761000 1 1.000000 1 -3.000000
259 2 227.360000 -1274.580000 -112.254000 1 1.000000 1 -3.000000
260 2 232.324000 -1274.040000 -120.887000 1 1.000000 1 -3.000000
261 2 239.247000 -1272.650000 -127.887000 1 1.000000 1 -3.000000
262 2 247.527000 -1271.410000 -133.251000 1 1.000000 1 -3.000000
263 2 253.862000 -1268.740000 -140.411000 1 1.000000 1 -3.000000
264 2 259.483000 -1266.170000 -147.974000 1 1.000000 11 -3.000000
265 1 254.061000 -1220.370000 -138.000000 1 1.000000 11 0.000000
266 3 251.473000 -1235.720000 -106.646000 1 1.000000 11 0.000000
267 2 246.908000 -1184.110000 -108.655000 1 1.000000 11 -3.000000
268 2 241.106000 -1187.970000 -101.628000 1 1.000000 1 -3.000000
269 2 234.362000 -1190.460000 -94.801500 1 1.000000 1 -3.000000
270 2 228.848000 -1190.550000 -86.600900 1 1.000000 1 -3.000000
271 2 222.014000 -1190.350000 -79.495300 1 1.000000 1 -3.000000
272 2 213.729000 -1189.630000 -74.194900 1 1.000000 1 -3.000000
273 2 206.070000 -1188.170000 -67.967500 1 1.000000 1 -3.000000
274 2 200.218000 -1186.970000 -60.106600 1 1.000000 1 -3.000000
275 2 194.430000 -1186.260000 -52.118700 1 1.000000 1 -3.000000
276 2 187.138000 -1184.620000 -45.542600 1 1.000000 1 -3.000000
277 2 178.989000 -1185.020000 -39.950100 1 1.000000 1 -3.000000
278 2 171.355000 -1182.220000 -34.311700 1 1.000000 1 -3.000000
279 2 163.944000 -1178.890000 -28.685900 1 1.000000 1 -3.000000
280 2 158.150000 -1175.030000 -21.559800 1 1.000000 1 -3.000000
281 2 151.267000 -1173.980000 -14.579200 1 1.000000 1 -3.000000
282 2 145.066000 -1172.320000 -6.953260 1 1.000000 1 -3.000000
283 2 139.544000 -1172.370000 1.254540 1 1.000000 1 -3.000000
284 2 135.665000 -1172.440000 10.402200 1 1.000000 1 -3.000000
285 2 132.969000 -1174.630000 19.711700 1 1.000000 1 -3.000000
286 2 131.446000 -1176.980000 29.278800 1 1.000000 1 -3.000000
287 2 131.950000 -1178.550000 38.976600 1 1.000000 1 -3.000000
288 2 134.094000 -1180.350000 48.498300 1 1.000000 1 -3.000000
289 2 136.178000 -1178.210000 57.882700 1 1.000000 1 -3.000000
290 2 137.473000 -1176.330000 67.538900 1 1.000000 1 -3.000000
291 2 138.501000 -1174.290000 77.140200 1 1.000000 12 -3.000000
292 1 120.374000 -1130.730000 78.989300 1 1.000000 12 0.000000
293 3 115.344000 -1140.080000 45.659800 1 1.000000 12 0.000000
294 2 99.968400 -1092.690000 59.974800 1 1.000000 12 -3.000000
295 2 96.603700 -1096.070000 51.243100 1 1.000000 1 -3.000000
296 2 92.817100 -1100.720000 43.406800 1 1.000000 1 -3.000000
297 2 87.937400 -1106.250000 36.808000 1 1.000000 1 -3.000000
298 2 82.732500 -1112.560000 31.312900 1 1.000000 1 -3.000000
299 2 78.617000 -1117.820000 23.990500 1 1.000000 1 -3.000000
300 2 74.493400 -1123.190000 16.877300 1 1.000000 1 -3.000000
301 2 72.063100 -1126.320000 7.814740 1 1.000000 1 -3.000000
302 2 70.208600 -1127.070000 -1.864590 1 1.000000 1 -3.000000
303 2 68.215100 -1125.870000 -11.486700 1 1.000000 1 -3.000000
304 2 67.621000 -1127.950000 -21.171800 1 1.000000 1 -3.000000
305 2 65.368000 -1129.490000 -30.656800 1 1.000000 1 -3.000000
306 2 63.303600 -1128.900000 -40.274300 1 1.000000 1 -3.000000
307 2 61.613000 -1129.410000 -50.022100 1 1.000000 1 -3.000000
308 2 60.452600 -1128.320000 -59.782000 1 1.000000 1 -3.000000
309 2 59.621200 -1128.150000 -69.634200 1 1.000000 1 -3.000000
310 2 59.079700 -1130.390000 -79.259100 1 1.000000 1 -3.000000
311 2 60.556100 -1131.230000 -88.993600 1 1.000000 1 -3.000000
312 2 62.959700 -1130.570000 -98.657600 1 1.000000 1 -3.000000
313 2 66.373000 -1130.460000 -107.960000 1 1.000000 1 -3.000000
314 2 67.668700 -1128.990000 -117.651000 1 1.000000 1 -3.000000
315 2 68.002300 -1125.260000 -126.910000 1 1.000000 1 -3.000000
316 2 65.842300 -1120.120000 -135.017000 1 1.000000 1 -3.000000
317 2 65.775600 -1113.200000 -142.043000 1 1.000000 1 -3.000000
318 2 65.864000 -1106.890000 -149.733000 1 1.000000 13 -3.000000
319 1 39.743100 -1071.800000 -132.067000 1 1.000000 13 0.000000
320 3 51.461500 -1088.240000 -103.480000 1 1.000000 13 0.000000
321 2 20.240500 -1047.330000 -96.812200 1 1.000000 13 -3.000000
322 2 26.452000 -1050.840000 -89.927900 1 1.000000 1 -3.000000
323 2 32.788800 -1052.880000 -82.671200 1 1.000000 1 -3.000000
324 2 37.893300 -1056.580000 -75.090500 1 1.000000 1 -3.000000
325 2 43.619000 -1061.810000 -68.926400 1 1.000000 1 -3.000000
326 2 50.857000 -1066.530000 -64.160500 1 1.000000 1 -3.000000
327 2 58.903400 -1071.930000 -62.056100 1 1.000000 1 -3.000000
328 2 66.476200 -1078.250000 -62.278200 1 1.000000 1 -3.000000
329 2 75.611800 -1081.870000 -63.706100 1 1.000000 1 -3.000000
330 2 84.594400 -1085.450000 -61.722900 1 1.000000 1 -3.000000
331 2 94.106700 -1087.310000 -59.737900 1 1.000000 1 -3.000000
332 2 103.566000 -1089.340000 -57.815000 1 1.000000 1 -3.000000
333 2 112.965000 -1092.450000 -57.847000 1 1.000000 1 -3.000000
334 2 122.384000 -1095.110000 -59.511800 1 1.000000 1 -3.000000
335 2 131.559000 -1098.800000 -60.998400 1 1.000000 1 -3.000000
336 2 140.509000 -1103.210000 -61.508500 1 1.000000 1 -3.000000
337 2 148.659000 -1108.810000 -61.718500 1 1.000000 1 -3.000000
338 2 158.076000 -1111.550000 -60.416000 1 1.000000 1 -3.000000
339 2 167.627000 -1114.250000 -59.881400 1 1.000000 1 -3.000000
340 2 176.800000 -1116.780000 -62.711700 1 1.000000 1 -3.000000
341 2 185.451000 -1120.260000 -65.946800 1 1.000000 1 -3.000000
342 2 194.385000 -1123.880000 -67.974300 1 1.000000 1 -3.000000
343 2 204.068000 -1126.070000 -68.864600 1 1.000000 1 -3.000000
344 2 213.791000 -1127.730000 -68.869100 1 1.000000 1 -3.000000
345 2 223.562000 -1129.070000 -69.048200 1 1.000000 14 -3.000000
346 1 238.867000 -1084.710000 -74.079500 1 1.000000 14 0.000000
347 3 204.992000 -1080.580000 -66.204100 1 1.000000 14 0.000000
348 2 232.869000 -1037.930000 -75.917500 1 1.000000 14 -3.000000
349 2 224.801000 -1037.480000 -70.237900 1 1.000000 1 -3.000000
350 2 216.864000 -1038.590000 -64.375200 1 1.000000 1 -3.000000
351 2 209.072000 -1038.050000 -58.376700 1 1.000000 1 -3.000000
352 2 200.721000 -1038.330000 -53.090000 1 1.000000 1 -3.000000
353 2 192.052000 -1040.000000 -48.653300 1 1.000000 1 -3.000000
354 2 183.129000 -1040.290000 -44.443800 1 1.000000 1 -3.000000
355 2 174.965000 -1040.490000 -38.836600 1 1.000000 1 -3.000000
356 2 166.996000 -1040.960000 -32.995900 1 1.000000 1 -3.000000
357 2 159.727000 -1040.130000 -26.277400 1 1.000000 1 -3.000000
358 2 153.084000 -1039.100000 -18.943900 1 1.000000 1 -3.000000
359 2 147.171000 -1037.340000 -11.239800 1 1.000000 1 -3.000000
360 2 142.026000 -1034.480000 -3.252710 1 1.000000 1 -3.000000
361 2 135.253000 -1032.470000 3.703700 1 1.000000 1 -3.000000
362 2 128.886000 -1030.390000 10.991900 1 1.000000 1 -3.000000
363 2 123.135000 -1028.350000 18.713900 1 1.000000 1 -3.000000
364 2 117.971000 -1028.900000 27.104000 1 1.000000 1 -3.000000
365 2 112.030000 -1030.690000 34.736300 1 1.000000 1 -3.000000
366 2 106.414000 -1033.560000 42.431800 1 1.000000 1 -3.000000
367 2 98.969100 -1034.680000 48.846100 1 1.000000 1 -3.000000
368 2 91.535100 -1036.830000 55.001400 1 1.000000 1 -3.000000
369 2 86.236300 -1040.630000 62.347100 1 1.000000 1 -3.000000
370 2 81.337300 -1042.630000 70.799100 1 1.000000 1 -3.000000
371 2 75.438700 -1043.450000 78.637000 1 1.000000 1 -3.000000
372 2 69.858000 -1042.500000 86.718000 1 1.000000 15 -3.000000
373 1 103.640000 -1030.680000 117.511000 1 1.000000 15 0.000000
374 3 115.497000 -1017.920000 87.202000 1 1.000000 15 0.000000
375 2 144.510000 -1010.590000 129.693000 1 1.000000 15 -3.000000
376 2 145.520000 -1005.750000 121.142000 1 1.000000 1 -3.000000
377 2 148.207000 -1000.880000 113.008000 1 1.000000 1 -3.000000
378 2 149.424000 -995.747000 104.601000 1 1.000000 1 -3.000000
379 2 149.305000 -990.180000 96.416500 1 1.000000 1 -3.000000
380 2 145.549000 -984.787000 89.011600 1 1.000000 1 -3.000000
381 2 140.997000 -978.735000 82.785500 1 1.000000 1 -3.000000
382 2 134.067000 -973.041000 78.801300 1 1.000000 1 -3.000000
383 2 127.983000 -965.408000 77.520200 1 1.000000 1 -3.000000
384 2 121.840000 -957.623000 76.624600 1 1.000000 1 -3.000000
385 2 115.894000 -949.709000 75.965800 1 1.000000 1 -3.000000
386 2 113.018000 -941.066000 72.318100 1 1.000000 1 -3.000000
387 2 111.928000 -931.577000 69.676000 1 1.000000 1 -3.000000
388 2 111.291000 -922.146000 66.934300 1 1.000000 1 -3.000000
389 2 110.905000 -912.487000 64.786700 1 1.000000 1 -3.000000
390 2 111.341000 -903.597000 60.296200 1 1.000000 1 -3.000000
391 2 110.442000 -895.134000 55.291200 1 1.000000 1 -3.000000
392 2 108.237000 -888.260000 48.490700 1 1.000000 1 -3.000000
393 2 106.668000 -882.031000 40.881700 1 1.000000 1 -3.000000
394 2 102.677000 -874.904000 35.335000 1 1.000000 1 -3.000000
395 2 97.806800 -868.947000 29.198100 1 1.000000 1 -3.000000
396 2 90.339300 -864.050000 24.948600 1 1.000000 1 -3.000000
397 2 81.791300 -859.382000 23.815300 1 1.000000 1 -3.000000
398 2 74.724000 -853.441000 20.229300 1 1.000000 1 -3.000000
399 2 67.680500 -846.936000 18.040300 1 1.000000 16 -3.000000
400 1 36.170100 -867.343000 46.613400 1 1.000000 16 0.000000
401 3 66.888100 -875.458000 61.251400 1 1.000000 16 0.000000
402 2 23.877200 -895.840000 82.210100 1 1.000000 16 -3.000000
403 2 30.724900 -893.216000 88.850700 1 1.000000 1 -3.000000
404 2 38.901100 -890.932000 94.029700 1 1.000000 1 -3.000000
405 2 48.206000 -889.019000 96.876600 1 1.000000 1 -3.000000
406 2 57.014400 -888.176000 101.426000 1 1.000000 1 -3.000000
407 2 64.963300 -886.924000 107.159000 1 1.000000 1 -3.000000
408 2 72.799400 -883.842000 112.367000 1 1.000000 1 -3.000000
409 2 82.013200 -881.554000 115.202000 1 1.000000 1 -3.000000
410 2 91.383000 -880.831000 118.271000 1 1.000000 1 -3.000000
411 2 100.049000 -879.097000 122.406000 1 1.000000 1 -3.000000
412 2 109.166000 -877.081000 125.968000 1 1.000000 1 -3.000000
413 2 118.736000 -875.697000 128.233000 1 1.000000 1 -3.000000
414 2 128.127000 -873.778000 130.570000 1 1.000000 1 -3.000000
415 2 137.624000 -871.642000 132.548000 1 1.000000 1 -3.000000
416 2 147.180000 -870.211000 134.971000 1 1.000000 1 -3.000000
417 2 155.378000 -866.021000 138.451000 1 1.000000 1 -3.000000
418 2 163.971000 -862.644000 142.149000 1 1.000000 1 -3.000000
419 2 172.703000 -858.119000 143.479000 1 1.000000 1 -3.000000
420 2 181.680000 -853.808000 144.059000 1 1.000000 1 -3.000000
421 2 190.486000 -849.229000 144.156000 1 1.000000 1 -3.000000
422 2 198.114000 -843.146000 145.817000 1 1.000000 1 -3.000000
423 2 204.668000 -836.199000 148.350000 1 1.000000 1 -3.000000
424 2 211.523000 -829.242000 149.571000 1 1.000000 1 -3.000000
425 2 217.745000 -821.891000 151.428000 1 1.000000 1 -3.000000
426 2 225.837000 -816.265000 150.551000 1 1.000000 17 -3.000000
427 1 250.753000 -826.898000 189.124000 1 1.000000 17 0.000000
428 3 218.511000 -837.916000 197.202000 1 1.000000 17 0.000000
429 2 255.964000 -845.092000 232.371000 1 1.000000 17 -3.000000
430 2 246.184000 -846.708000 232.836000 1 1.000000 1 -3.000000
431 2 237.186000 -849.994000 235.182000 1 1.000000 1 -3.000000
432 2 228.325000 -853.293000 238.039000 1 1.000000 1 -3.000000
433 2 219.330000 -857.315000 237.923000 1 1.000000 1 -3.000000
434 2 210.583000 -860.866000 235.070000 1 1.000000 1 -3.000000
435 2 203.210000 -864.950000 229.890000 1 1.000000 1 -3.000000
436 2 196.992000 -871.252000 225.647000 1 1.000000 1 -3.000000
437 2 191.264000 -877.047000 220.050000 1 1.000000 1 -3.000000
438 2 185.786000 -879.424000 212.031000 1 1.000000 1 -3.000000
439 2 179.001000 -882.675000 205.618000 1 1.000000 1 -3.000000
440 2 172.994000 -887.315000 199.215000 1 1.000000 1 -3.000000
441 2 165.951000 -890.938000 193.290000 1 1.000000 1 -3.000000
442 2 157.736000 -894.414000 189.029000 1 1.000000 1 -3.000000
443 2 148.530000 -895.295000 185.632000 1 1.000000 1 -3.000000
444 2 138.921000 -897.376000 184.869000 1 1.000000 1 -3.000000
445 2 129.340000 -898.724000 186.906000 1 1.000000 1 -3.000000
446 2 119.477000 -898.687000 187.961000 1 1.000000 1 -3.000000
447 2 109.676000 -897.764000 189.136000 1 1.000000 1 -3.000000
448 2 100.241000 -896.837000 192.023000 1 1.000000 1 -3.000000
449 2 91.130900 -895.058000 195.276000 1 1.000000 1 -3.000000
450 2 82.436900 -892.250000 198.963000 1 1.000000 1 -3.000000
451 2 74.068600 -887.920000 202.182000 1 1.000000 1 -3.000000
452 2 67.195000 -883.267000 207.480000 1 1.000000 1 -3.000000
453 2 59.655800 -879.615000 212.640000 1 1.000000 18 -3.000000
454 1 81.919300 -871.050000 253.333000 1 1.000000 18 0.000000
455 3 108.131000 -876.588000 230.914000 1 1.000000 18 0.000000
456 2 120.294000 -867.908000 280.584000 1 1.000000 18 -3.000000
457 2 127.484000 -867.110000 273.844000 1 1.000000 1 -3.000000
458 2 134.679000 -865.563000 267.209000 1 1.000000 1 -3.000000
459 2 140.266000 -862.382000 259.655000 1 1.000000 1 -3.000000
460 2 143.027000 -858.627000 250.861000 1 1.000000 1 -3.000000
461 2 145.517000 -854.634000 242.239000 1 1.000000 1 -3.000000
462 2 148.198000 -851.675000 233.096000 1 1.000000 1 -3.000000
463 2 153.744000 -847.293000 226.093000 1 1.000000 1 -3.000000
464 2 158.993000 -842.375000 219.305000 1 1.000000 1 -3.000000
465 2 165.628000 -839.021000 212.755000 1 1.000000 1 -3.000000
466 2 169.396000 -832.827000 206.043000 1 1.000000 1 -3.000000
467 2 172.726000 -827.221000 198.566000 1 1.000000 1 -3.000000