LAMMPS data file

4067 atoms
4067 ellipsoids
4516 bonds
8882 angles
0 dihedrals

3 atom types
5 bond types
12 angle types
0 dihedral types

-4631.092947 4670.465898 xlo xhi
-4631.092947 4670.465898 ylo yhi
-4631.092947 4670.465898 zlo zhi

Masses

1 196016.000000
2 1950.000000
3 19500.000000

Atoms

1 2 -265.404000 -949.978000 -650.300000 1 1.000000 1 -3.000000
2 2 -275.019000 -947.660000 -650.699000 1 1.000000 1 -3.000000
3 2 -284.344000 -944.857000 -652.612000 1 1.000000 1 -3.000000
4 2 -294.046000 -943.823000 -654.568000 1 1.000000 1 -3.000000
5 2 -303.716000 -942.518000 -656.592000 1 1.000000 1 -3.000000
6 2 -312.740000 -938.440000 -657.112000 1 1.000000 1 -3.000000
7 2 -321.304000 -933.617000 -656.901000 1 1.000000 1 -3.000000
8 2 -330.189000 -929.591000 -655.524000 1 1.000000 1 -3.000000
9 2 -339.236000 -926.141000 -653.590000 1 1.000000 1 -3.000000
10 2 -348.588000 -923.407000 -651.836000 1 1.000000 1 -3.000000
11 2 -357.215000 -918.812000 -649.729000 1 1.000000 1 -3.000000
12 2 -365.573000 -913.834000 -647.715000 1 1.000000 1 -3.000000
13 2 -372.965000 -907.309000 -646.471000 1 1.000000 1 -3.000000
14 2 -380.649000 -901.293000 -644.695000 1 1.000000 1 -3.000000
15 2 -388.096000 -895.705000 -641.462000 1 1.000000 1 -3.000000
16 2 -397.526000 -893.297000 -639.576000 1 1.000000 1 -3.000000
17 2 -407.325000 -891.827000 -638.588000 1 1.000000 1 -3.000000
18 2 -415.800000 -886.798000 -638.920000 1 1.000000 1 -3.000000
19 2 -424.261000 -881.708000 -639.749000 1 1.000000 1 -3.000000
20 2 -432.457000 -876.205000 -640.272000 1 1.000000 1 -3.000000
21 2 -440.462000 -870.659000 -641.887000 1 1.000000 2 -3.000000
22 1 -421.406000 -829.109000 -630.242000 1 1.000000 2 0.000000
23 3 -393.567000 -849.002000 -637.235000 1 1.000000 2 0.000000
24 2 -385.314000 -799.218000 -624.860000 1 1.000000 2 -3.000000
25 2 -378.327000 -805.285000 -628.509000 1 1.000000 1 -3.000000
26 2 -370.701000 -810.305000 -632.502000 1 1.000000 1 -3.000000
27 2 -364.647000 -815.102000 -638.741000 1 1.000000 1 -3.000000
28 2 -359.045000 -821.347000 -643.960000 1 1.000000 1 -3.000000
29 2 -354.010000 -829.174000 -647.297000 1 1.000000 1 -3.000000
30 2 -349.740000 -836.556000 -652.379000 1 1.000000 1 -3.000000
31 2 -346.429000 -843.883000 -658.211000 1 1.000000 1 -3.000000
32 2 -343.507000 -851.308000 -663.958000 1 1.000000 1 -3.000000
33 2 -340.238000 -859.291000 -668.898000 1 1.000000 1 -3.000000
34 2 -338.340000 -866.616000 -675.351000 1 1.000000 1 -3.000000
35 2 -336.216000 -872.850000 -682.747000 1 1.000000 1 -3.000000
36 2 -335.627000 -877.188000 -691.703000 1 1.000000 1 -3.000000
37 2 -334.865000 -879.249000 -701.363000 1 1.000000 1 -3.000000
38 2 -331.661000 -882.698000 -710.071000 1 1.000000 1 -3.000000
39 2 -330.586000 -887.732000 -718.554000 1 1.000000 1 -3.000000
40 2 -327.961000 -892.690000 -726.630000 1 1.000000 1 -3.000000
41 2 -325.064000 -899.685000 -733.028000 1 1.000000 1 -3.000000
42 2 -319.688000 -906.337000 -737.931000 1 1.000000 1 -3.000000
43 2 -314.586000 -913.458000 -742.452000 1 1.000000 1 -3.000000
44 2 -309.083000 -919.539000 -747.989000 1 1.000000 1 -3.000000
45 2 -303.724000 -925.897000 -753.245000 1 1.000000 1 -3.000000
46 2 -300.016000 -932.441000 -759.755000 1 1.000000 1 -3.000000
47 2 -296.432000 -939.040000 -766.106000 1 1.000000 1 -3.000000
48 2 -292.858000 -946.459000 -771.641000 1 1.000000 3 -3.000000
49 1 -335.018000 -957.455000 -789.591000 1 1.000000 3 0.000000
50 3 -338.559000 -923.837000 -780.797000 1 1.000000 3 0.000000
51 2 -380.064000 -948.373000 -800.426000 1 1.000000 3 -3.000000
52 2 -379.772000 -938.399000 -800.683000 1 1.000000 1 -3.000000
53 2 -379.579000 -928.563000 -801.425000 1 1.000000 1 -3.000000
54 2 -379.125000 -918.675000 -802.092000 1 1.000000 1 -3.000000
55 2 -376.858000 -909.354000 -799.908000 1 1.000000 1 -3.000000
56 2 -372.880000 -900.437000 -798.299000 1 1.000000 1 -3.000000
57 2 -370.032000 -891.278000 -796.263000 1 1.000000 1 -3.000000
58 2 -368.673000 -882.301000 -792.321000 1 1.000000 1 -3.000000
59 2 -366.814000 -873.365000 -788.488000 1 1.000000 1 -3.000000
60 2 -362.347000 -865.709000 -784.063000 1 1.000000 1 -3.000000
61 2 -356.642000 -858.357000 -780.682000 1 1.000000 1 -3.000000
62 2 -350.681000 -851.726000 -776.532000 1 1.000000 1 -3.000000
63 2 -344.695000 -844.883000 -772.636000 1 1.000000 1 -3.000000
64 2 -339.517000 -838.687000 -766.880000 1 1.000000 1 -3.000000
65 2 -335.217000 -830.314000 -763.765000 1 1.000000 1 -3.000000
66 2 -331.156000 -821.275000 -763.245000 1 1.000000 1 -3.000000
67 2 -330.012000 -811.651000 -761.442000 1 1.000000 1 -3.000000
68 2 -329.771000 -801.995000 -759.463000 1 1.000000 1 -3.000000
69 2 -331.414000 -792.518000 -757.194000 1 1.000000 1 -3.000000
70 2 -331.978000 -782.655000 -756.585000 1 1.000000 1 -3.000000
71 2 -331.744000 -773.191000 -753.675000 1 1.000000 1 -3.000000
72 2 -332.582000 -765.625000 -747.349000 1 1.000000 1 -3.000000
73 2 -333.743000 -758.417000 -740.645000 1 1.000000 1 -3.000000
74 2 -336.735000 -752.099000 -733.598000 1 1.000000 1 -3.000000
75 2 -339.742000 -745.184000 -727.111000 1 1.000000 4 -3.000000
76 1 -360.256000 -772.318000 -694.414000 1 1.000000 4 0.000000
77 3 -342.931000 -795.388000 -714.363000 1 1.000000 4 0.000000
78 2 -368.921000 -813.579000 -673.236000 1 1.000000 4 -3.000000
79 2 -361.436000 -818.044000 -677.943000 1 1.000000 1 -3.000000
80 2 -353.445000 -823.023000 -680.953000 1 1.000000 1 -3.000000
81 2 -346.363000 -828.328000 -685.502000 1 1.000000 1 -3.000000
82 2 -338.527000 -832.936000 -689.388000 1 1.000000 1 -3.000000
83 2 -329.809000 -833.126000 -694.119000 1 1.000000 1 -3.000000
84 2 -322.906000 -832.294000 -701.230000 1 1.000000 1 -3.000000
85 2 -315.813000 -831.253000 -708.070000 1 1.000000 1 -3.000000
86 2 -308.968000 -827.281000 -714.036000 1 1.000000 1 -3.000000
87 2 -304.048000 -822.489000 -721.129000 1 1.000000 1 -3.000000
88 2 -299.368000 -816.191000 -727.171000 1 1.000000 1 -3.000000
89 2 -293.711000 -811.074000 -733.500000 1 1.000000 1 -3.000000
90 2 -289.757000 -805.285000 -740.436000 1 1.000000 1 -3.000000
91 2 -286.661000 -798.166000 -746.637000 1 1.000000 1 -3.000000
92 2 -283.079000 -791.500000 -752.943000 1 1.000000 1 -3.000000
93 2 -279.258000 -784.349000 -758.573000 1 1.000000 1 -3.000000
94 2 -274.536000 -778.051000 -764.516000 1 1.000000 1 -3.000000
95 2 -270.499000 -769.662000 -768.025000 1 1.000000 1 -3.000000
96 2 -265.414000 -761.358000 -769.790000 1 1.000000 1 -3.000000
97 2 -260.936000 -752.494000 -769.392000 1 1.000000 1 -3.000000
98 2 -258.825000 -743.107000 -767.234000 1 1.000000 1 -3.000000
99 2 -259.787000 -733.482000 -765.099000 1 1.000000 1 -3.000000
100 2 -261.573000 -724.062000 -762.430000 1 1.000000 1 -3.000000
101 2 -261.972000 -714.193000 -762.195000 1 1.000000 1 -3.000000
102 2 -262.651000 -704.387000 -761.043000 1 1.000000 5 -3.000000
103 1 -309.760000 -702.702000 -763.489000 1 1.000000 5 0.000000
104 3 -303.136000 -737.040000 -760.371000 1 1.000000 5 0.000000
105 2 -352.804000 -721.799000 -761.421000 1 1.000000 5 -3.000000
106 2 -348.839000 -730.870000 -761.531000 1 1.000000 1 -3.000000
107 2 -345.311000 -740.009000 -762.807000 1 1.000000 1 -3.000000
108 2 -340.626000 -748.236000 -765.562000 1 1.000000 1 -3.000000
109 2 -335.816000 -756.257000 -768.686000 1 1.000000 1 -3.000000
110 2 -330.164000 -763.274000 -772.699000 1 1.000000 1 -3.000000
111 2 -323.717000 -770.069000 -775.948000 1 1.000000 1 -3.000000
112 2 -316.193000 -775.762000 -778.949000 1 1.000000 1 -3.000000
113 2 -308.951000 -781.686000 -782.406000 1 1.000000 1 -3.000000
114 2 -300.638000 -786.400000 -785.278000 1 1.000000 1 -3.000000
115 2 -292.385000 -791.488000 -787.592000 1 1.000000 1 -3.000000
116 2 -285.180000 -797.970000 -789.689000 1 1.000000 1 -3.000000
117 2 -279.928000 -806.284000 -790.568000 1 1.000000 1 -3.000000
118 2 -276.421000 -815.088000 -793.369000 1 1.000000 1 -3.000000
119 2 -274.683000 -824.873000 -793.526000 1 1.000000 1 -3.000000
120 2 -274.941000 -834.608000 -795.444000 1 1.000000 1 -3.000000
121 2 -275.132000 -843.981000 -798.649000 1 1.000000 1 -3.000000
122 2 -274.792000 -853.261000 -802.006000 1 1.000000 1 -3.000000
123 2 -272.411000 -862.648000 -804.265000 1 1.000000 1 -3.000000
124 2 -272.834000 -872.330000 -806.731000 1 1.000000 1 -3.000000
125 2 -272.537000 -882.032000 -808.344000 1 1.000000 1 -3.000000
126 2 -272.485000 -890.930000 -812.625000 1 1.000000 1 -3.000000
127 2 -270.922000 -898.919000 -818.170000 1 1.000000 1 -3.000000
128 2 -268.007000 -907.341000 -822.708000 1 1.000000 1 -3.000000
129 2 -264.813000 -915.440000 -827.480000 1 1.000000 6 -3.000000
130 1 -225.822000 -900.835000 -849.659000 1 1.000000 6 0.000000
131 3 -233.030000 -874.294000 -828.036000 1 1.000000 6 0.000000
132 2 -190.629000 -870.384000 -857.730000 1 1.000000 6 -3.000000
133 2 -190.715000 -863.781000 -850.395000 1 1.000000 1 -3.000000
134 2 -192.388000 -857.338000 -843.033000 1 1.000000 1 -3.000000
135 2 -193.605000 -852.067000 -834.792000 1 1.000000 1 -3.000000
136 2 -196.126000 -849.344000 -825.580000 1 1.000000 1 -3.000000
137 2 -199.989000 -846.059000 -817.027000 1 1.000000 1 -3.000000
138 2 -204.649000 -842.502000 -809.068000 1 1.000000 1 -3.000000
139 2 -206.897000 -839.304000 -799.980000 1 1.000000 1 -3.000000
140 2 -208.706000 -835.203000 -791.069000 1 1.000000 1 -3.000000
141 2 -209.987000 -830.087000 -782.771000 1 1.000000 1 -3.000000
142 2 -213.134000 -826.367000 -774.152000 1 1.000000 1 -3.000000
143 2 -217.400000 -824.834000 -765.433000 1 1.000000 1 -3.000000
144 2 -221.198000 -824.033000 -756.302000 1 1.000000 1 -3.000000
145 2 -225.503000 -825.392000 -747.503000 1 1.000000 1 -3.000000
146 2 -229.036000 -827.199000 -738.442000 1 1.000000 1 -3.000000
147 2 -233.063000 -829.157000 -729.544000 1 1.000000 1 -3.000000
148 2 -235.847000 -830.727000 -720.168000 1 1.000000 1 -3.000000
149 2 -236.733000 -831.371000 -710.298000 1 1.000000 1 -3.000000
150 2 -236.697000 -831.395000 -700.432000 1 1.000000 1 -3.000000
151 2 -237.710000 -829.293000 -690.764000 1 1.000000 1 -3.000000
152 2 -240.932000 -829.762000 -681.480000 1 1.000000 1 -3.000000
153 2 -242.664000 -830.673000 -671.781000 1 1.000000 1 -3.000000
154 2 -243.592000 -832.150000 -662.031000 1 1.000000 1 -3.000000
155 2 -246.034000 -831.971000 -652.411000 1 1.000000 1 -3.000000
156 2 -249.690000 -832.253000 -643.213000 1 1.000000 7 -3.000000
157 1 -277.439000 -869.993000 -648.421000 1 1.000000 7 0.000000
158 3 -261.226000 -867.819000 -679.269000 1 1.000000 7 0.000000
159 2 -295.727000 -905.981000 -672.865000 1 1.000000 7 -3.000000
160 2 -288.517000 -907.948000 -679.315000 1 1.000000 1 -3.000000
161 2 -281.221000 -909.250000 -685.895000 1 1.000000 1 -3.000000
162 2 -273.245000 -909.335000 -691.788000 1 1.000000 1 -3.000000
163 2 -265.592000 -906.470000 -697.381000 1 1.000000 1 -3.000000
164 2 -257.628000 -903.845000 -702.662000 1 1.000000 1 -3.000000
165 2 -250.420000 -899.330000 -707.909000 1 1.000000 1 -3.000000
166 2 -243.396000 -896.324000 -714.177000 1 1.000000 1 -3.000000
167 2 -235.146000 -892.444000 -718.151000 1 1.000000 1 -3.000000
168 2 -225.794000 -889.777000 -719.865000 1 1.000000 1 -3.000000
169 2 -216.644000 -886.169000 -720.936000 1 1.000000 1 -3.000000
170 2 -208.368000 -881.547000 -723.791000 1 1.000000 1 -3.000000
171 2 -200.464000 -875.928000 -726.044000 1 1.000000 1 -3.000000
172 2 -192.651000 -870.230000 -728.103000 1 1.000000 1 -3.000000
173 2 -185.138000 -864.491000 -731.226000 1 1.000000 1 -3.000000
174 2 -178.456000 -858.319000 -735.209000 1 1.000000 1 -3.000000
175 2 -171.830000 -851.638000 -738.291000 1 1.000000 1 -3.000000
176 2 -166.056000 -844.418000 -741.906000 1 1.000000 1 -3.000000
177 2 -160.684000 -838.940000 -748.227000 1 1.000000 1 -3.000000
178 2 -154.877000 -834.047000 -754.676000 1 1.000000 1 -3.000000
179 2 -151.508000 -829.062000 -762.562000 1 1.000000 1 -3.000000
180 2 -149.794000 -822.360000 -769.694000 1 1.000000 1 -3.000000
181 2 -151.234000 -817.750000 -778.399000 1 1.000000 1 -3.000000
182 2 -152.997000 -812.535000 -786.638000 1 1.000000 1 -3.000000
183 2 -154.742000 -809.339000 -795.875000 1 1.000000 8 -3.000000
184 1 -200.893000 -800.474000 -791.541000 1 1.000000 8 0.000000
185 3 -190.975000 -808.098000 -758.818000 1 1.000000 8 0.000000
186 2 -240.021000 -792.441000 -766.352000 1 1.000000 8 -3.000000
187 2 -236.280000 -790.129000 -757.467000 1 1.000000 1 -3.000000
188 2 -231.033000 -789.710000 -749.095000 1 1.000000 1 -3.000000
189 2 -226.312000 -789.311000 -740.335000 1 1.000000 1 -3.000000
190 2 -220.888000 -790.428000 -732.135000 1 1.000000 1 -3.000000
191 2 -214.016000 -789.767000 -725.040000 1 1.000000 1 -3.000000
192 2 -206.341000 -790.573000 -718.901000 1 1.000000 1 -3.000000
193 2 -198.686000 -790.061000 -712.525000 1 1.000000 1 -3.000000
194 2 -190.090000 -789.444000 -707.551000 1 1.000000 1 -3.000000
195 2 -182.256000 -789.238000 -701.563000 1 1.000000 1 -3.000000
196 2 -176.051000 -788.699000 -693.993000 1 1.000000 1 -3.000000
197 2 -170.596000 -791.599000 -686.229000 1 1.000000 1 -3.000000
198 2 -164.824000 -796.794000 -680.133000 1 1.000000 1 -3.000000
199 2 -157.913000 -802.050000 -675.409000 1 1.000000 1 -3.000000
200 2 -152.746000 -808.317000 -669.665000 1 1.000000 1 -3.000000
201 2 -146.973000 -815.530000 -665.894000 1 1.000000 1 -3.000000
202 2 -141.266000 -820.107000 -659.216000 1 1.000000 1 -3.000000
203 2 -133.899000 -822.120000 -652.818000 1 1.000000 1 -3.000000
204 2 -127.219000 -824.327000 -645.798000 1 1.000000 1 -3.000000
205 2 -120.294000 -827.105000 -639.303000 1 1.000000 1 -3.000000
206 2 -112.492000 -827.992000 -633.347000 1 1.000000 1 -3.000000
207 2 -106.164000 -830.462000 -626.110000 1 1.000000 1 -3.000000
208 2 -99.115600 -833.673000 -620.003000 1 1.000000 1 -3.000000
209 2 -89.988900 -836.005000 -617.033000 1 1.000000 1 -3.000000
210 2 -81.070100 -838.676000 -613.569000 1 1.000000 9 -3.000000
211 1 -68.508200 -867.463000 -648.803000 1 1.000000 9 0.000000
212 3 -87.194200 -842.654000 -665.032000 1 1.000000 9 0.000000
213 2 -65.444900 -879.646000 -694.290000 1 1.000000 9 -3.000000
214 2 -70.866000 -872.601000 -698.628000 1 1.000000 1 -3.000000
215 2 -75.459000 -864.893000 -702.787000 1 1.000000 1 -3.000000
216 2 -79.227500 -857.174000 -707.900000 1 1.000000 1 -3.000000
217 2 -81.974900 -848.242000 -711.056000 1 1.000000 1 -3.000000
218 2 -85.766500 -839.128000 -711.184000 1 1.000000 1 -3.000000
219 2 -89.702200 -830.048000 -709.467000 1 1.000000 1 -3.000000
220 2 -92.614700 -821.536000 -705.309000 1 1.000000 1 -3.000000
221 2 -96.184100 -812.812000 -702.187000 1 1.000000 1 -3.000000
222 2 -100.822000 -805.518000 -697.408000 1 1.000000 1 -3.000000
223 2 -103.961000 -798.256000 -691.504000 1 1.000000 1 -3.000000
224 2 -107.700000 -790.644000 -686.222000 1 1.000000 1 -3.000000
225 2 -111.960000 -783.974000 -680.274000 1 1.000000 1 -3.000000
226 2 -118.880000 -778.550000 -675.631000 1 1.000000 1 -3.000000
227 2 -126.315000 -773.236000 -671.750000 1 1.000000 1 -3.000000
228 2 -133.616000 -767.984000 -667.534000 1 1.000000 1 -3.000000
229 2 -141.982000 -762.874000 -665.514000 1 1.000000 1 -3.000000
230 2 -150.135000 -757.708000 -663.461000 1 1.000000 1 -3.000000
231 2 -158.969000 -754.105000 -660.691000 1 1.000000 1 -3.000000
232 2 -167.106000 -748.695000 -659.675000 1 1.000000 1 -3.000000
233 2 -174.988000 -742.877000 -658.605000 1 1.000000 1 -3.000000
234 2 -180.364000 -734.616000 -659.252000 1 1.000000 1 -3.000000
235 2 -183.717000 -725.375000 -658.333000 1 1.000000 1 -3.000000
236 2 -184.533000 -715.535000 -659.370000 1 1.000000 1 -3.000000
237 2 -182.768000 -706.069000 -661.675000 1 1.000000 10 -3.000000
238 1 -135.848000 -709.172000 -658.581000 1 1.000000 10 0.000000
239 3 -146.817000 -723.337000 -628.514000 1 1.000000 10 0.000000
240 2 -95.517600 -719.033000 -636.105000 1 1.000000 10 -3.000000
241 2 -99.185000 -727.709000 -632.911000 1 1.000000 1 -3.000000
242 2 -102.911000 -736.376000 -629.935000 1 1.000000 1 -3.000000
243 2 -106.435000 -744.445000 -625.422000 1 1.000000 1 -3.000000
244 2 -112.241000 -751.334000 -621.296000 1 1.000000 1 -3.000000
245 2 -118.029000 -756.447000 -615.138000 1 1.000000 1 -3.000000
246 2 -124.976000 -759.057000 -608.610000 1 1.000000 1 -3.000000
247 2 -132.676000 -760.058000 -602.439000 1 1.000000 1 -3.000000
248 2 -140.609000 -759.007000 -596.654000 1 1.000000 1 -3.000000
249 2 -149.185000 -756.797000 -592.136000 1 1.000000 1 -3.000000
250 2 -157.952000 -753.705000 -588.852000 1 1.000000 1 -3.000000
251 2 -166.348000 -748.450000 -589.716000 1 1.000000 1 -3.000000
252 2 -173.148000 -741.298000 -590.812000 1 1.000000 1 -3.000000
253 2 -178.734000 -733.735000 -593.668000 1 1.000000 1 -3.000000
254 2 -183.190000 -725.796000 -597.513000 1 1.000000 1 -3.000000
255 2 -184.103000 -717.744000 -603.156000 1 1.000000 1 -3.000000
256 2 -185.207000 -710.757000 -609.985000 1 1.000000 1 -3.000000
257 2 -184.026000 -703.429000 -616.609000 1 1.000000 1 -3.000000
258 2 -182.807000 -698.070000 -624.860000 1 1.000000 1 -3.000000
259 2 -180.888000 -693.344000 -633.335000 1 1.000000 1 -3.000000
260 2 -177.592000 -688.476000 -641.359000 1 1.000000 1 -3.000000
261 2 -173.995000 -681.326000 -647.035000 1 1.000000 1 -3.000000
262 2 -170.471000 -673.998000 -652.758000 1 1.000000 1 -3.000000
263 2 -170.248000 -665.830000 -658.299000 1 1.000000 1 -3.000000
264 2 -170.825000 -657.659000 -663.819000 1 1.000000 11 -3.000000
265 1 -199.710000 -631.684000 -637.065000 1 1.000000 11 0.000000
266 3 -185.331000 -653.780000 -614.046000 1 1.000000 11 0.000000
267 2 -217.477000 -617.416000 -595.705000 1 1.000000 11 -3.000000
268 2 -211.532000 -620.539000 -588.415000 1 1.000000 1 -3.000000
269 2 -204.703000 -625.080000 -582.915000 1 1.000000 1 -3.000000
270 2 -196.632000 -629.491000 -579.399000 1 1.000000 1 -3.000000
271 2 -188.101000 -632.888000 -575.774000 1 1.000000 1 -3.000000
272 2 -179.972000 -637.648000 -572.782000 1 1.000000 1 -3.000000
273 2 -171.089000 -641.367000 -570.817000 1 1.000000 1 -3.000000
274 2 -162.711000 -645.511000 -567.659000 1 1.000000 1 -3.000000
275 2 -154.034000 -650.094000 -566.149000 1 1.000000 1 -3.000000
276 2 -146.416000 -656.461000 -564.859000 1 1.000000 1 -3.000000
277 2 -137.775000 -661.237000 -563.690000 1 1.000000 1 -3.000000
278 2 -128.953000 -665.542000 -562.567000 1 1.000000 1 -3.000000
279 2 -121.018000 -669.145000 -557.971000 1 1.000000 1 -3.000000
280 2 -114.995000 -673.526000 -551.460000 1 1.000000 1 -3.000000
281 2 -111.024000 -676.870000 -543.106000 1 1.000000 1 -3.000000
282 2 -105.351000 -678.941000 -535.307000 1 1.000000 1 -3.000000
283 2 -99.082800 -682.613000 -528.552000 1 1.000000 1 -3.000000
284 2 -92.688700 -687.228000 -522.686000 1 1.000000 1 -3.000000
285 2 -87.166900 -692.095000 -516.032000 1 1.000000 1 -3.000000
286 2 -82.456800 -698.429000 -510.007000 1 1.000000 1 -3.000000
287 2 -76.459300 -702.992000 -503.605000 1 1.000000 1 -3.000000
288 2 -71.811900 -709.588000 -497.892000 1 1.000000 1 -3.000000
289 2 -68.105600 -716.133000 -491.282000 1 1.000000 1 -3.000000
290 2 -65.005200 -721.651000 -483.752000 1 1.000000 1 -3.000000
291 2 -60.735500 -726.463000 -476.312000 1 1.000000 12 -3.000000
292 1 -61.143700 -689.843000 -446.523000 1 1.000000 12 0.000000
293 3 -88.323100 -683.393000 -467.612000 1 1.000000 12 0.000000
294 2 -78.986700 -649.775000 -429.145000 1 1.000000 12 -3.000000
295 2 -86.550600 -647.754000 -435.189000 1 1.000000 1 -3.000000
296 2 -95.420100 -648.464000 -439.631000 1 1.000000 1 -3.000000
297 2 -103.367000 -649.710000 -445.393000 1 1.000000 1 -3.000000
298 2 -111.754000 -649.834000 -450.640000 1 1.000000 1 -3.000000
299 2 -119.280000 -652.765000 -456.327000 1 1.000000 1 -3.000000
300 2 -125.303000 -659.072000 -461.085000 1 1.000000 1 -3.000000
301 2 -131.056000 -665.731000 -465.418000 1 1.000000 1 -3.000000
302 2 -138.209000 -672.293000 -467.528000 1 1.000000 1 -3.000000
303 2 -146.064000 -677.846000 -469.671000 1 1.000000 1 -3.000000
304 2 -153.249000 -684.026000 -472.441000 1 1.000000 1 -3.000000
305 2 -159.597000 -690.352000 -476.736000 1 1.000000 1 -3.000000
306 2 -165.884000 -696.732000 -480.963000 1 1.000000 1 -3.000000
307 2 -174.436000 -701.037000 -483.418000 1 1.000000 1 -3.000000
308 2 -183.469000 -704.907000 -484.204000 1 1.000000 1 -3.000000
309 2 -192.805000 -707.836000 -485.625000 1 1.000000 1 -3.000000
310 2 -202.562000 -709.841000 -485.714000 1 1.000000 1 -3.000000
311 2 -212.165000 -712.093000 -485.957000 1 1.000000 1 -3.000000
312 2 -221.796000 -713.441000 -484.070000 1 1.000000 1 -3.000000
313 2 -231.182000 -715.765000 -482.235000 1 1.000000 1 -3.000000
314 2 -240.161000 -718.716000 -479.352000 1 1.000000 1 -3.000000
315 2 -248.323000 -721.654000 -474.693000 1 1.000000 1 -3.000000
316 2 -255.214000 -724.641000 -468.304000 1 1.000000 1 -3.000000
317 2 -261.170000 -727.908000 -461.202000 1 1.000000 1 -3.000000
318 2 -266.804000 -732.441000 -454.370000 1 1.000000 13 -3.000000
319 1 -237.922000 -739.705000 -417.731000 1 1.000000 13 0.000000
320 3 -219.378000 -718.301000 -438.449000 1 1.000000 13 0.000000
321 2 -197.638000 -733.644000 -393.935000 1 1.000000 13 -3.000000
322 2 -194.019000 -725.041000 -397.190000 1 1.000000 1 -3.000000
323 2 -192.576000 -715.749000 -400.433000 1 1.000000 1 -3.000000
324 2 -191.710000 -707.231000 -405.414000 1 1.000000 1 -3.000000
325 2 -192.122000 -698.971000 -410.801000 1 1.000000 1 -3.000000
326 2 -192.706000 -689.926000 -414.834000 1 1.000000 1 -3.000000
327 2 -190.412000 -681.296000 -419.149000 1 1.000000 1 -3.000000
328 2 -185.862000 -673.262000 -422.731000 1 1.000000 1 -3.000000
329 2 -182.077000 -665.508000 -427.563000 1 1.000000 1 -3.000000
330 2 -179.627000 -657.113000 -432.283000 1 1.000000 1 -3.000000
331 2 -175.704000 -648.743000 -435.941000 1 1.000000 1 -3.000000
332 2 -171.419000 -641.428000 -440.972000 1 1.000000 1 -3.000000
333 2 -166.385000 -635.350000 -446.902000 1 1.000000 1 -3.000000
334 2 -162.890000 -627.222000 -451.336000 1 1.000000 1 -3.000000
335 2 -160.516000 -619.014000 -456.284000 1 1.000000 1 -3.000000
336 2 -157.323000 -611.523000 -462.085000 1 1.000000 1 -3.000000
337 2 -152.569000 -605.068000 -467.930000 1 1.000000 1 -3.000000
338 2 -145.560000 -599.802000 -472.509000 1 1.000000 1 -3.000000
339 2 -138.268000 -595.443000 -477.437000 1 1.000000 1 -3.000000
340 2 -132.202000 -591.706000 -484.391000 1 1.000000 1 -3.000000
341 2 -125.544000 -590.417000 -491.613000 1 1.000000 1 -3.000000
342 2 -119.313000 -593.187000 -498.799000 1 1.000000 1 -3.000000
343 2 -112.786000 -597.777000 -504.675000 1 1.000000 1 -3.000000
344 2 -106.572000 -602.531000 -510.642000 1 1.000000 1 -3.000000
345 2 -100.552000 -607.267000 -516.798000 1 1.000000 14 -3.000000
346 1 -68.178700 -617.795000 -484.164000 1 1.000000 14 0.000000
347 3 -95.663000 -607.275000 -465.057000 1 1.000000 14 0.000000
348 2 -53.811400 -624.555000 -439.721000 1 1.000000 14 -3.000000
349 2 -61.272700 -622.343000 -433.553000 1 1.000000 1 -3.000000
350 2 -67.968200 -618.271000 -427.528000 1 1.000000 1 -3.000000
351 2 -76.640500 -614.995000 -423.912000 1 1.000000 1 -3.000000
352 2 -85.837700 -611.995000 -422.191000 1 1.000000 1 -3.000000
353 2 -95.694000 -611.410000 -421.065000 1 1.000000 1 -3.000000
354 2 -105.364000 -609.463000 -421.538000 1 1.000000 1 -3.000000
355 2 -114.997000 -607.536000 -422.809000 1 1.000000 1 -3.000000
356 2 -124.592000 -605.423000 -423.228000 1 1.000000 1 -3.000000
357 2 -133.763000 -603.031000 -426.069000 1 1.000000 1 -3.000000
358 2 -143.057000 -600.833000 -428.392000 1 1.000000 1 -3.000000
359 2 -152.078000 -598.043000 -431.499000 1 1.000000 1 -3.000000
360 2 -161.484000 -597.235000 -434.536000 1 1.000000 1 -3.000000
361 2 -170.537000 -593.447000 -436.006000 1 1.000000 1 -3.000000
362 2 -178.668000 -588.541000 -438.986000 1 1.000000 1 -3.000000
363 2 -185.694000 -582.029000 -441.523000 1 1.000000 1 -3.000000
364 2 -192.579000 -575.460000 -444.331000 1 1.000000 1 -3.000000
365 2 -200.941000 -570.508000 -446.169000 1 1.000000 1 -3.000000
366 2 -208.542000 -564.350000 -447.588000 1 1.000000 1 -3.000000
367 2 -215.488000 -557.240000 -447.914000 1 1.000000 1 -3.000000
368 2 -221.550000 -549.527000 -446.810000 1 1.000000 1 -3.000000
369 2 -229.002000 -543.909000 -443.508000 1 1.000000 1 -3.000000
370 2 -237.450000 -539.114000 -441.407000 1 1.000000 1 -3.000000
371 2 -246.633000 -537.119000 -438.384000 1 1.000000 1 -3.000000
372 2 -256.038000 -534.803000 -436.628000 1 1.000000 15 -3.000000
373 1 -265.916000 -566.152000 -402.802000 1 1.000000 15 0.000000
374 3 -231.446000 -569.976000 -407.496000 1 1.000000 15 0.000000
375 2 -254.901000 -602.114000 -374.173000 1 1.000000 15 -3.000000
376 2 -245.095000 -601.253000 -372.767000 1 1.000000 1 -3.000000
377 2 -235.215000 -602.062000 -372.646000 1 1.000000 1 -3.000000
378 2 -225.785000 -599.084000 -372.512000 1 1.000000 1 -3.000000
379 2 -216.936000 -594.695000 -373.635000 1 1.000000 1 -3.000000
380 2 -208.471000 -590.454000 -376.470000 1 1.000000 1 -3.000000
381 2 -201.102000 -584.645000 -379.514000 1 1.000000 1 -3.000000
382 2 -194.920000 -578.130000 -383.582000 1 1.000000 1 -3.000000
383 2 -187.178000 -573.167000 -387.235000 1 1.000000 1 -3.000000
384 2 -178.487000 -568.465000 -388.630000 1 1.000000 1 -3.000000
385 2 -169.884000 -563.902000 -390.475000 1 1.000000 1 -3.000000
386 2 -160.754000 -560.335000 -390.366000 1 1.000000 1 -3.000000
387 2 -152.295000 -555.161000 -390.121000 1 1.000000 1 -3.000000
388 2 -143.342000 -550.939000 -390.346000 1 1.000000 1 -3.000000
389 2 -133.820000 -548.073000 -390.138000 1 1.000000 1 -3.000000
390 2 -124.464000 -544.930000 -389.358000 1 1.000000 1 -3.000000
391 2 -114.552000 -543.797000 -389.659000 1 1.000000 1 -3.000000
392 2 -104.955000 -543.839000 -391.767000 1 1.000000 1 -3.000000
393 2 -95.918200 -545.957000 -394.928000 1 1.000000 1 -3.000000
394 2 -88.000700 -547.143000 -400.766000 1 1.000000 1 -3.000000
395 2 -82.061000 -548.092000 -408.656000 1 1.000000 1 -3.000000
396 2 -78.081900 -547.500000 -417.635000 1 1.000000 1 -3.000000
397 2 -74.506000 -545.501000 -426.614000 1 1.000000 1 -3.000000
398 2 -70.913500 -543.709000 -435.738000 1 1.000000 1 -3.000000
399 2 -66.883900 -544.373000 -444.765000 1 1.000000 16 -3.000000
400 1 -107.267000 -531.820000 -465.731000 1 1.000000 16 0.000000
401 3 -113.275000 -525.115000 -431.878000 1 1.000000 16 0.000000
402 2 -152.251000 -517.596000 -465.463000 1 1.000000 16 -3.000000
403 2 -150.830000 -511.501000 -457.704000 1 1.000000 1 -3.000000
404 2 -148.972000 -505.984000 -449.694000 1 1.000000 1 -3.000000
405 2 -148.317000 -499.850000 -441.856000 1 1.000000 1 -3.000000
406 2 -145.901000 -495.174000 -433.462000 1 1.000000 1 -3.000000
407 2 -142.324000 -491.364000 -424.956000 1 1.000000 1 -3.000000
408 2 -137.941000 -488.468000 -416.674000 1 1.000000 1 -3.000000
409 2 -135.066000 -486.709000 -407.256000 1 1.000000 1 -3.000000
410 2 -132.149000 -484.512000 -398.085000 1 1.000000 1 -3.000000
411 2 -130.411000 -481.738000 -388.774000 1 1.000000 1 -3.000000
412 2 -128.629000 -479.226000 -379.306000 1 1.000000 1 -3.000000
413 2 -126.450000 -476.241000 -370.106000 1 1.000000 1 -3.000000
414 2 -124.987000 -475.376000 -360.354000 1 1.000000 1 -3.000000
415 2 -119.931000 -473.214000 -352.134000 1 1.000000 1 -3.000000
416 2 -114.426000 -467.705000 -345.959000 1 1.000000 1 -3.000000
417 2 -108.688000 -461.209000 -341.146000 1 1.000000 1 -3.000000
418 2 -101.692000 -454.382000 -339.174000 1 1.000000 1 -3.000000
419 2 -94.252000 -447.967000 -338.296000 1 1.000000 1 -3.000000
420 2 -86.289000 -441.996000 -337.567000 1 1.000000 1 -3.000000
421 2 -78.082500 -436.518000 -336.263000 1 1.000000 1 -3.000000
422 2 -71.043300 -429.576000 -336.682000 1 1.000000 1 -3.000000
423 2 -64.007500 -423.412000 -339.738000 1 1.000000 1 -3.000000
424 2 -57.440300 -417.858000 -344.567000 1 1.000000 1 -3.000000
425 2 -51.359800 -413.302000 -350.929000 1 1.000000 1 -3.000000
426 2 -45.851900 -406.842000 -356.116000 1 1.000000 17 -3.000000
427 1 -51.303200 -425.472000 -399.145000 1 1.000000 17 0.000000
428 3 -77.901800 -439.349000 -380.983000 1 1.000000 17 0.000000
429 2 -72.426400 -453.643000 -430.551000 1 1.000000 17 -3.000000
430 2 -76.543800 -457.551000 -422.455000 1 1.000000 1 -3.000000
431 2 -79.894500 -460.152000 -413.550000 1 1.000000 1 -3.000000
432 2 -81.380800 -463.722000 -404.449000 1 1.000000 1 -3.000000
433 2 -81.058700 -466.332000 -394.894000 1 1.000000 1 -3.000000
434 2 -80.080100 -471.632000 -386.554000 1 1.000000 1 -3.000000
435 2 -76.959100 -476.445000 -378.520000 1 1.000000 1 -3.000000
436 2 -73.019500 -479.141000 -369.895000 1 1.000000 1 -3.000000
437 2 -68.820800 -479.438000 -360.890000 1 1.000000 1 -3.000000
438 2 -64.772400 -480.259000 -351.932000 1 1.000000 1 -3.000000
439 2 -61.143200 -484.696000 -343.869000 1 1.000000 1 -3.000000
440 2 -57.542800 -489.457000 -335.965000 1 1.000000 1 -3.000000
441 2 -53.370800 -492.332000 -327.422000 1 1.000000 1 -3.000000
442 2 -49.360300 -495.345000 -318.899000 1 1.000000 1 -3.000000
443 2 -45.790200 -498.455000 -310.196000 1 1.000000 1 -3.000000
444 2 -41.237200 -500.566000 -301.657000 1 1.000000 1 -3.000000
445 2 -36.071100 -503.403000 -293.672000 1 1.000000 1 -3.000000
446 2 -31.443700 -506.198000 -285.467000 1 1.000000 1 -3.000000
447 2 -25.667800 -509.444000 -278.199000 1 1.000000 1 -3.000000
448 2 -18.841000 -512.328000 -271.617000 1 1.000000 1 -3.000000
449 2 -12.699900 -516.118000 -264.889000 1 1.000000 1 -3.000000
450 2 -5.820460 -517.831000 -258.040000 1 1.000000 1 -3.000000
451 2 0.920123 -517.362000 -250.714000 1 1.000000 1 -3.000000
452 2 7.408070 -516.036000 -243.368000 1 1.000000 1 -3.000000
453 2 12.446200 -516.092000 -234.743000 1 1.000000 18 -3.000000
454 1 22.142700 -469.953000 -235.859000 1 1.000000 18 0.000000
455 3 -0.715705 -473.904000 -262.024000 1 1.000000 18 0.000000
456 2 17.702100 -426.259000 -253.053000 1 1.000000 18 -3.000000
457 2 9.125150 -427.468000 -257.943000 1 1.000000 1 -3.000000
458 2 0.394404 -427.992000 -262.510000 1 1.000000 1 -3.000000
459 2 -8.681380 -427.990000 -266.344000 1 1.000000 1 -3.000000
460 2 -17.473300 -431.495000 -269.488000 1 1.000000 1 -3.000000