LAMMPS data file

4067 atoms
4067 ellipsoids
4516 bonds
8882 angles
0 dihedrals

3 atom types
5 bond types
12 angle types
0 dihedral types

-4631.092947 4670.465898 xlo xhi
-4631.092947 4670.465898 ylo yhi
-4631.092947 4670.465898 zlo zhi

Masses

1 196016.000000
2 1950.000000
3 19500.000000

Atoms

1 2 144.228000 -118.885000 -427.772000 1 1.000000 1 -3.000000
2 2 144.769000 -110.142000 -422.984000 1 1.000000 1 -3.000000
3 2 145.824000 -102.274000 -417.230000 1 1.000000 1 -3.000000
4 2 146.111000 -94.300600 -411.308000 1 1.000000 1 -3.000000
5 2 145.972000 -86.650300 -405.008000 1 1.000000 1 -3.000000
6 2 145.959000 -78.848000 -398.936000 1 1.000000 1 -3.000000
7 2 145.975000 -71.376100 -392.536000 1 1.000000 1 -3.000000
8 2 147.145000 -63.854700 -386.173000 1 1.000000 1 -3.000000
9 2 149.571000 -55.606700 -381.448000 1 1.000000 1 -3.000000
10 2 149.800000 -46.830200 -376.821000 1 1.000000 1 -3.000000
11 2 148.369000 -37.467400 -373.956000 1 1.000000 1 -3.000000
12 2 146.489000 -28.179900 -371.131000 1 1.000000 1 -3.000000
13 2 142.094000 -19.843800 -368.198000 1 1.000000 1 -3.000000
14 2 138.436000 -11.406900 -364.631000 1 1.000000 1 -3.000000
15 2 133.324000 -3.999240 -360.285000 1 1.000000 1 -3.000000
16 2 127.656000 3.165010 -356.505000 1 1.000000 1 -3.000000
17 2 125.097000 11.887200 -352.577000 1 1.000000 1 -3.000000
18 2 124.002000 21.103700 -348.933000 1 1.000000 1 -3.000000
19 2 124.803000 27.479000 -341.440000 1 1.000000 1 -3.000000
20 2 124.055000 33.663400 -333.754000 1 1.000000 1 -3.000000
21 2 121.727000 39.685700 -326.142000 1 1.000000 2 -3.000000
22 1 141.579000 14.782800 -291.304000 1 1.000000 2 0.000000
23 3 147.875000 -4.679190 -319.623000 1 1.000000 2 0.000000
24 2 163.203000 -23.310100 -273.686000 1 1.000000 2 -3.000000
25 2 165.703000 -27.405500 -282.297000 1 1.000000 1 -3.000000
26 2 169.499000 -31.291200 -290.635000 1 1.000000 1 -3.000000
27 2 172.801000 -34.287200 -299.513000 1 1.000000 1 -3.000000
28 2 177.273000 -35.162600 -308.243000 1 1.000000 1 -3.000000
29 2 179.723000 -35.806800 -317.827000 1 1.000000 1 -3.000000
30 2 179.129000 -34.621100 -327.557000 1 1.000000 1 -3.000000
31 2 178.820000 -32.817000 -337.326000 1 1.000000 1 -3.000000
32 2 179.298000 -28.203800 -346.046000 1 1.000000 1 -3.000000
33 2 177.408000 -23.726500 -354.642000 1 1.000000 1 -3.000000
34 2 176.017000 -21.012300 -363.978000 1 1.000000 1 -3.000000
35 2 174.450000 -17.068500 -372.934000 1 1.000000 1 -3.000000
36 2 172.253000 -13.555300 -381.916000 1 1.000000 1 -3.000000
37 2 167.966000 -8.957150 -389.536000 1 1.000000 1 -3.000000
38 2 161.527000 -5.260890 -396.018000 1 1.000000 1 -3.000000
39 2 154.377000 -1.571860 -401.839000 1 1.000000 1 -3.000000
40 2 147.233000 1.224930 -408.203000 1 1.000000 1 -3.000000
41 2 139.617000 3.217010 -414.197000 1 1.000000 1 -3.000000
42 2 135.261000 6.778530 -422.295000 1 1.000000 1 -3.000000
43 2 130.495000 8.560610 -430.790000 1 1.000000 1 -3.000000
44 2 126.841000 12.165700 -439.356000 1 1.000000 1 -3.000000
45 2 122.917000 17.605000 -446.674000 1 1.000000 1 -3.000000
46 2 119.502000 24.288700 -453.054000 1 1.000000 1 -3.000000
47 2 117.597000 31.177800 -459.898000 1 1.000000 1 -3.000000
48 2 115.094000 37.864700 -466.780000 1 1.000000 3 -3.000000
49 1 120.565000 75.553000 -438.825000 1 1.000000 3 0.000000
50 3 139.155000 50.812900 -422.548000 1 1.000000 3 0.000000
51 2 141.545000 99.041700 -403.665000 1 1.000000 3 -3.000000
52 2 148.300000 92.441400 -401.048000 1 1.000000 1 -3.000000
53 2 154.562000 85.298800 -398.435000 1 1.000000 1 -3.000000
54 2 161.265000 79.043000 -394.650000 1 1.000000 1 -3.000000
55 2 166.779000 71.041100 -392.758000 1 1.000000 1 -3.000000
56 2 172.430000 63.010300 -391.722000 1 1.000000 1 -3.000000
57 2 176.652000 54.072700 -390.795000 1 1.000000 1 -3.000000
58 2 180.134000 44.760900 -390.615000 1 1.000000 1 -3.000000
59 2 182.594000 35.316700 -389.770000 1 1.000000 1 -3.000000
60 2 184.941000 25.730900 -389.782000 1 1.000000 1 -3.000000
61 2 187.684000 16.446300 -387.769000 1 1.000000 1 -3.000000
62 2 191.997000 7.786640 -385.487000 1 1.000000 1 -3.000000
63 2 194.736000 -1.671980 -384.611000 1 1.000000 1 -3.000000
64 2 199.257000 -10.450700 -384.112000 1 1.000000 1 -3.000000
65 2 201.804000 -19.995300 -383.561000 1 1.000000 1 -3.000000
66 2 205.196000 -29.234500 -383.835000 1 1.000000 1 -3.000000
67 2 207.897000 -38.754900 -383.565000 1 1.000000 1 -3.000000
68 2 208.675000 -48.675600 -383.010000 1 1.000000 1 -3.000000
69 2 211.743000 -57.959800 -384.550000 1 1.000000 1 -3.000000
70 2 216.553000 -66.317100 -386.668000 1 1.000000 1 -3.000000
71 2 220.192000 -74.153500 -391.418000 1 1.000000 1 -3.000000
72 2 224.886000 -80.782400 -396.991000 1 1.000000 1 -3.000000
73 2 230.664000 -85.563500 -403.495000 1 1.000000 1 -3.000000
74 2 235.457000 -90.635500 -410.505000 1 1.000000 1 -3.000000
75 2 240.506000 -95.051500 -417.849000 1 1.000000 4 -3.000000
76 1 249.127000 -59.839600 -448.056000 1 1.000000 4 0.000000
77 3 240.338000 -43.136500 -418.625000 1 1.000000 4 0.000000
78 2 254.566000 -14.289800 -459.339000 1 1.000000 4 -3.000000
79 2 257.760000 -10.886800 -450.547000 1 1.000000 1 -3.000000
80 2 259.759000 -8.154880 -441.197000 1 1.000000 1 -3.000000
81 2 260.839000 -5.415760 -431.648000 1 1.000000 1 -3.000000
82 2 261.085000 -3.717110 -421.861000 1 1.000000 1 -3.000000
83 2 260.687000 -2.864460 -412.038000 1 1.000000 1 -3.000000
84 2 258.890000 -3.401670 -402.428000 1 1.000000 1 -3.000000
85 2 257.586000 -4.513480 -392.709000 1 1.000000 1 -3.000000
86 2 256.552000 -4.109600 -382.908000 1 1.000000 1 -3.000000
87 2 255.266000 -5.324200 -373.164000 1 1.000000 1 -3.000000
88 2 253.847000 -6.891960 -363.517000 1 1.000000 1 -3.000000
89 2 252.285000 -7.096140 -353.701000 1 1.000000 1 -3.000000
90 2 250.774000 -7.936120 -343.901000 1 1.000000 1 -3.000000
91 2 247.362000 -7.539120 -334.662000 1 1.000000 1 -3.000000
92 2 242.509000 -6.496230 -326.012000 1 1.000000 1 -3.000000
93 2 236.262000 -5.459700 -318.325000 1 1.000000 1 -3.000000
94 2 230.430000 -6.828200 -310.424000 1 1.000000 1 -3.000000
95 2 225.704000 -9.882130 -302.323000 1 1.000000 1 -3.000000
96 2 220.961000 -10.489800 -293.647000 1 1.000000 1 -3.000000
97 2 216.078000 -11.801600 -285.071000 1 1.000000 1 -3.000000
98 2 211.407000 -16.957700 -278.025000 1 1.000000 1 -3.000000
99 2 206.963000 -24.578400 -273.779000 1 1.000000 1 -3.000000
100 2 200.795000 -31.812600 -271.054000 1 1.000000 1 -3.000000
101 2 195.362000 -40.071100 -270.242000 1 1.000000 1 -3.000000
102 2 189.520000 -47.589000 -267.646000 1 1.000000 5 -3.000000
103 1 213.742000 -81.740400 -289.393000 1 1.000000 5 0.000000
104 3 232.257000 -53.017600 -296.575000 1 1.000000 5 0.000000
105 2 250.510000 -98.540400 -313.732000 1 1.000000 5 -3.000000
106 2 256.713000 -91.592900 -310.103000 1 1.000000 1 -3.000000
107 2 262.031000 -84.834900 -305.282000 1 1.000000 1 -3.000000
108 2 267.699000 -77.420100 -301.926000 1 1.000000 1 -3.000000
109 2 272.749000 -69.337000 -299.270000 1 1.000000 1 -3.000000
110 2 276.201000 -60.446600 -296.580000 1 1.000000 1 -3.000000
111 2 280.892000 -52.098300 -293.915000 1 1.000000 1 -3.000000
112 2 286.057000 -43.848400 -292.201000 1 1.000000 1 -3.000000
113 2 290.693000 -35.149600 -293.233000 1 1.000000 1 -3.000000
114 2 295.132000 -26.799400 -296.165000 1 1.000000 1 -3.000000
115 2 298.703000 -18.113200 -299.368000 1 1.000000 1 -3.000000
116 2 300.745000 -9.042460 -302.411000 1 1.000000 1 -3.000000
117 2 301.395000 0.017013 -306.280000 1 1.000000 1 -3.000000
118 2 302.295000 8.602600 -310.994000 1 1.000000 1 -3.000000
119 2 305.646000 16.410000 -316.043000 1 1.000000 1 -3.000000
120 2 311.637000 23.166100 -319.986000 1 1.000000 1 -3.000000
121 2 318.244000 28.136400 -325.416000 1 1.000000 1 -3.000000
122 2 323.777000 32.138200 -332.602000 1 1.000000 1 -3.000000
123 2 329.134000 34.952700 -340.449000 1 1.000000 1 -3.000000
124 2 336.421000 36.446800 -346.835000 1 1.000000 1 -3.000000
125 2 344.025000 35.164600 -353.039000 1 1.000000 1 -3.000000
126 2 351.938000 33.029200 -358.578000 1 1.000000 1 -3.000000
127 2 359.154000 29.343500 -364.248000 1 1.000000 1 -3.000000
128 2 365.914000 26.437200 -370.891000 1 1.000000 1 -3.000000
129 2 372.077000 21.441800 -376.729000 1 1.000000 6 -3.000000
130 1 359.241000 -23.747200 -372.267000 1 1.000000 6 0.000000
131 3 333.847000 -6.604800 -355.527000 1 1.000000 6 0.000000
132 2 331.994000 -58.383700 -355.341000 1 1.000000 6 -3.000000
133 2 325.619000 -51.978400 -351.381000 1 1.000000 1 -3.000000
134 2 318.101000 -47.486500 -347.056000 1 1.000000 1 -3.000000
135 2 309.393000 -42.904500 -345.403000 1 1.000000 1 -3.000000
136 2 302.018000 -36.371100 -344.992000 1 1.000000 1 -3.000000
137 2 297.321000 -27.682000 -345.179000 1 1.000000 1 -3.000000
138 2 292.243000 -19.255400 -344.120000 1 1.000000 1 -3.000000
139 2 287.169000 -10.751900 -344.980000 1 1.000000 1 -3.000000
140 2 282.093000 -2.423330 -346.715000 1 1.000000 1 -3.000000
141 2 277.768000 6.335120 -345.562000 1 1.000000 1 -3.000000
142 2 276.352000 15.687200 -348.782000 1 1.000000 1 -3.000000
143 2 275.622000 24.930500 -352.369000 1 1.000000 1 -3.000000
144 2 275.560000 33.463800 -357.406000 1 1.000000 1 -3.000000
145 2 276.160000 41.216200 -363.565000 1 1.000000 1 -3.000000
146 2 275.425000 50.264500 -367.562000 1 1.000000 1 -3.000000
147 2 275.595000 58.992800 -372.308000 1 1.000000 1 -3.000000
148 2 275.302000 68.152900 -376.029000 1 1.000000 1 -3.000000
149 2 276.850000 77.529000 -378.942000 1 1.000000 1 -3.000000
150 2 279.615000 86.640300 -381.739000 1 1.000000 1 -3.000000
151 2 282.317000 95.975200 -383.763000 1 1.000000 1 -3.000000
152 2 283.434000 105.549000 -386.116000 1 1.000000 1 -3.000000
153 2 281.826000 114.495000 -390.079000 1 1.000000 1 -3.000000
154 2 279.821000 122.650000 -395.173000 1 1.000000 1 -3.000000
155 2 276.228000 131.173000 -398.719000 1 1.000000 1 -3.000000
156 2 271.891000 138.947000 -402.818000 1 1.000000 7 -3.000000
157 1 232.483000 122.667000 -422.919000 1 1.000000 7 0.000000
158 3 242.768000 96.006800 -402.767000 1 1.000000 7 0.000000
159 2 200.119000 89.530900 -431.809000 1 1.000000 7 -3.000000
160 2 203.343000 82.528900 -425.611000 1 1.000000 1 -3.000000
161 2 205.402000 75.735700 -418.767000 1 1.000000 1 -3.000000
162 2 207.898000 69.285900 -411.747000 1 1.000000 1 -3.000000
163 2 212.789000 62.677200 -406.291000 1 1.000000 1 -3.000000
164 2 218.222000 58.104400 -399.402000 1 1.000000 1 -3.000000
165 2 224.939000 54.778600 -392.998000 1 1.000000 1 -3.000000
166 2 229.667000 50.922300 -385.187000 1 1.000000 1 -3.000000
167 2 231.751000 47.781600 -376.040000 1 1.000000 1 -3.000000
168 2 233.401000 43.625100 -367.128000 1 1.000000 1 -3.000000
169 2 234.888000 42.488000 -357.401000 1 1.000000 1 -3.000000
170 2 235.769000 40.899100 -347.598000 1 1.000000 1 -3.000000
171 2 236.154000 38.510700 -338.053000 1 1.000000 1 -3.000000
172 2 239.280000 37.862200 -328.722000 1 1.000000 1 -3.000000
173 2 244.411000 39.213700 -320.342000 1 1.000000 1 -3.000000
174 2 249.573000 41.205500 -312.070000 1 1.000000 1 -3.000000
175 2 253.214000 43.772800 -303.309000 1 1.000000 1 -3.000000
176 2 257.288000 47.988900 -295.289000 1 1.000000 1 -3.000000
177 2 259.300000 53.143400 -287.073000 1 1.000000 1 -3.000000
178 2 260.674000 60.783800 -280.998000 1 1.000000 1 -3.000000
179 2 259.008000 67.492400 -273.829000 1 1.000000 1 -3.000000
180 2 256.775000 75.058000 -267.866000 1 1.000000 1 -3.000000
181 2 255.699000 82.416800 -261.318000 1 1.000000 1 -3.000000
182 2 251.379000 89.147900 -255.579000 1 1.000000 1 -3.000000
183 2 245.938000 95.630700 -250.646000 1 1.000000 8 -3.000000
184 1 211.190000 67.543600 -235.690000 1 1.000000 8 0.000000
185 3 235.743000 44.888800 -246.019000 1 1.000000 8 0.000000
186 2 191.643000 25.574900 -226.579000 1 1.000000 8 -3.000000
187 2 199.110000 19.762400 -229.425000 1 1.000000 1 -3.000000
188 2 207.905000 15.529600 -230.631000 1 1.000000 1 -3.000000
189 2 215.861000 10.033700 -232.876000 1 1.000000 1 -3.000000
190 2 224.797000 5.994930 -232.401000 1 1.000000 1 -3.000000
191 2 232.583000 0.087566 -233.674000 1 1.000000 1 -3.000000
192 2 240.443000 -5.501130 -236.002000 1 1.000000 1 -3.000000
193 2 248.487000 -11.267900 -237.201000 1 1.000000 1 -3.000000
194 2 256.437000 -16.964200 -238.515000 1 1.000000 1 -3.000000
195 2 265.669000 -20.523700 -237.379000 1 1.000000 1 -3.000000
196 2 274.664000 -24.462600 -235.925000 1 1.000000 1 -3.000000
197 2 282.825000 -29.225800 -232.973000 1 1.000000 1 -3.000000
198 2 290.649000 -34.531400 -229.995000 1 1.000000 1 -3.000000
199 2 299.304000 -39.172800 -229.017000 1 1.000000 1 -3.000000
200 2 309.102000 -40.057300 -228.968000 1 1.000000 1 -3.000000
201 2 318.948000 -40.905200 -228.748000 1 1.000000 1 -3.000000
202 2 328.798000 -40.213100 -228.286000 1 1.000000 1 -3.000000
203 2 338.653000 -40.042100 -229.531000 1 1.000000 1 -3.000000
204 2 348.044000 -37.729700 -231.799000 1 1.000000 1 -3.000000
205 2 357.272000 -36.160500 -235.150000 1 1.000000 1 -3.000000
206 2 365.015000 -35.633700 -241.276000 1 1.000000 1 -3.000000
207 2 372.675000 -32.443100 -246.640000 1 1.000000 1 -3.000000
208 2 381.450000 -30.196000 -250.755000 1 1.000000 1 -3.000000
209 2 389.310000 -26.299700 -255.281000 1 1.000000 1 -3.000000
210 2 395.209000 -23.314000 -262.636000 1 1.000000 9 -3.000000
211 1 378.815000 -59.283100 -288.319000 1 1.000000 9 0.000000
212 3 385.523000 -74.018200 -257.369000 1 1.000000 9 0.000000
213 2 365.838000 -104.158000 -294.777000 1 1.000000 9 -3.000000
214 2 364.310000 -106.322000 -285.256000 1 1.000000 1 -3.000000
215 2 362.679000 -108.471000 -275.666000 1 1.000000 1 -3.000000
216 2 360.661000 -110.095000 -266.103000 1 1.000000 1 -3.000000
217 2 360.208000 -110.272000 -256.202000 1 1.000000 1 -3.000000
218 2 360.950000 -108.419000 -246.467000 1 1.000000 1 -3.000000
219 2 363.333000 -105.033000 -237.511000 1 1.000000 1 -3.000000
220 2 365.901000 -101.965000 -228.481000 1 1.000000 1 -3.000000
221 2 369.324000 -99.925500 -219.337000 1 1.000000 1 -3.000000
222 2 372.471000 -98.389400 -210.050000 1 1.000000 1 -3.000000
223 2 376.542000 -96.396600 -201.203000 1 1.000000 1 -3.000000
224 2 379.186000 -96.095300 -191.657000 1 1.000000 1 -3.000000
225 2 379.490000 -98.168500 -181.999000 1 1.000000 1 -3.000000
226 2 378.506000 -100.258000 -172.418000 1 1.000000 1 -3.000000
227 2 377.755000 -101.169000 -162.544000 1 1.000000 1 -3.000000
228 2 374.033000 -101.976000 -153.475000 1 1.000000 1 -3.000000
229 2 370.189000 -105.222000 -144.908000 1 1.000000 1 -3.000000
230 2 364.251000 -106.124000 -137.069000 1 1.000000 1 -3.000000
231 2 357.346000 -105.642000 -130.029000 1 1.000000 1 -3.000000
232 2 352.230000 -104.045000 -121.680000 1 1.000000 1 -3.000000
233 2 349.626000 -99.925200 -113.115000 1 1.000000 1 -3.000000
234 2 348.212000 -98.168600 -103.441000 1 1.000000 1 -3.000000
235 2 349.440000 -97.061000 -93.691700 1 1.000000 1 -3.000000
236 2 348.815000 -96.492100 -83.952900 1 1.000000 1 -3.000000
237 2 348.847000 -96.735100 -74.062600 1 1.000000 10 -3.000000
238 1 375.861000 -134.577000 -66.178100 1 1.000000 10 0.000000
239 3 384.210000 -125.530000 -98.964000 1 1.000000 10 0.000000
240 2 408.187000 -166.658000 -78.501500 1 1.000000 10 -3.000000
241 2 411.406000 -161.433000 -86.245700 1 1.000000 1 -3.000000
242 2 415.675000 -155.838000 -93.191700 1 1.000000 1 -3.000000
243 2 420.564000 -151.220000 -100.442000 1 1.000000 1 -3.000000
244 2 424.008000 -145.326000 -107.579000 1 1.000000 1 -3.000000
245 2 424.356000 -138.507000 -114.667000 1 1.000000 1 -3.000000
246 2 423.960000 -129.010000 -117.546000 1 1.000000 1 -3.000000
247 2 424.267000 -119.652000 -120.843000 1 1.000000 1 -3.000000
248 2 424.484000 -110.531000 -124.805000 1 1.000000 1 -3.000000
249 2 423.356000 -102.365000 -130.324000 1 1.000000 1 -3.000000
250 2 423.863000 -95.258800 -137.181000 1 1.000000 1 -3.000000
251 2 426.015000 -86.984900 -142.090000 1 1.000000 1 -3.000000
252 2 428.392000 -77.619800 -144.248000 1 1.000000 1 -3.000000
253 2 430.281000 -67.973700 -145.653000 1 1.000000 1 -3.000000
254 2 430.175000 -58.686200 -148.937000 1 1.000000 1 -3.000000
255 2 428.900000 -49.424000 -152.177000 1 1.000000 1 -3.000000
256 2 425.795000 -41.141600 -156.627000 1 1.000000 1 -3.000000
257 2 423.941000 -33.293800 -162.436000 1 1.000000 1 -3.000000
258 2 422.555000 -25.281000 -168.069000 1 1.000000 1 -3.000000
259 2 421.755000 -17.927000 -174.708000 1 1.000000 1 -3.000000
260 2 421.971000 -10.270100 -180.955000 1 1.000000 1 -3.000000
261 2 420.375000 -2.065300 -186.090000 1 1.000000 1 -3.000000
262 2 418.583000 6.230100 -191.302000 1 1.000000 1 -3.000000
263 2 417.010000 15.244800 -195.070000 1 1.000000 1 -3.000000
264 2 416.515000 24.719500 -198.065000 1 1.000000 11 -3.000000
265 1 406.538000 45.394100 -156.818000 1 1.000000 11 0.000000
266 3 422.957000 15.938300 -147.340000 1 1.000000 11 0.000000
267 2 407.024000 47.894400 -109.705000 1 1.000000 11 -3.000000
268 2 413.736000 41.062700 -107.424000 1 1.000000 1 -3.000000
269 2 421.181000 35.305700 -104.546000 1 1.000000 1 -3.000000
270 2 427.796000 27.968500 -103.924000 1 1.000000 1 -3.000000
271 2 433.442000 19.839700 -104.232000 1 1.000000 1 -3.000000
272 2 440.235000 13.479700 -107.762000 1 1.000000 1 -3.000000
273 2 446.691000 6.674650 -110.715000 1 1.000000 1 -3.000000
274 2 452.752000 1.288610 -116.438000 1 1.000000 1 -3.000000
275 2 458.382000 -3.962070 -122.757000 1 1.000000 1 -3.000000
276 2 464.099000 -10.499300 -127.613000 1 1.000000 1 -3.000000
277 2 470.927000 -16.588900 -131.578000 1 1.000000 1 -3.000000
278 2 476.588000 -21.405200 -138.035000 1 1.000000 1 -3.000000
279 2 482.721000 -26.870300 -143.520000 1 1.000000 1 -3.000000
280 2 488.585000 -32.849000 -148.726000 1 1.000000 1 -3.000000
281 2 495.054000 -38.750900 -153.464000 1 1.000000 1 -3.000000
282 2 500.204000 -44.297600 -159.884000 1 1.000000 1 -3.000000
283 2 507.162000 -48.869800 -165.304000 1 1.000000 1 -3.000000
284 2 514.848000 -51.335500 -170.883000 1 1.000000 1 -3.000000
285 2 521.535000 -55.458600 -176.911000 1 1.000000 1 -3.000000
286 2 526.486000 -60.678900 -183.767000 1 1.000000 1 -3.000000
287 2 531.745000 -64.181600 -191.271000 1 1.000000 1 -3.000000
288 2 539.532000 -64.846700 -197.459000 1 1.000000 1 -3.000000
289 2 548.355000 -65.630200 -201.894000 1 1.000000 1 -3.000000
290 2 556.115000 -65.931000 -208.062000 1 1.000000 1 -3.000000
291 2 563.941000 -66.637700 -214.180000 1 1.000000 12 -3.000000
292 1 535.771000 -61.583700 -251.726000 1 1.000000 12 0.000000
293 3 515.291000 -77.917800 -228.539000 1 1.000000 12 0.000000
294 2 495.724000 -68.504300 -275.652000 1 1.000000 12 -3.000000
295 2 489.606000 -71.368900 -268.368000 1 1.000000 1 -3.000000
296 2 483.448000 -72.944700 -260.709000 1 1.000000 1 -3.000000
297 2 477.561000 -73.553200 -252.821000 1 1.000000 1 -3.000000
298 2 473.766000 -75.299800 -243.815000 1 1.000000 1 -3.000000
299 2 470.977000 -75.996200 -234.290000 1 1.000000 1 -3.000000
300 2 471.270000 -76.375600 -224.361000 1 1.000000 1 -3.000000
301 2 472.529000 -75.638300 -214.555000 1 1.000000 1 -3.000000
302 2 473.807000 -79.020600 -205.252000 1 1.000000 1 -3.000000
303 2 472.835000 -82.960700 -196.210000 1 1.000000 1 -3.000000
304 2 471.495000 -87.279400 -187.449000 1 1.000000 1 -3.000000
305 2 469.164000 -89.396600 -178.074000 1 1.000000 1 -3.000000
306 2 466.939000 -92.749400 -168.901000 1 1.000000 1 -3.000000
307 2 466.913000 -96.614000 -159.823000 1 1.000000 1 -3.000000
308 2 468.350000 -99.681000 -150.552000 1 1.000000 1 -3.000000
309 2 467.711000 -103.353000 -141.332000 1 1.000000 1 -3.000000
310 2 466.573000 -109.655000 -133.834000 1 1.000000 1 -3.000000
311 2 467.561000 -116.442000 -126.624000 1 1.000000 1 -3.000000
312 2 468.582000 -122.750000 -119.059000 1 1.000000 1 -3.000000
313 2 468.160000 -130.259000 -112.634000 1 1.000000 1 -3.000000
314 2 466.851000 -138.152000 -106.854000 1 1.000000 1 -3.000000
315 2 464.460000 -146.371000 -101.865000 1 1.000000 1 -3.000000
316 2 461.734000 -155.223000 -98.328500 1 1.000000 1 -3.000000
317 2 460.024000 -164.959000 -97.381000 1 1.000000 1 -3.000000
318 2 455.870000 -173.517000 -94.504700 1 1.000000 13 -3.000000
319 1 417.700000 -176.457000 -122.160000 1 1.000000 13 0.000000
320 3 434.552000 -148.396000 -134.688000 1 1.000000 13 0.000000
321 2 388.810000 -160.801000 -156.076000 1 1.000000 13 -3.000000
322 2 395.564000 -155.172000 -160.575000 1 1.000000 1 -3.000000
323 2 402.576000 -151.966000 -166.766000 1 1.000000 1 -3.000000
324 2 410.865000 -147.674000 -170.137000 1 1.000000 1 -3.000000
325 2 418.617000 -142.552000 -173.484000 1 1.000000 1 -3.000000
326 2 427.124000 -138.277000 -176.303000 1 1.000000 1 -3.000000
327 2 436.125000 -134.507000 -177.259000 1 1.000000 1 -3.000000
328 2 445.757000 -132.361000 -177.958000 1 1.000000 1 -3.000000
329 2 455.354000 -131.501000 -180.552000 1 1.000000 1 -3.000000
330 2 464.675000 -129.868000 -183.260000 1 1.000000 1 -3.000000
331 2 473.777000 -127.961000 -186.346000 1 1.000000 1 -3.000000
332 2 482.336000 -124.120000 -189.335000 1 1.000000 1 -3.000000
333 2 491.106000 -120.930000 -192.670000 1 1.000000 1 -3.000000
334 2 500.513000 -118.390000 -194.673000 1 1.000000 1 -3.000000
335 2 509.195000 -114.902000 -197.775000 1 1.000000 1 -3.000000
336 2 518.179000 -111.335000 -199.748000 1 1.000000 1 -3.000000
337 2 527.701000 -108.458000 -199.704000 1 1.000000 1 -3.000000
338 2 537.007000 -104.946000 -199.632000 1 1.000000 1 -3.000000
339 2 545.675000 -100.778000 -201.776000 1 1.000000 1 -3.000000
340 2 554.276000 -96.084400 -201.789000 1 1.000000 1 -3.000000
341 2 564.148000 -94.732900 -201.907000 1 1.000000 1 -3.000000
342 2 573.748000 -92.630100 -200.796000 1 1.000000 1 -3.000000
343 2 583.517000 -91.143700 -199.799000 1 1.000000 1 -3.000000
344 2 593.408000 -90.487800 -199.578000 1 1.000000 1 -3.000000
345 2 603.039000 -92.296100 -198.395000 1 1.000000 14 -3.000000
346 1 609.001000 -138.637000 -191.799000 1 1.000000 14 0.000000
347 3 574.637000 -135.591000 -196.782000 1 1.000000 14 0.000000
348 2 593.910000 -183.344000 -190.358000 1 1.000000 14 -3.000000
349 2 584.630000 -181.391000 -193.318000 1 1.000000 1 -3.000000
350 2 576.079000 -181.422000 -198.176000 1 1.000000 1 -3.000000
351 2 568.010000 -178.915000 -203.325000 1 1.000000 1 -3.000000
352 2 559.922000 -175.214000 -207.712000 1 1.000000 1 -3.000000
353 2 553.187000 -171.215000 -213.759000 1 1.000000 1 -3.000000
354 2 546.241000 -167.827000 -220.047000 1 1.000000 1 -3.000000
355 2 539.589000 -163.375000 -225.876000 1 1.000000 1 -3.000000
356 2 532.889000 -158.744000 -231.750000 1 1.000000 1 -3.000000
357 2 526.836000 -152.945000 -236.981000 1 1.000000 1 -3.000000
358 2 521.188000 -148.191000 -243.566000 1 1.000000 1 -3.000000
359 2 517.007000 -141.028000 -248.904000 1 1.000000 1 -3.000000
360 2 512.614000 -135.493000 -255.713000 1 1.000000 1 -3.000000
361 2 510.445000 -127.767000 -261.589000 1 1.000000 1 -3.000000
362 2 508.082000 -119.706000 -266.850000 1 1.000000 1 -3.000000
363 2 503.671000 -111.769000 -270.925000 1 1.000000 1 -3.000000
364 2 498.647000 -103.927000 -274.314000 1 1.000000 1 -3.000000
365 2 494.661000 -95.577700 -277.692000 1 1.000000 1 -3.000000
366 2 494.572000 -87.183200 -283.011000 1 1.000000 1 -3.000000
367 2 495.705000 -78.686000 -287.948000 1 1.000000 1 -3.000000
368 2 497.787000 -70.547600 -293.096000 1 1.000000 1 -3.000000
369 2 501.936000 -62.674400 -297.557000 1 1.000000 1 -3.000000
370 2 504.802000 -54.142400 -301.740000 1 1.000000 1 -3.000000
371 2 505.215000 -45.528900 -306.587000 1 1.000000 1 -3.000000
372 2 504.875000 -36.324000 -310.062000 1 1.000000 15 -3.000000
373 1 459.491000 -31.281800 -321.956000 1 1.000000 15 0.000000
374 3 457.933000 -50.194400 -292.643000 1 1.000000 15 0.000000
375 2 413.194000 -37.696800 -315.710000 1 1.000000 15 -3.000000
376 2 413.391000 -39.856300 -306.023000 1 1.000000 1 -3.000000
377 2 413.762000 -40.822600 -296.153000 1 1.000000 1 -3.000000
378 2 415.555000 -40.846000 -286.430000 1 1.000000 1 -3.000000
379 2 417.129000 -41.584200 -276.642000 1 1.000000 1 -3.000000
380 2 419.625000 -44.279500 -267.365000 1 1.000000 1 -3.000000
381 2 421.943000 -46.211300 -257.968000 1 1.000000 1 -3.000000
382 2 422.300000 -48.931800 -248.400000 1 1.000000 1 -3.000000
383 2 420.894000 -52.728700 -239.286000 1 1.000000 1 -3.000000
384 2 417.377000 -56.300800 -230.771000 1 1.000000 1 -3.000000
385 2 413.959000 -60.768500 -222.663000 1 1.000000 1 -3.000000
386 2 410.046000 -65.121100 -214.681000 1 1.000000 1 -3.000000
387 2 405.038000 -67.696400 -206.561000 1 1.000000 1 -3.000000
388 2 398.308000 -68.846300 -199.427000 1 1.000000 1 -3.000000
389 2 392.804000 -67.404800 -191.281000 1 1.000000 1 -3.000000
390 2 387.945000 -66.105400 -182.683000 1 1.000000 1 -3.000000
391 2 381.547000 -65.797400 -175.063000 1 1.000000 1 -3.000000
392 2 376.087000 -65.076100 -166.819000 1 1.000000 1 -3.000000
393 2 370.817000 -64.466700 -158.471000 1 1.000000 1 -3.000000
394 2 365.754000 -63.600700 -149.923000 1 1.000000 1 -3.000000
395 2 360.449000 -61.635000 -141.736000 1 1.000000 1 -3.000000
396 2 356.981000 -62.032200 -132.434000 1 1.000000 1 -3.000000
397 2 353.551000 -61.784300 -123.195000 1 1.000000 1 -3.000000
398 2 350.968000 -59.908400 -113.748000 1 1.000000 1 -3.000000
399 2 346.800000 -58.443200 -104.889000 1 1.000000 16 -3.000000
400 1 388.054000 -62.091300 -82.286800 1 1.000000 16 0.000000
401 3 391.043000 -85.446300 -108.223000 1 1.000000 16 0.000000
402 2 430.118000 -81.875200 -74.135800 1 1.000000 16 -3.000000
403 2 427.175000 -90.444300 -78.044200 1 1.000000 1 -3.000000
404 2 423.706000 -99.716600 -78.019200 1 1.000000 1 -3.000000
405 2 421.883000 -109.159000 -75.580700 1 1.000000 1 -3.000000
406 2 421.611000 -118.235000 -71.721300 1 1.000000 1 -3.000000
407 2 422.216000 -127.651000 -68.596300 1 1.000000 1 -3.000000
408 2 421.268000 -137.080000 -65.445700 1 1.000000 1 -3.000000
409 2 420.023000 -146.763000 -63.905400 1 1.000000 1 -3.000000
410 2 418.811000 -155.481000 -59.612400 1 1.000000 1 -3.000000
411 2 417.603000 -164.659000 -56.030300 1 1.000000 1 -3.000000
412 2 416.512000 -173.375000 -51.466600 1 1.000000 1 -3.000000
413 2 414.016000 -181.565000 -46.427500 1 1.000000 1 -3.000000
414 2 412.253000 -188.911000 -40.011100 1 1.000000 1 -3.000000
415 2 410.370000 -195.361000 -32.687100 1 1.000000 1 -3.000000
416 2 408.378000 -202.031000 -25.591900 1 1.000000 1 -3.000000
417 2 407.412000 -208.313000 -18.073200 1 1.000000 1 -3.000000
418 2 407.986000 -215.514000 -11.311900 1 1.000000 1 -3.000000
419 2 409.150000 -223.367000 -5.474360 1 1.000000 1 -3.000000
420 2 410.534000 -229.506000 2.199420 1 1.000000 1 -3.000000
421 2 412.930000 -235.752000 9.476480 1 1.000000 1 -3.000000
422 2 416.579000 -241.397000 16.695900 1 1.000000 1 -3.000000
423 2 421.316000 -246.172000 24.003400 1 1.000000 1 -3.000000
424 2 425.965000 -251.776000 30.768400 1 1.000000 1 -3.000000
425 2 428.671000 -258.116000 37.924100 1 1.000000 1 -3.000000
426 2 431.445000 -263.054000 46.049500 1 1.000000 17 -3.000000
427 1 386.230000 -274.113000 53.628400 1 1.000000 17 0.000000
428 3 388.462000 -273.565000 18.789400 1 1.000000 17 0.000000
429 2 342.828000 -286.407000 39.807300 1 1.000000 17 -3.000000
430 2 345.146000 -290.716000 31.224000 1 1.000000 1 -3.000000
431 2 348.154000 -293.787000 22.339500 1 1.000000 1 -3.000000
432 2 352.674000 -298.972000 15.059600 1 1.000000 1 -3.000000
433 2 356.568000 -302.317000 6.634580 1 1.000000 1 -3.000000
434 2 361.278000 -304.695000 -1.663150 1 1.000000 1 -3.000000
435 2 366.012000 -308.270000 -9.635120 1 1.000000 1 -3.000000
436 2 370.813000 -313.002000 -16.852100 1 1.000000 1 -3.000000
437 2 376.718000 -316.761000 -23.810700 1 1.000000 1 -3.000000
438 2 383.357000 -321.323000 -29.633600 1 1.000000 1 -3.000000
439 2 390.156000 -326.951000 -34.270100 1 1.000000 1 -3.000000
440 2 394.971000 -334.252000 -38.773200 1 1.000000 1 -3.000000
441 2 399.660000 -341.573000 -43.512100 1 1.000000 1 -3.000000
442 2 404.906000 -349.276000 -46.813200 1 1.000000 1 -3.000000
443 2 411.739000 -355.855000 -49.655300 1 1.000000 1 -3.000000
444 2 418.775000 -362.761000 -50.450400 1 1.000000 1 -3.000000
445 2 426.142000 -369.031000 -51.976200 1 1.000000 1 -3.000000
446 2 434.587000 -374.152000 -52.184200 1 1.000000 1 -3.000000
447 2 442.664000 -379.460000 -54.167100 1 1.000000 1 -3.000000
448 2 451.423000 -383.949000 -54.928100 1 1.000000 1 -3.000000
449 2 460.094000 -388.407000 -56.393800 1 1.000000 1 -3.000000
450 2 467.593000 -394.078000 -59.430500 1 1.000000 1 -3.000000
451 2 474.589000 -400.976000 -60.703300 1 1.000000 1 -3.000000
452 2 481.503000 -408.186000 -60.838700 1 1.000000 1 -3.000000
453 2 489.615000 -413.800000 -61.053700 1 1.000000 18 -3.000000
454 1 499.667000 -412.513000 -15.032500 1 1.000000 18 0.000000
455 3 465.402000 -405.249000 -15.898800 1 1.000000 18 0.000000
456 2 488.022000 -409.284000 30.595500 1 1.000000 18 -3.000000
457 2 478.741000 -409.717000 27.360400 1 1.000000 1 -3.000000
458 2 469.291000 -412.125000 25.820000 1 1.000000 1 -3.000000
459 2 459.764000 -414.842000 25.810200 1 1.000000 1 -3.000000
460 2 450.574000 -418.477000 24.770200 1 1.000000 1 -3.000000
461 2 441.466000 -422.033000 23.037400 1 1.000000 1 -3.000000
462 2 431.854000 -423.860000 21.547300 1 1.000000 1 -3.000000
463 2 422.363000 -426.470000 20.733900 1 1.000000 1 -3.000000
464 2 414.375000 -432.114000 19.124000 1 1.000000 1 -3.000000
465 2 406.514000 -438.172000 18.349100 1 1.000000 1 -3.000000
466 2 398.255000 -443.625000 17.166300 1 1.000000 1 -3.000000
467 2 390.152000 -449.352000 16.548200 1 1.000000 1 -3.000000
468 2 381.675000 -453.766000 14.319500 1 1.000000 1 -3.000000
469 2 373.801000 -459.750000 13.547800 1 1.000000 1 -3.000000
470 2 366.986000 -466.413000 16.278700 1 1.000000 1 -3.000000
471 2 359.742000 -472.980000 17.855400 1 1.000000 1 -3.000000
472 2 352.957000 -479.535000 20.990400 1 1.000000 1 -3.000000
473 2 347.586000 -487.109000 24.489500 1 1.000000 1 -3.000000
474 2 342.671000 -494.322000 29.182400 1 1.000000 1 -3.000000