LAMMPS data file

4067 atoms
4067 ellipsoids
4516 bonds
8882 angles
0 dihedrals

3 atom types
5 bond types
12 angle types
0 dihedral types

-4631.092947 4670.465898 xlo xhi
-4631.092947 4670.465898 ylo yhi
-4631.092947 4670.465898 zlo zhi

Masses

1 196016.000000
2 1950.000000
3 19500.000000

Atoms

1 2 750.438000 -309.233000 678.998000 1 1.000000 1 -3.000000
2 2 746.421000 -311.045000 670.203000 1 1.000000 1 -3.000000
3 2 741.877000 -312.561000 661.535000 1 1.000000 1 -3.000000
4 2 738.114000 -311.979000 652.411000 1 1.000000 1 -3.000000
5 2 734.604000 -311.467000 643.227000 1 1.000000 1 -3.000000
6 2 729.807000 -309.501000 634.781000 1 1.000000 1 -3.000000
7 2 725.691000 -308.025000 625.845000 1 1.000000 1 -3.000000
8 2 723.261000 -305.900000 616.529000 1 1.000000 1 -3.000000
9 2 720.207000 -304.466000 607.233000 1 1.000000 1 -3.000000
10 2 716.797000 -301.011000 598.620000 1 1.000000 1 -3.000000
11 2 712.078000 -299.037000 590.176000 1 1.000000 1 -3.000000
12 2 708.080000 -297.728000 581.180000 1 1.000000 1 -3.000000
13 2 703.311000 -298.370000 572.589000 1 1.000000 1 -3.000000
14 2 699.553000 -297.681000 563.414000 1 1.000000 1 -3.000000
15 2 696.824000 -297.494000 553.912000 1 1.000000 1 -3.000000
16 2 694.508000 -296.304000 544.381000 1 1.000000 1 -3.000000
17 2 689.910000 -296.821000 535.692000 1 1.000000 1 -3.000000
18 2 682.807000 -297.940000 528.869000 1 1.000000 1 -3.000000
19 2 675.636000 -300.381000 522.487000 1 1.000000 1 -3.000000
20 2 668.674000 -302.283000 515.822000 1 1.000000 1 -3.000000
21 2 662.808000 -306.854000 509.222000 1 1.000000 2 -3.000000
22 1 653.275000 -348.411000 529.438000 1 1.000000 2 0.000000
23 3 665.461000 -329.227000 556.118000 1 1.000000 2 0.000000
24 2 649.819000 -377.579000 566.331000 1 1.000000 2 -3.000000
25 2 650.785000 -371.223000 573.876000 1 1.000000 1 -3.000000
26 2 650.829000 -365.020000 581.623000 1 1.000000 1 -3.000000
27 2 651.948000 -357.792000 588.338000 1 1.000000 1 -3.000000
28 2 652.547000 -348.831000 592.518000 1 1.000000 1 -3.000000
29 2 653.965000 -340.401000 597.451000 1 1.000000 1 -3.000000
30 2 655.983000 -331.137000 600.559000 1 1.000000 1 -3.000000
31 2 654.491000 -321.404000 601.731000 1 1.000000 1 -3.000000
32 2 654.629000 -311.691000 603.924000 1 1.000000 1 -3.000000
33 2 652.960000 -302.791000 607.764000 1 1.000000 1 -3.000000
34 2 652.155000 -293.343000 610.522000 1 1.000000 1 -3.000000
35 2 650.230000 -284.284000 613.822000 1 1.000000 1 -3.000000
36 2 648.883000 -275.620000 618.431000 1 1.000000 1 -3.000000
37 2 648.179000 -267.496000 624.032000 1 1.000000 1 -3.000000
38 2 649.278000 -258.348000 627.562000 1 1.000000 1 -3.000000
39 2 650.493000 -249.541000 632.120000 1 1.000000 1 -3.000000
40 2 652.131000 -240.593000 636.094000 1 1.000000 1 -3.000000
41 2 656.091000 -232.241000 639.684000 1 1.000000 1 -3.000000
42 2 656.869000 -222.579000 641.739000 1 1.000000 1 -3.000000
43 2 658.449000 -213.311000 644.871000 1 1.000000 1 -3.000000
44 2 662.008000 -205.082000 649.044000 1 1.000000 1 -3.000000
45 2 666.476000 -198.359000 654.730000 1 1.000000 1 -3.000000
46 2 671.354000 -193.791000 661.972000 1 1.000000 1 -3.000000
47 2 676.667000 -189.558000 669.243000 1 1.000000 1 -3.000000
48 2 681.478000 -184.549000 676.216000 1 1.000000 3 -3.000000
49 1 662.281000 -206.110000 713.567000 1 1.000000 3 0.000000
50 3 651.861000 -225.873000 686.619000 1 1.000000 3 0.000000
51 2 635.455000 -238.996000 734.167000 1 1.000000 3 -3.000000
52 2 633.301000 -244.136000 726.076000 1 1.000000 1 -3.000000
53 2 632.425000 -251.095000 718.998000 1 1.000000 1 -3.000000
54 2 632.972000 -257.703000 711.627000 1 1.000000 1 -3.000000
55 2 629.825000 -260.910000 702.833000 1 1.000000 1 -3.000000
56 2 626.158000 -261.394000 693.609000 1 1.000000 1 -3.000000
57 2 621.121000 -263.739000 685.406000 1 1.000000 1 -3.000000
58 2 616.360000 -265.797000 676.921000 1 1.000000 1 -3.000000
59 2 612.955000 -267.884000 667.938000 1 1.000000 1 -3.000000
60 2 606.970000 -270.091000 660.298000 1 1.000000 1 -3.000000
61 2 599.692000 -272.049000 653.887000 1 1.000000 1 -3.000000
62 2 593.099000 -274.749000 646.964000 1 1.000000 1 -3.000000
63 2 586.302000 -276.963000 640.213000 1 1.000000 1 -3.000000
64 2 580.266000 -278.024000 632.475000 1 1.000000 1 -3.000000
65 2 574.343000 -280.400000 624.930000 1 1.000000 1 -3.000000
66 2 569.032000 -280.451000 616.510000 1 1.000000 1 -3.000000
67 2 564.605000 -281.671000 607.739000 1 1.000000 1 -3.000000
68 2 561.466000 -282.566000 598.393000 1 1.000000 1 -3.000000
69 2 558.348000 -282.131000 588.989000 1 1.000000 1 -3.000000
70 2 555.419000 -282.311000 579.501000 1 1.000000 1 -3.000000
71 2 551.917000 -281.339000 570.308000 1 1.000000 1 -3.000000
72 2 547.787000 -281.492000 561.377000 1 1.000000 1 -3.000000
73 2 542.991000 -284.079000 553.199000 1 1.000000 1 -3.000000
74 2 537.316000 -286.533000 545.419000 1 1.000000 1 -3.000000
75 2 530.904000 -289.313000 538.344000 1 1.000000 4 -3.000000
76 1 546.871000 -333.377000 533.060000 1 1.000000 4 0.000000
77 3 559.379000 -324.000000 564.381000 1 1.000000 4 0.000000
78 2 571.112000 -371.433000 546.966000 1 1.000000 4 -3.000000
79 2 575.197000 -368.713000 555.568000 1 1.000000 1 -3.000000
80 2 578.550000 -367.259000 564.694000 1 1.000000 1 -3.000000
81 2 581.768000 -363.697000 573.360000 1 1.000000 1 -3.000000
82 2 582.561000 -358.759000 581.864000 1 1.000000 1 -3.000000
83 2 580.053000 -353.599000 589.865000 1 1.000000 1 -3.000000
84 2 574.312000 -349.434000 596.842000 1 1.000000 1 -3.000000
85 2 566.631000 -347.057000 602.715000 1 1.000000 1 -3.000000
86 2 558.946000 -344.611000 608.482000 1 1.000000 1 -3.000000
87 2 551.530000 -341.484000 614.295000 1 1.000000 1 -3.000000
88 2 542.433000 -341.445000 618.242000 1 1.000000 1 -3.000000
89 2 532.729000 -342.738000 620.263000 1 1.000000 1 -3.000000
90 2 523.860000 -345.265000 623.883000 1 1.000000 1 -3.000000
91 2 514.512000 -346.500000 627.059000 1 1.000000 1 -3.000000
92 2 506.030000 -350.192000 630.619000 1 1.000000 1 -3.000000
93 2 498.973000 -354.271000 636.218000 1 1.000000 1 -3.000000
94 2 492.117000 -356.631000 643.035000 1 1.000000 1 -3.000000
95 2 486.665000 -359.097000 650.819000 1 1.000000 1 -3.000000
96 2 482.015000 -360.497000 659.525000 1 1.000000 1 -3.000000
97 2 477.890000 -361.393000 668.481000 1 1.000000 1 -3.000000
98 2 474.232000 -363.526000 677.410000 1 1.000000 1 -3.000000
99 2 471.387000 -362.852000 686.914000 1 1.000000 1 -3.000000
100 2 471.739000 -362.526000 696.796000 1 1.000000 1 -3.000000
101 2 472.758000 -362.247000 706.664000 1 1.000000 1 -3.000000
102 2 474.070000 -361.672000 716.436000 1 1.000000 5 -3.000000
103 1 520.725000 -355.968000 712.262000 1 1.000000 5 0.000000
104 3 513.389000 -379.886000 687.842000 1 1.000000 5 0.000000
105 2 563.108000 -366.329000 694.231000 1 1.000000 5 -3.000000
106 2 559.824000 -368.767000 685.174000 1 1.000000 1 -3.000000
107 2 557.364000 -369.447000 675.635000 1 1.000000 1 -3.000000
108 2 552.072000 -370.958000 667.421000 1 1.000000 1 -3.000000
109 2 546.890000 -374.145000 659.545000 1 1.000000 1 -3.000000
110 2 540.972000 -377.038000 652.116000 1 1.000000 1 -3.000000
111 2 534.268000 -381.389000 646.218000 1 1.000000 1 -3.000000
112 2 526.739000 -385.330000 641.141000 1 1.000000 1 -3.000000
113 2 519.766000 -387.409000 634.450000 1 1.000000 1 -3.000000
114 2 512.449000 -389.409000 628.074000 1 1.000000 1 -3.000000
115 2 505.060000 -389.994000 621.432000 1 1.000000 1 -3.000000
116 2 498.404000 -391.815000 614.416000 1 1.000000 1 -3.000000
117 2 491.900000 -394.097000 607.294000 1 1.000000 1 -3.000000
118 2 484.741000 -394.034000 600.560000 1 1.000000 1 -3.000000
119 2 477.145000 -391.780000 594.580000 1 1.000000 1 -3.000000
120 2 471.945000 -389.681000 586.461000 1 1.000000 1 -3.000000
121 2 467.582000 -386.752000 578.087000 1 1.000000 1 -3.000000
122 2 463.061000 -383.153000 570.055000 1 1.000000 1 -3.000000
123 2 458.067000 -382.618000 561.543000 1 1.000000 1 -3.000000
124 2 454.494000 -379.967000 552.751000 1 1.000000 1 -3.000000
125 2 452.791000 -377.931000 543.176000 1 1.000000 1 -3.000000
126 2 452.306000 -375.863000 533.528000 1 1.000000 1 -3.000000
127 2 454.195000 -374.098000 524.000000 1 1.000000 1 -3.000000
128 2 455.298000 -372.075000 514.371000 1 1.000000 1 -3.000000
129 2 457.325000 -369.099000 505.125000 1 1.000000 6 -3.000000
130 1 501.778000 -384.686000 502.731000 1 1.000000 6 0.000000
131 3 490.356000 -397.653000 533.206000 1 1.000000 6 0.000000
132 2 538.395000 -410.246000 518.177000 1 1.000000 6 -3.000000
133 2 533.014000 -416.402000 523.781000 1 1.000000 1 -3.000000
134 2 528.168000 -423.512000 528.725000 1 1.000000 1 -3.000000
135 2 521.105000 -429.337000 532.616000 1 1.000000 1 -3.000000
136 2 515.145000 -435.805000 537.042000 1 1.000000 1 -3.000000
137 2 507.084000 -438.047000 542.262000 1 1.000000 1 -3.000000
138 2 499.214000 -440.216000 547.811000 1 1.000000 1 -3.000000
139 2 492.283000 -438.126000 554.604000 1 1.000000 1 -3.000000
140 2 485.842000 -435.964000 561.856000 1 1.000000 1 -3.000000
141 2 480.233000 -432.140000 568.958000 1 1.000000 1 -3.000000
142 2 474.161000 -430.326000 576.659000 1 1.000000 1 -3.000000
143 2 466.383000 -429.126000 582.685000 1 1.000000 1 -3.000000
144 2 458.810000 -425.780000 588.127000 1 1.000000 1 -3.000000
145 2 450.399000 -423.249000 592.782000 1 1.000000 1 -3.000000
146 2 441.130000 -423.404000 596.340000 1 1.000000 1 -3.000000
147 2 432.479000 -422.484000 601.030000 1 1.000000 1 -3.000000
148 2 423.307000 -421.012000 604.234000 1 1.000000 1 -3.000000
149 2 413.662000 -418.813000 605.255000 1 1.000000 1 -3.000000
150 2 404.997000 -414.508000 607.421000 1 1.000000 1 -3.000000
151 2 396.411000 -411.569000 611.564000 1 1.000000 1 -3.000000
152 2 387.471000 -409.239000 615.032000 1 1.000000 1 -3.000000
153 2 378.186000 -408.719000 618.492000 1 1.000000 1 -3.000000
154 2 369.309000 -411.046000 622.203000 1 1.000000 1 -3.000000
155 2 360.220000 -413.899000 625.084000 1 1.000000 1 -3.000000
156 2 351.611000 -417.285000 628.523000 1 1.000000 7 -3.000000
157 1 347.262000 -455.563000 601.200000 1 1.000000 7 0.000000
158 3 381.836000 -452.818000 605.598000 1 1.000000 7 0.000000
159 2 364.224000 -493.601000 578.948000 1 1.000000 7 -3.000000
160 2 372.785000 -494.086000 583.966000 1 1.000000 1 -3.000000
161 2 381.949000 -493.662000 587.582000 1 1.000000 1 -3.000000
162 2 391.633000 -492.665000 589.444000 1 1.000000 1 -3.000000
163 2 401.025000 -491.735000 592.538000 1 1.000000 1 -3.000000
164 2 410.031000 -488.825000 595.501000 1 1.000000 1 -3.000000
165 2 418.484000 -486.026000 599.758000 1 1.000000 1 -3.000000
166 2 427.092000 -483.118000 603.607000 1 1.000000 1 -3.000000
167 2 436.023000 -480.130000 606.645000 1 1.000000 1 -3.000000
168 2 444.564000 -475.114000 606.778000 1 1.000000 1 -3.000000
169 2 453.045000 -469.954000 606.914000 1 1.000000 1 -3.000000
170 2 461.318000 -464.665000 605.598000 1 1.000000 1 -3.000000
171 2 470.506000 -461.174000 605.060000 1 1.000000 1 -3.000000
172 2 479.374000 -456.757000 604.948000 1 1.000000 1 -3.000000
173 2 488.192000 -452.462000 603.586000 1 1.000000 1 -3.000000
174 2 496.280000 -446.910000 602.458000 1 1.000000 1 -3.000000
175 2 503.326000 -440.183000 600.648000 1 1.000000 1 -3.000000
176 2 509.599000 -433.565000 597.059000 1 1.000000 1 -3.000000
177 2 515.355000 -427.724000 591.558000 1 1.000000 1 -3.000000
178 2 521.074000 -423.090000 584.836000 1 1.000000 1 -3.000000
179 2 528.083000 -418.978000 579.044000 1 1.000000 1 -3.000000
180 2 535.150000 -415.253000 573.187000 1 1.000000 1 -3.000000
181 2 542.841000 -413.618000 567.208000 1 1.000000 1 -3.000000
182 2 550.546000 -412.745000 560.959000 1 1.000000 1 -3.000000
183 2 558.832000 -411.211000 555.614000 1 1.000000 8 -3.000000
184 1 553.448000 -447.170000 525.540000 1 1.000000 8 0.000000
185 3 537.868000 -458.688000 554.663000 1 1.000000 8 0.000000
186 2 538.222000 -490.127000 513.396000 1 1.000000 8 -3.000000
187 2 530.886000 -490.101000 520.087000 1 1.000000 1 -3.000000
188 2 523.456000 -491.150000 526.537000 1 1.000000 1 -3.000000
189 2 516.153000 -491.509000 533.172000 1 1.000000 1 -3.000000
190 2 511.089000 -490.498000 541.584000 1 1.000000 1 -3.000000
191 2 506.426000 -489.849000 550.281000 1 1.000000 1 -3.000000
192 2 505.445000 -487.562000 559.877000 1 1.000000 1 -3.000000
193 2 503.193000 -484.935000 569.078000 1 1.000000 1 -3.000000
194 2 501.487000 -481.776000 578.343000 1 1.000000 1 -3.000000
195 2 500.098000 -479.197000 587.857000 1 1.000000 1 -3.000000
196 2 499.301000 -478.564000 597.664000 1 1.000000 1 -3.000000
197 2 499.810000 -477.504000 607.534000 1 1.000000 1 -3.000000
198 2 500.577000 -479.351000 617.221000 1 1.000000 1 -3.000000
199 2 502.094000 -479.711000 627.015000 1 1.000000 1 -3.000000
200 2 505.189000 -478.685000 636.269000 1 1.000000 1 -3.000000
201 2 506.145000 -478.739000 646.103000 1 1.000000 1 -3.000000
202 2 507.708000 -479.789000 655.841000 1 1.000000 1 -3.000000
203 2 510.658000 -479.908000 665.285000 1 1.000000 1 -3.000000
204 2 512.615000 -478.859000 674.898000 1 1.000000 1 -3.000000
205 2 512.521000 -479.177000 684.750000 1 1.000000 1 -3.000000
206 2 514.655000 -480.868000 694.322000 1 1.000000 1 -3.000000
207 2 519.059000 -482.746000 703.033000 1 1.000000 1 -3.000000
208 2 523.611000 -483.854000 711.794000 1 1.000000 1 -3.000000
209 2 530.667000 -486.604000 718.143000 1 1.000000 1 -3.000000
210 2 537.536000 -491.668000 723.239000 1 1.000000 9 -3.000000
211 1 548.912000 -534.047000 705.858000 1 1.000000 9 0.000000
212 3 535.591000 -517.470000 678.187000 1 1.000000 9 0.000000
213 2 553.547000 -565.562000 671.084000 1 1.000000 9 -3.000000
214 2 554.261000 -559.623000 663.227000 1 1.000000 1 -3.000000
215 2 552.434000 -553.851000 655.347000 1 1.000000 1 -3.000000
216 2 549.780000 -548.358000 647.595000 1 1.000000 1 -3.000000
217 2 549.262000 -540.704000 641.392000 1 1.000000 1 -3.000000
218 2 547.533000 -531.712000 637.611000 1 1.000000 1 -3.000000
219 2 547.342000 -522.093000 635.372000 1 1.000000 1 -3.000000
220 2 546.028000 -512.667000 632.741000 1 1.000000 1 -3.000000
221 2 543.965000 -504.219000 628.048000 1 1.000000 1 -3.000000
222 2 543.452000 -495.338000 623.651000 1 1.000000 1 -3.000000
223 2 546.123000 -487.235000 618.572000 1 1.000000 1 -3.000000
224 2 547.236000 -478.667000 613.794000 1 1.000000 1 -3.000000
225 2 548.053000 -469.885000 609.398000 1 1.000000 1 -3.000000
226 2 549.951000 -460.658000 606.411000 1 1.000000 1 -3.000000
227 2 548.707000 -452.455000 600.926000 1 1.000000 1 -3.000000
228 2 548.953000 -444.128000 595.553000 1 1.000000 1 -3.000000
229 2 550.580000 -435.901000 590.244000 1 1.000000 1 -3.000000
230 2 554.717000 -429.708000 583.726000 1 1.000000 1 -3.000000
231 2 561.204000 -426.666000 576.836000 1 1.000000 1 -3.000000
232 2 567.991000 -424.807000 569.913000 1 1.000000 1 -3.000000
233 2 573.139000 -423.100000 561.649000 1 1.000000 1 -3.000000
234 2 579.515000 -423.297000 554.040000 1 1.000000 1 -3.000000
235 2 586.876000 -424.221000 547.420000 1 1.000000 1 -3.000000
236 2 593.932000 -427.056000 541.260000 1 1.000000 1 -3.000000
237 2 599.778000 -429.985000 533.820000 1 1.000000 10 -3.000000
238 1 633.445000 -444.148000 563.666000 1 1.000000 10 0.000000
239 3 604.110000 -448.284000 582.232000 1 1.000000 10 0.000000
240 2 649.195000 -460.329000 605.005000 1 1.000000 10 -3.000000
241 2 640.833000 -462.640000 609.706000 1 1.000000 1 -3.000000
242 2 632.530000 -466.511000 613.536000 1 1.000000 1 -3.000000
243 2 623.381000 -467.759000 617.386000 1 1.000000 1 -3.000000
244 2 614.083000 -467.309000 620.728000 1 1.000000 1 -3.000000
245 2 604.513000 -465.039000 622.069000 1 1.000000 1 -3.000000
246 2 595.444000 -461.005000 622.465000 1 1.000000 1 -3.000000
247 2 586.209000 -458.646000 625.122000 1 1.000000 1 -3.000000
248 2 577.764000 -456.225000 629.656000 1 1.000000 1 -3.000000
249 2 568.664000 -453.590000 632.413000 1 1.000000 1 -3.000000
250 2 559.510000 -452.305000 636.037000 1 1.000000 1 -3.000000
251 2 551.440000 -449.168000 640.922000 1 1.000000 1 -3.000000
252 2 542.780000 -447.623000 645.481000 1 1.000000 1 -3.000000
253 2 533.770000 -446.416000 649.569000 1 1.000000 1 -3.000000
254 2 525.593000 -442.778000 653.646000 1 1.000000 1 -3.000000
255 2 516.857000 -439.664000 656.999000 1 1.000000 1 -3.000000
256 2 508.225000 -436.383000 660.419000 1 1.000000 1 -3.000000
257 2 500.931000 -432.016000 665.490000 1 1.000000 1 -3.000000
258 2 494.088000 -427.080000 670.538000 1 1.000000 1 -3.000000
259 2 487.876000 -421.586000 675.925000 1 1.000000 1 -3.000000
260 2 482.562000 -415.644000 681.718000 1 1.000000 1 -3.000000
261 2 478.192000 -410.615000 689.046000 1 1.000000 1 -3.000000
262 2 478.034000 -405.964000 697.833000 1 1.000000 1 -3.000000
263 2 479.441000 -401.796000 706.629000 1 1.000000 1 -3.000000
264 2 480.519000 -395.857000 714.443000 1 1.000000 11 -3.000000
265 1 488.160000 -432.044000 743.710000 1 1.000000 11 0.000000
266 3 492.729000 -446.366000 712.054000 1 1.000000 11 0.000000
267 2 498.419000 -477.011000 753.498000 1 1.000000 11 -3.000000
268 2 493.406000 -482.061000 746.653000 1 1.000000 1 -3.000000
269 2 487.076000 -487.323000 740.932000 1 1.000000 1 -3.000000
270 2 481.680000 -494.925000 737.740000 1 1.000000 1 -3.000000
271 2 476.053000 -502.872000 736.010000 1 1.000000 1 -3.000000
272 2 469.632000 -510.405000 736.086000 1 1.000000 1 -3.000000
273 2 464.643000 -518.833000 737.365000 1 1.000000 1 -3.000000
274 2 460.152000 -527.373000 739.436000 1 1.000000 1 -3.000000
275 2 454.708000 -535.393000 741.198000 1 1.000000 1 -3.000000
276 2 450.148000 -544.044000 742.991000 1 1.000000 1 -3.000000
277 2 444.414000 -551.410000 746.117000 1 1.000000 1 -3.000000
278 2 441.068000 -559.369000 751.076000 1 1.000000 1 -3.000000
279 2 437.237000 -566.774000 756.537000 1 1.000000 1 -3.000000
280 2 434.004000 -573.538000 762.998000 1 1.000000 1 -3.000000
281 2 431.714000 -579.896000 770.171000 1 1.000000 1 -3.000000
282 2 428.752000 -587.448000 775.757000 1 1.000000 1 -3.000000
283 2 426.171000 -595.437000 780.972000 1 1.000000 1 -3.000000
284 2 424.671000 -604.197000 785.361000 1 1.000000 1 -3.000000
285 2 422.266000 -611.236000 791.815000 1 1.000000 1 -3.000000
286 2 419.488000 -619.346000 796.685000 1 1.000000 1 -3.000000
287 2 417.090000 -626.691000 802.826000 1 1.000000 1 -3.000000
288 2 418.088000 -634.188000 809.244000 1 1.000000 1 -3.000000
289 2 418.274000 -640.980000 816.514000 1 1.000000 1 -3.000000
290 2 417.554000 -647.346000 824.077000 1 1.000000 1 -3.000000
291 2 416.671000 -654.363000 831.029000 1 1.000000 12 -3.000000
292 1 379.095000 -631.104000 847.549000 1 1.000000 12 0.000000
293 3 385.624000 -615.091000 817.053000 1 1.000000 12 0.000000
294 2 345.036000 -598.542000 844.826000 1 1.000000 12 -3.000000
295 2 342.389000 -599.867000 835.399000 1 1.000000 1 -3.000000
296 2 341.581000 -602.058000 825.753000 1 1.000000 1 -3.000000
297 2 342.029000 -602.313000 815.865000 1 1.000000 1 -3.000000
298 2 344.796000 -601.149000 806.421000 1 1.000000 1 -3.000000
299 2 349.488000 -598.808000 797.960000 1 1.000000 1 -3.000000
300 2 354.284000 -594.835000 790.251000 1 1.000000 1 -3.000000
301 2 359.911000 -591.678000 782.780000 1 1.000000 1 -3.000000
302 2 365.814000 -587.618000 775.987000 1 1.000000 1 -3.000000
303 2 370.693000 -584.299000 767.967000 1 1.000000 1 -3.000000
304 2 376.693000 -580.956000 760.832000 1 1.000000 1 -3.000000
305 2 382.874000 -577.866000 753.831000 1 1.000000 1 -3.000000
306 2 390.772000 -574.285000 749.006000 1 1.000000 1 -3.000000
307 2 399.332000 -570.692000 745.445000 1 1.000000 1 -3.000000
308 2 405.583000 -566.398000 739.143000 1 1.000000 1 -3.000000
309 2 412.658000 -562.163000 733.646000 1 1.000000 1 -3.000000
310 2 420.129000 -557.948000 728.612000 1 1.000000 1 -3.000000
311 2 427.863000 -557.374000 722.530000 1 1.000000 1 -3.000000
312 2 434.740000 -558.682000 715.547000 1 1.000000 1 -3.000000
313 2 441.366000 -559.246000 708.249000 1 1.000000 1 -3.000000
314 2 447.171000 -560.455000 700.432000 1 1.000000 1 -3.000000
315 2 453.704000 -562.189000 693.142000 1 1.000000 1 -3.000000
316 2 458.838000 -562.162000 684.647000 1 1.000000 1 -3.000000
317 2 464.757000 -562.706000 676.730000 1 1.000000 1 -3.000000
318 2 471.577000 -563.667000 669.617000 1 1.000000 13 -3.000000
319 1 463.218000 -609.971000 666.063000 1 1.000000 13 0.000000
320 3 432.907000 -597.317000 678.140000 1 1.000000 13 0.000000
321 2 436.310000 -648.493000 670.367000 1 1.000000 13 -3.000000
322 2 428.163000 -643.330000 672.833000 1 1.000000 1 -3.000000
323 2 419.654000 -639.155000 675.707000 1 1.000000 1 -3.000000
324 2 410.665000 -635.000000 676.126000 1 1.000000 1 -3.000000
325 2 402.645000 -629.317000 677.133000 1 1.000000 1 -3.000000
326 2 394.684000 -623.986000 679.222000 1 1.000000 1 -3.000000
327 2 385.897000 -619.758000 681.120000 1 1.000000 1 -3.000000
328 2 376.691000 -616.060000 680.584000 1 1.000000 1 -3.000000
329 2 367.304000 -613.392000 682.253000 1 1.000000 1 -3.000000
330 2 357.668000 -611.076000 683.530000 1 1.000000 1 -3.000000
331 2 347.996000 -610.412000 685.200000 1 1.000000 1 -3.000000
332 2 338.156000 -610.217000 686.640000 1 1.000000 1 -3.000000
333 2 328.832000 -610.067000 689.828000 1 1.000000 1 -3.000000
334 2 319.659000 -608.084000 692.967000 1 1.000000 1 -3.000000
335 2 310.406000 -607.545000 696.573000 1 1.000000 1 -3.000000
336 2 301.017000 -607.171000 699.649000 1 1.000000 1 -3.000000
337 2 292.051000 -609.029000 703.387000 1 1.000000 1 -3.000000
338 2 282.723000 -609.482000 706.653000 1 1.000000 1 -3.000000
339 2 273.385000 -607.757000 709.383000 1 1.000000 1 -3.000000
340 2 264.220000 -606.620000 712.860000 1 1.000000 1 -3.000000
341 2 255.131000 -606.707000 716.751000 1 1.000000 1 -3.000000
342 2 245.932000 -605.202000 719.784000 1 1.000000 1 -3.000000
343 2 237.057000 -605.078000 724.151000 1 1.000000 1 -3.000000
344 2 228.289000 -603.717000 728.464000 1 1.000000 1 -3.000000
345 2 218.781000 -603.383000 731.423000 1 1.000000 14 -3.000000
346 1 207.076000 -566.992000 703.853000 1 1.000000 14 0.000000
347 3 235.427000 -580.157000 688.017000 1 1.000000 14 0.000000
348 2 214.294000 -537.161000 668.020000 1 1.000000 14 -3.000000
349 2 219.396000 -543.906000 662.885000 1 1.000000 1 -3.000000
350 2 225.135000 -550.403000 658.088000 1 1.000000 1 -3.000000
351 2 231.138000 -556.583000 653.214000 1 1.000000 1 -3.000000
352 2 236.466000 -563.423000 648.171000 1 1.000000 1 -3.000000
353 2 242.373000 -570.093000 644.006000 1 1.000000 1 -3.000000
354 2 248.376000 -577.978000 643.958000 1 1.000000 1 -3.000000
355 2 252.906000 -586.690000 642.427000 1 1.000000 1 -3.000000
356 2 258.800000 -593.913000 639.010000 1 1.000000 1 -3.000000
357 2 265.351000 -599.409000 634.007000 1 1.000000 1 -3.000000
358 2 272.009000 -605.244000 629.470000 1 1.000000 1 -3.000000
359 2 279.345000 -611.338000 626.672000 1 1.000000 1 -3.000000
360 2 286.419000 -616.949000 622.610000 1 1.000000 1 -3.000000
361 2 292.851000 -623.868000 619.697000 1 1.000000 1 -3.000000
362 2 298.582000 -631.576000 617.207000 1 1.000000 1 -3.000000
363 2 304.120000 -639.296000 614.588000 1 1.000000 1 -3.000000
364 2 311.807000 -644.997000 612.119000 1 1.000000 1 -3.000000
365 2 319.075000 -651.536000 610.370000 1 1.000000 1 -3.000000
366 2 325.375000 -658.691000 607.631000 1 1.000000 1 -3.000000
367 2 332.790000 -664.444000 604.646000 1 1.000000 1 -3.000000
368 2 339.227000 -671.769000 603.184000 1 1.000000 1 -3.000000
369 2 343.220000 -680.750000 601.729000 1 1.000000 1 -3.000000
370 2 344.450000 -690.493000 601.198000 1 1.000000 1 -3.000000
371 2 346.403000 -700.201000 601.537000 1 1.000000 1 -3.000000
372 2 351.160000 -708.858000 602.097000 1 1.000000 15 -3.000000
373 1 315.589000 -724.046000 629.143000 1 1.000000 15 0.000000
374 3 303.213000 -694.058000 615.835000 1 1.000000 15 0.000000
375 2 272.429000 -720.937000 647.841000 1 1.000000 15 -3.000000
376 2 268.085000 -714.908000 641.248000 1 1.000000 1 -3.000000
377 2 264.903000 -709.249000 633.723000 1 1.000000 1 -3.000000
378 2 263.069000 -702.817000 626.443000 1 1.000000 1 -3.000000
379 2 261.311000 -696.584000 619.045000 1 1.000000 1 -3.000000
380 2 258.400000 -691.749000 610.927000 1 1.000000 1 -3.000000
381 2 256.764000 -687.422000 602.229000 1 1.000000 1 -3.000000
382 2 254.126000 -681.246000 594.947000 1 1.000000 1 -3.000000
383 2 250.503000 -674.795000 588.469000 1 1.000000 1 -3.000000
384 2 246.070000 -668.791000 581.867000 1 1.000000 1 -3.000000
385 2 241.395000 -662.981000 575.370000 1 1.000000 1 -3.000000
386 2 235.290000 -657.579000 569.765000 1 1.000000 1 -3.000000
387 2 229.465000 -651.354000 564.773000 1 1.000000 1 -3.000000
388 2 223.629000 -647.248000 558.001000 1 1.000000 1 -3.000000
389 2 216.830000 -644.097000 551.477000 1 1.000000 1 -3.000000
390 2 208.245000 -642.698000 546.900000 1 1.000000 1 -3.000000
391 2 200.378000 -644.724000 541.182000 1 1.000000 1 -3.000000
392 2 192.300000 -646.681000 535.812000 1 1.000000 1 -3.000000
393 2 184.830000 -651.408000 531.342000 1 1.000000 1 -3.000000
394 2 178.603000 -658.168000 527.818000 1 1.000000 1 -3.000000
395 2 171.158000 -663.967000 524.728000 1 1.000000 1 -3.000000
396 2 163.064000 -669.452000 523.143000 1 1.000000 1 -3.000000
397 2 155.073000 -673.737000 519.001000 1 1.000000 1 -3.000000
398 2 146.371000 -676.177000 514.786000 1 1.000000 1 -3.000000
399 2 137.233000 -678.084000 511.430000 1 1.000000 16 -3.000000
400 1 113.639000 -642.346000 531.241000 1 1.000000 16 0.000000
401 3 145.701000 -629.290000 526.876000 1 1.000000 16 0.000000
402 2 110.192000 -599.014000 549.523000 1 1.000000 16 -3.000000
403 2 117.977000 -594.617000 545.177000 1 1.000000 1 -3.000000
404 2 125.938000 -589.711000 541.786000 1 1.000000 1 -3.000000
405 2 134.530000 -586.777000 538.004000 1 1.000000 1 -3.000000
406 2 143.599000 -585.474000 534.331000 1 1.000000 1 -3.000000
407 2 150.752000 -584.968000 527.534000 1 1.000000 1 -3.000000
408 2 157.427000 -586.887000 520.390000 1 1.000000 1 -3.000000
409 2 163.342000 -587.584000 512.576000 1 1.000000 1 -3.000000
410 2 169.009000 -587.734000 504.421000 1 1.000000 1 -3.000000
411 2 174.895000 -586.067000 496.612000 1 1.000000 1 -3.000000
412 2 181.115000 -584.450000 489.005000 1 1.000000 1 -3.000000
413 2 187.193000 -581.075000 481.907000 1 1.000000 1 -3.000000
414 2 192.736000 -578.035000 474.158000 1 1.000000 1 -3.000000
415 2 195.836000 -577.044000 464.851000 1 1.000000 1 -3.000000
416 2 198.994000 -576.720000 455.387000 1 1.000000 1 -3.000000
417 2 202.536000 -574.601000 446.411000 1 1.000000 1 -3.000000
418 2 206.014000 -570.933000 437.857000 1 1.000000 1 -3.000000
419 2 209.491000 -566.886000 429.498000 1 1.000000 1 -3.000000
420 2 217.110000 -563.328000 424.297000 1 1.000000 1 -3.000000
421 2 224.777000 -559.789000 419.301000 1 1.000000 1 -3.000000
422 2 231.974000 -555.731000 413.888000 1 1.000000 1 -3.000000
423 2 240.617000 -553.144000 409.759000 1 1.000000 1 -3.000000
424 2 248.875000 -553.198000 404.295000 1 1.000000 1 -3.000000
425 2 256.621000 -552.639000 398.171000 1 1.000000 1 -3.000000
426 2 265.358000 -552.844000 393.541000 1 1.000000 17 -3.000000
427 1 281.821000 -595.352000 405.766000 1 1.000000 17 0.000000
428 3 248.563000 -596.048000 416.873000 1 1.000000 17 0.000000
429 2 277.697000 -638.149000 425.218000 1 1.000000 17 -3.000000
430 2 268.096000 -638.533000 422.880000 1 1.000000 1 -3.000000
431 2 258.382000 -639.440000 421.110000 1 1.000000 1 -3.000000
432 2 248.827000 -640.580000 418.628000 1 1.000000 1 -3.000000
433 2 240.948000 -641.456000 412.842000 1 1.000000 1 -3.000000
434 2 232.762000 -640.499000 407.378000 1 1.000000 1 -3.000000
435 2 226.016000 -640.134000 400.144000 1 1.000000 1 -3.000000
436 2 219.435000 -638.721000 392.860000 1 1.000000 1 -3.000000
437 2 212.464000 -637.270000 386.047000 1 1.000000 1 -3.000000
438 2 205.966000 -636.879000 378.510000 1 1.000000 1 -3.000000
439 2 200.262000 -635.456000 370.584000 1 1.000000 1 -3.000000
440 2 193.302000 -633.037000 363.955000 1 1.000000 1 -3.000000
441 2 187.498000 -631.436000 356.026000 1 1.000000 1 -3.000000
442 2 182.007000 -630.141000 347.905000 1 1.000000 1 -3.000000
443 2 178.544000 -627.172000 339.157000 1 1.000000 1 -3.000000
444 2 173.724000 -625.045000 330.755000 1 1.000000 1 -3.000000
445 2 170.269000 -625.384000 321.496000 1 1.000000 1 -3.000000
446 2 166.663000 -624.311000 312.443000 1 1.000000 1 -3.000000
447 2 162.555000 -623.482000 303.501000 1 1.000000 1 -3.000000
448 2 159.227000 -624.472000 294.220000 1 1.000000 1 -3.000000
449 2 156.318000 -624.691000 284.721000 1 1.000000 1 -3.000000
450 2 156.743000 -624.987000 274.873000 1 1.000000 1 -3.000000
451 2 157.968000 -625.481000 265.108000 1 1.000000 1 -3.000000
452 2 159.337000 -624.819000 255.411000 1 1.000000 1 -3.000000
453 2 160.756000 -625.713000 245.626000 1 1.000000 18 -3.000000
454 1 159.217000 -672.766000 242.902000 1 1.000000 18 0.000000
455 3 148.466000 -666.350000 275.559000 1 1.000000 18 0.000000
456 2 151.512000 -715.882000 260.279000 1 1.000000 18 -3.000000
457 2 144.579000 -712.937000 266.629000 1 1.000000 1 -3.000000
458 2 137.740000 -708.153000 271.908000 1 1.000000 1 -3.000000
459 2 130.367000 -704.424000 277.422000 1 1.000000 1 -3.000000
460 2 123.391000 -700.595000 283.302000 1 1.000000 1 -3.000000
461 2 114.848000 -697.274000 286.931000 1 1.000000 1 -3.000000
462 2 105.884000 -694.139000 290.009000 1 1.000000 1 -3.000000
463 2 97.359100 -691.300000 294.277000 1 1.000000 1 -3.000000
464 2 88.588100 -688.952000 298.328000 1 1.000000 1 -3.000000
465 2 79.606400 -686.153000 301.506000 1 1.000000 1 -3.000000
466 2 70.216200 -683.584000 303.023000 1 1.000000 1 -3.000000
467 2 61.247900 -679.932000 305.354000 1 1.000000 1 -3.000000
468 2 52.533500 -675.850000 307.844000 1 1.000000 1 -3.000000
469 2 44.756000 -671.936000 312.545000 1 1.000000 1 -3.000000
470 2 40.116700 -666.525000 319.383000 1 1.000000 1 -3.000000
471 2 35.378400 -659.605000 324.560000 1 1.000000 1 -3.000000
472 2 31.271400 -651.545000 328.697000 1 1.000000 1 -3.000000
473 2 26.611400 -643.309000 331.707000 1 1.000000 1 -3.000000