LAMMPS data file

4067 atoms
4067 ellipsoids
4516 bonds
8882 angles
0 dihedrals

3 atom types
5 bond types
12 angle types
0 dihedral types

-4631.092947 4670.465898 xlo xhi
-4631.092947 4670.465898 ylo yhi
-4631.092947 4670.465898 zlo zhi

Masses

1 196016.000000
2 1950.000000
3 19500.000000

Atoms

1 2 -205.917000 -108.910000 24.858000 1 1.000000 1 -3.000000
2 2 -205.943000 -98.997400 25.651500 1 1.000000 1 -3.000000
3 2 -206.337000 -89.644000 28.920500 1 1.000000 1 -3.000000
4 2 -205.328000 -80.823600 33.273300 1 1.000000 1 -3.000000
5 2 -203.270000 -73.015700 38.962200 1 1.000000 1 -3.000000
6 2 -198.618000 -66.549500 44.800400 1 1.000000 1 -3.000000
7 2 -195.041000 -59.438400 50.807400 1 1.000000 1 -3.000000
8 2 -192.200000 -51.831900 56.496800 1 1.000000 1 -3.000000
9 2 -190.414000 -44.757200 63.061600 1 1.000000 1 -3.000000
10 2 -188.138000 -39.745000 71.357000 1 1.000000 1 -3.000000
11 2 -186.487000 -36.347600 80.520000 1 1.000000 1 -3.000000
12 2 -185.292000 -31.257500 89.025100 1 1.000000 1 -3.000000
13 2 -184.637000 -25.347200 96.843500 1 1.000000 1 -3.000000
14 2 -185.233000 -18.147500 103.580000 1 1.000000 1 -3.000000
15 2 -186.816000 -11.100500 110.379000 1 1.000000 1 -3.000000
16 2 -188.087000 -4.991140 118.081000 1 1.000000 1 -3.000000
17 2 -190.509000 -0.419844 126.515000 1 1.000000 1 -3.000000
18 2 -193.094000 0.659377 136.069000 1 1.000000 1 -3.000000
19 2 -196.021000 1.227920 145.494000 1 1.000000 1 -3.000000
20 2 -196.817000 0.628822 155.267000 1 1.000000 1 -3.000000
21 2 -198.079000 1.145780 165.048000 1 1.000000 2 -3.000000
22 1 -212.292000 -43.782700 167.867000 1 1.000000 2 0.000000
23 3 -192.205000 -43.510500 139.185000 1 1.000000 2 0.000000
24 2 -210.733000 -89.261000 155.312000 1 1.000000 2 -3.000000
25 2 -201.533000 -87.688100 152.151000 1 1.000000 1 -3.000000
26 2 -192.081000 -88.019600 149.299000 1 1.000000 1 -3.000000
27 2 -182.352000 -87.202700 147.407000 1 1.000000 1 -3.000000
28 2 -173.826000 -85.372000 142.574000 1 1.000000 1 -3.000000
29 2 -166.920000 -81.231000 136.776000 1 1.000000 1 -3.000000
30 2 -159.707000 -75.931700 132.583000 1 1.000000 1 -3.000000
31 2 -152.837000 -70.991500 127.421000 1 1.000000 1 -3.000000
32 2 -147.301000 -64.536200 122.465000 1 1.000000 1 -3.000000
33 2 -140.342000 -58.336800 118.982000 1 1.000000 1 -3.000000
34 2 -134.663000 -52.417700 113.499000 1 1.000000 1 -3.000000
35 2 -129.216000 -44.765600 110.624000 1 1.000000 1 -3.000000
36 2 -123.076000 -37.746600 107.368000 1 1.000000 1 -3.000000
37 2 -118.252000 -29.601800 104.450000 1 1.000000 1 -3.000000
38 2 -114.464000 -20.552200 103.042000 1 1.000000 1 -3.000000
39 2 -112.050000 -11.541900 99.883500 1 1.000000 1 -3.000000
40 2 -108.313000 -3.129270 96.074700 1 1.000000 1 -3.000000
41 2 -106.432000 6.252160 93.587100 1 1.000000 1 -3.000000
42 2 -106.477000 15.461800 89.778300 1 1.000000 1 -3.000000
43 2 -106.787000 25.265100 88.446400 1 1.000000 1 -3.000000
44 2 -106.908000 34.934600 86.513700 1 1.000000 1 -3.000000
45 2 -107.638000 44.831100 86.202000 1 1.000000 1 -3.000000
46 2 -107.480000 54.403400 88.538900 1 1.000000 1 -3.000000
47 2 -107.606000 63.560900 92.139600 1 1.000000 1 -3.000000
48 2 -107.232000 73.197900 94.263200 1 1.000000 3 -3.000000
49 1 -104.005000 67.141300 140.919000 1 1.000000 3 0.000000
50 3 -94.094600 36.135900 128.047000 1 1.000000 3 0.000000
51 2 -97.014700 41.177600 179.681000 1 1.000000 3 -3.000000
52 2 -90.878000 35.032200 174.917000 1 1.000000 1 -3.000000
53 2 -84.964600 28.629100 170.259000 1 1.000000 1 -3.000000
54 2 -78.759200 22.740100 165.363000 1 1.000000 1 -3.000000
55 2 -73.379700 16.618200 159.649000 1 1.000000 1 -3.000000
56 2 -66.908700 13.218600 152.842000 1 1.000000 1 -3.000000
57 2 -60.669500 10.533400 145.771000 1 1.000000 1 -3.000000
58 2 -55.090400 4.842910 139.805000 1 1.000000 1 -3.000000
59 2 -49.435000 1.060750 132.514000 1 1.000000 1 -3.000000
60 2 -43.680500 -4.561410 126.721000 1 1.000000 1 -3.000000
61 2 -37.721600 -10.581300 121.651000 1 1.000000 1 -3.000000
62 2 -32.212400 -17.824200 117.493000 1 1.000000 1 -3.000000
63 2 -26.328300 -23.975700 112.358000 1 1.000000 1 -3.000000
64 2 -19.657800 -30.237600 108.586000 1 1.000000 1 -3.000000
65 2 -12.688700 -34.941900 103.271000 1 1.000000 1 -3.000000
66 2 -6.725620 -41.174500 98.400900 1 1.000000 1 -3.000000
67 2 -2.652640 -45.730900 90.634600 1 1.000000 1 -3.000000
68 2 0.238875 -51.464400 83.176500 1 1.000000 1 -3.000000
69 2 1.095520 -56.714500 74.797600 1 1.000000 1 -3.000000
70 2 -0.976105 -60.873600 66.078000 1 1.000000 1 -3.000000
71 2 -2.310520 -64.584600 57.042400 1 1.000000 1 -3.000000
72 2 -4.095970 -70.824700 49.512100 1 1.000000 1 -3.000000
73 2 -4.535730 -78.530000 43.338100 1 1.000000 1 -3.000000
74 2 -3.547090 -84.133500 35.225300 1 1.000000 1 -3.000000
75 2 -2.688360 -87.363000 25.855600 1 1.000000 4 -3.000000
76 1 38.229400 -65.732600 16.441400 1 1.000000 4 0.000000
77 3 39.500100 -70.633200 51.074100 1 1.000000 4 0.000000
78 2 80.228500 -47.895200 28.376500 1 1.000000 4 -3.000000
79 2 81.651300 -54.383600 35.644500 1 1.000000 1 -3.000000
80 2 82.568700 -60.506300 43.294400 1 1.000000 1 -3.000000
81 2 83.070400 -66.945900 50.733900 1 1.000000 1 -3.000000
82 2 82.584200 -72.857100 58.663800 1 1.000000 1 -3.000000
83 2 79.534300 -77.968600 66.682000 1 1.000000 1 -3.000000
84 2 74.723400 -83.530300 73.323300 1 1.000000 1 -3.000000
85 2 72.678600 -88.517400 81.574600 1 1.000000 1 -3.000000
86 2 71.006500 -95.127500 88.798800 1 1.000000 1 -3.000000
87 2 67.834300 -100.831000 96.280500 1 1.000000 1 -3.000000
88 2 64.205600 -106.763000 103.414000 1 1.000000 1 -3.000000
89 2 61.041900 -112.748000 110.691000 1 1.000000 1 -3.000000
90 2 58.388100 -118.680000 118.151000 1 1.000000 1 -3.000000
91 2 57.006100 -123.525000 126.632000 1 1.000000 1 -3.000000
92 2 53.221200 -127.979000 134.637000 1 1.000000 1 -3.000000
93 2 49.186800 -133.699000 141.601000 1 1.000000 1 -3.000000
94 2 44.317800 -139.501000 147.963000 1 1.000000 1 -3.000000
95 2 37.411700 -142.560000 154.379000 1 1.000000 1 -3.000000
96 2 31.355500 -146.170000 161.405000 1 1.000000 1 -3.000000
97 2 25.349600 -150.928000 167.568000 1 1.000000 1 -3.000000
98 2 18.965900 -155.900000 173.429000 1 1.000000 1 -3.000000
99 2 11.873700 -158.551000 179.768000 1 1.000000 1 -3.000000
100 2 3.403240 -160.185000 184.772000 1 1.000000 1 -3.000000
101 2 -6.066990 -159.552000 187.533000 1 1.000000 1 -3.000000
102 2 -15.724800 -159.081000 189.492000 1 1.000000 5 -3.000000
103 1 -37.860800 -136.991000 154.189000 1 1.000000 5 0.000000
104 3 -8.172620 -148.052000 139.251000 1 1.000000 5 0.000000
105 2 -42.130500 -122.433000 109.491000 1 1.000000 5 -3.000000
106 2 -36.124100 -128.504000 104.444000 1 1.000000 1 -3.000000
107 2 -29.987700 -134.789000 99.864100 1 1.000000 1 -3.000000
108 2 -23.566300 -141.627000 96.725700 1 1.000000 1 -3.000000
109 2 -16.529700 -147.995000 94.561700 1 1.000000 1 -3.000000
110 2 -8.280660 -152.397000 91.313300 1 1.000000 1 -3.000000
111 2 0.454532 -156.584000 89.257000 1 1.000000 1 -3.000000
112 2 8.667150 -161.614000 87.301900 1 1.000000 1 -3.000000
113 2 17.185400 -166.537000 85.658600 1 1.000000 1 -3.000000
114 2 26.236400 -170.550000 84.770900 1 1.000000 1 -3.000000
115 2 33.389800 -177.353000 84.561800 1 1.000000 1 -3.000000
116 2 40.246000 -184.423000 85.119400 1 1.000000 1 -3.000000
117 2 47.603300 -190.562000 87.224700 1 1.000000 1 -3.000000
118 2 55.443400 -195.519000 90.686000 1 1.000000 1 -3.000000
119 2 61.181900 -200.346000 97.048400 1 1.000000 1 -3.000000
120 2 66.965400 -205.427000 103.319000 1 1.000000 1 -3.000000
121 2 72.089900 -208.823000 111.183000 1 1.000000 1 -3.000000
122 2 76.057000 -213.850000 118.714000 1 1.000000 1 -3.000000
123 2 80.139700 -219.305000 125.899000 1 1.000000 1 -3.000000
124 2 83.180400 -223.520000 134.223000 1 1.000000 1 -3.000000
125 2 86.074400 -225.433000 143.423000 1 1.000000 1 -3.000000
126 2 87.769600 -229.461000 152.291000 1 1.000000 1 -3.000000
127 2 87.914000 -235.248000 160.292000 1 1.000000 1 -3.000000
128 2 88.559200 -240.747000 168.512000 1 1.000000 1 -3.000000
129 2 87.090400 -246.314000 176.625000 1 1.000000 6 -3.000000
130 1 40.412100 -244.298000 183.276000 1 1.000000 6 0.000000
131 3 43.611000 -239.938000 148.773000 1 1.000000 6 0.000000
132 2 -4.233950 -240.294000 168.689000 1 1.000000 6 -3.000000
133 2 -1.885580 -242.182000 159.271000 1 1.000000 1 -3.000000
134 2 -0.728748 -245.322000 149.890000 1 1.000000 1 -3.000000
135 2 0.209202 -247.762000 140.345000 1 1.000000 1 -3.000000
136 2 2.892080 -250.886000 131.261000 1 1.000000 1 -3.000000
137 2 6.834390 -254.666000 122.954000 1 1.000000 1 -3.000000
138 2 10.392600 -257.004000 113.982000 1 1.000000 1 -3.000000
139 2 14.412400 -260.336000 105.502000 1 1.000000 1 -3.000000
140 2 17.180000 -262.738000 96.254300 1 1.000000 1 -3.000000
141 2 18.641800 -266.607000 87.277800 1 1.000000 1 -3.000000
142 2 22.376700 -271.171000 79.312800 1 1.000000 1 -3.000000
143 2 27.115800 -276.509000 72.382400 1 1.000000 1 -3.000000
144 2 31.725900 -282.379000 65.846500 1 1.000000 1 -3.000000
145 2 35.406100 -288.666000 59.245300 1 1.000000 1 -3.000000
146 2 37.680900 -294.298000 51.446800 1 1.000000 1 -3.000000
147 2 40.453300 -301.039000 44.637400 1 1.000000 1 -3.000000
148 2 43.369600 -306.568000 36.977100 1 1.000000 1 -3.000000
149 2 45.597600 -313.657000 30.414400 1 1.000000 1 -3.000000
150 2 49.813300 -319.915000 24.014800 1 1.000000 1 -3.000000
151 2 52.053700 -326.747000 17.251000 1 1.000000 1 -3.000000
152 2 52.600700 -332.371000 9.084950 1 1.000000 1 -3.000000
153 2 52.827000 -338.636000 1.278180 1 1.000000 1 -3.000000
154 2 51.732200 -346.027000 -5.300540 1 1.000000 1 -3.000000
155 2 50.449600 -352.546000 -12.654300 1 1.000000 1 -3.000000
156 2 47.416700 -357.264000 -20.860600 1 1.000000 7 -3.000000
157 1 1.233370 -347.676000 -21.518700 1 1.000000 7 0.000000
158 3 15.170300 -319.184000 -6.786570 1 1.000000 7 0.000000
159 2 -36.178400 -319.716000 -14.789500 1 1.000000 7 -3.000000
160 2 -30.631700 -311.604000 -15.638700 1 1.000000 1 -3.000000
161 2 -26.001500 -302.852000 -15.833900 1 1.000000 1 -3.000000
162 2 -20.866900 -294.498000 -15.248400 1 1.000000 1 -3.000000
163 2 -15.108100 -286.395000 -15.653600 1 1.000000 1 -3.000000
164 2 -7.369220 -280.296000 -16.441000 1 1.000000 1 -3.000000
165 2 -0.834616 -273.792000 -19.963000 1 1.000000 1 -3.000000
166 2 5.112490 -268.887000 -26.098100 1 1.000000 1 -3.000000
167 2 10.515200 -261.764000 -30.478600 1 1.000000 1 -3.000000
168 2 14.497600 -256.083000 -37.599200 1 1.000000 1 -3.000000
169 2 18.779200 -250.651000 -44.705900 1 1.000000 1 -3.000000
170 2 25.253400 -246.615000 -51.202000 1 1.000000 1 -3.000000
171 2 31.191800 -240.737000 -56.406700 1 1.000000 1 -3.000000
172 2 37.446200 -234.886000 -61.456700 1 1.000000 1 -3.000000
173 2 42.378000 -228.273000 -66.959600 1 1.000000 1 -3.000000
174 2 47.403600 -221.015000 -71.434300 1 1.000000 1 -3.000000
175 2 50.868900 -214.125000 -77.742600 1 1.000000 1 -3.000000
176 2 50.959200 -205.469000 -82.560200 1 1.000000 1 -3.000000
177 2 52.715200 -197.587000 -88.342100 1 1.000000 1 -3.000000
178 2 56.068000 -189.161000 -91.932200 1 1.000000 1 -3.000000
179 2 57.051900 -180.283000 -96.339200 1 1.000000 1 -3.000000
180 2 57.452600 -171.987000 -101.774000 1 1.000000 1 -3.000000
181 2 58.003600 -165.178000 -108.938000 1 1.000000 1 -3.000000
182 2 59.037800 -158.342000 -115.910000 1 1.000000 1 -3.000000
183 2 59.673900 -151.789000 -123.249000 1 1.000000 8 -3.000000
184 1 93.467300 -124.035000 -105.434000 1 1.000000 8 0.000000
185 3 90.556800 -149.412000 -81.573800 1 1.000000 8 0.000000
186 2 124.879000 -111.611000 -72.558900 1 1.000000 8 -3.000000
187 2 125.199000 -120.596000 -68.279500 1 1.000000 1 -3.000000
188 2 126.335000 -129.249000 -63.746600 1 1.000000 1 -3.000000
189 2 127.690000 -138.756000 -61.166500 1 1.000000 1 -3.000000
190 2 128.658000 -148.175000 -58.333500 1 1.000000 1 -3.000000
191 2 126.351000 -157.629000 -56.819200 1 1.000000 1 -3.000000
192 2 123.232000 -166.931000 -55.754700 1 1.000000 1 -3.000000
193 2 121.398000 -176.616000 -54.547500 1 1.000000 1 -3.000000
194 2 119.472000 -186.142000 -52.738700 1 1.000000 1 -3.000000
195 2 118.936000 -195.987000 -51.489700 1 1.000000 1 -3.000000
196 2 120.432000 -205.834000 -51.195700 1 1.000000 1 -3.000000
197 2 123.542000 -215.211000 -50.251000 1 1.000000 1 -3.000000
198 2 125.826000 -224.779000 -51.025200 1 1.000000 1 -3.000000
199 2 126.182000 -234.698000 -50.659100 1 1.000000 1 -3.000000
200 2 127.058000 -244.588000 -50.123500 1 1.000000 1 -3.000000
201 2 127.767000 -254.218000 -52.175000 1 1.000000 1 -3.000000
202 2 129.190000 -263.964000 -52.612200 1 1.000000 1 -3.000000
203 2 128.465000 -273.819000 -52.680300 1 1.000000 1 -3.000000
204 2 128.920000 -283.710000 -53.378900 1 1.000000 1 -3.000000
205 2 128.375000 -293.445000 -51.954500 1 1.000000 1 -3.000000
206 2 123.350000 -301.797000 -50.283400 1 1.000000 1 -3.000000
207 2 115.669000 -307.912000 -51.221000 1 1.000000 1 -3.000000
208 2 107.671000 -313.742000 -50.629700 1 1.000000 1 -3.000000
209 2 98.693900 -317.913000 -50.035600 1 1.000000 1 -3.000000
210 2 90.255300 -322.222000 -47.167000 1 1.000000 9 -3.000000
211 1 83.164400 -309.218000 -2.360360 1 1.000000 9 0.000000
212 3 105.370000 -284.822000 -14.391800 1 1.000000 9 0.000000
213 2 89.762000 -281.076000 34.945400 1 1.000000 9 -3.000000
214 2 94.187000 -273.518000 30.346300 1 1.000000 1 -3.000000
215 2 96.364900 -265.508000 24.913100 1 1.000000 1 -3.000000
216 2 96.799000 -257.234000 19.339500 1 1.000000 1 -3.000000
217 2 96.734300 -250.919000 11.678300 1 1.000000 1 -3.000000
218 2 95.674200 -244.756000 3.991470 1 1.000000 1 -3.000000
219 2 92.320500 -238.388000 -2.875500 1 1.000000 1 -3.000000
220 2 89.952800 -231.118000 -9.224980 1 1.000000 1 -3.000000
221 2 86.523900 -224.115000 -15.217400 1 1.000000 1 -3.000000
222 2 84.774700 -217.410000 -22.327500 1 1.000000 1 -3.000000
223 2 83.063400 -210.269000 -29.041500 1 1.000000 1 -3.000000
224 2 80.814300 -203.684000 -35.891500 1 1.000000 1 -3.000000
225 2 77.959100 -197.759000 -43.298400 1 1.000000 1 -3.000000
226 2 75.502100 -193.186000 -51.643300 1 1.000000 1 -3.000000
227 2 71.041100 -187.112000 -58.084700 1 1.000000 1 -3.000000
228 2 65.765600 -183.255000 -65.416500 1 1.000000 1 -3.000000
229 2 58.657900 -178.748000 -70.640000 1 1.000000 1 -3.000000
230 2 52.829600 -172.880000 -76.137100 1 1.000000 1 -3.000000
231 2 49.154900 -166.622000 -82.881500 1 1.000000 1 -3.000000
232 2 48.356700 -160.540000 -90.653100 1 1.000000 1 -3.000000
233 2 47.672000 -154.399000 -98.311500 1 1.000000 1 -3.000000
234 2 45.101800 -147.505000 -104.955000 1 1.000000 1 -3.000000
235 2 42.659900 -140.617000 -111.660000 1 1.000000 1 -3.000000
236 2 39.103600 -134.731000 -118.645000 1 1.000000 1 -3.000000
237 2 36.358400 -128.852000 -126.145000 1 1.000000 10 -3.000000
238 1 13.356900 -159.149000 -154.092000 1 1.000000 10 0.000000
239 3 21.114500 -178.617000 -125.967000 1 1.000000 10 0.000000
240 2 -3.368710 -201.754000 -165.437000 1 1.000000 10 -3.000000
241 2 -4.719090 -205.489000 -156.322000 1 1.000000 1 -3.000000
242 2 -4.041890 -209.056000 -147.135000 1 1.000000 1 -3.000000
243 2 -4.235230 -212.677000 -137.852000 1 1.000000 1 -3.000000
244 2 -5.008620 -214.580000 -128.210000 1 1.000000 1 -3.000000
245 2 -4.324190 -214.525000 -118.309000 1 1.000000 1 -3.000000
246 2 -4.586020 -213.536000 -108.423000 1 1.000000 1 -3.000000
247 2 -5.270040 -215.148000 -98.646000 1 1.000000 1 -3.000000
248 2 -5.505000 -215.722000 -88.875000 1 1.000000 1 -3.000000
249 2 -5.906540 -217.717000 -79.151600 1 1.000000 1 -3.000000
250 2 -5.483690 -219.450000 -69.378200 1 1.000000 1 -3.000000
251 2 -4.366940 -219.727000 -59.544000 1 1.000000 1 -3.000000
252 2 -4.046910 -218.788000 -49.707100 1 1.000000 1 -3.000000
253 2 -3.827720 -215.799000 -40.235300 1 1.000000 1 -3.000000
254 2 -3.292670 -213.895000 -30.545000 1 1.000000 1 -3.000000
255 2 -2.229440 -213.637000 -20.786700 1 1.000000 1 -3.000000
256 2 -2.290920 -214.691000 -10.957300 1 1.000000 1 -3.000000
257 2 -0.452470 -214.456000 -1.194910 1 1.000000 1 -3.000000
258 2 0.473402 -216.494000 8.370320 1 1.000000 1 -3.000000
259 2 -0.465782 -219.481000 17.779100 1 1.000000 1 -3.000000
260 2 -2.942260 -220.987000 27.226200 1 1.000000 1 -3.000000
261 2 -5.790630 -219.227000 36.567400 1 1.000000 1 -3.000000
262 2 -11.007100 -217.225000 44.795900 1 1.000000 1 -3.000000
263 2 -16.695700 -216.206000 52.900200 1 1.000000 1 -3.000000
264 2 -22.940400 -215.315000 60.533800 1 1.000000 11 -3.000000
265 1 -60.136100 -195.056000 39.598800 1 1.000000 11 0.000000
266 3 -43.337300 -210.407000 13.001800 1 1.000000 11 0.000000
267 2 -89.366700 -188.509000 3.083030 1 1.000000 11 -3.000000
268 2 -86.376000 -195.498000 -3.265210 1 1.000000 1 -3.000000
269 2 -83.008600 -202.899000 -9.068830 1 1.000000 1 -3.000000
270 2 -77.813700 -209.853000 -13.936900 1 1.000000 1 -3.000000
271 2 -73.833400 -216.904000 -19.678600 1 1.000000 1 -3.000000
272 2 -70.159100 -224.737000 -24.359200 1 1.000000 1 -3.000000
273 2 -67.074000 -229.998000 -32.149500 1 1.000000 1 -3.000000
274 2 -63.273700 -235.956000 -39.079800 1 1.000000 1 -3.000000
275 2 -61.531700 -241.760000 -46.834900 1 1.000000 1 -3.000000
276 2 -60.156100 -246.843000 -55.218200 1 1.000000 1 -3.000000
277 2 -60.842600 -251.469000 -63.956900 1 1.000000 1 -3.000000
278 2 -61.104500 -256.722000 -72.371300 1 1.000000 1 -3.000000
279 2 -61.212200 -262.928000 -80.075800 1 1.000000 1 -3.000000
280 2 -58.234500 -268.718000 -87.470800 1 1.000000 1 -3.000000
281 2 -56.370200 -274.907000 -94.848500 1 1.000000 1 -3.000000
282 2 -53.433200 -281.109000 -102.009000 1 1.000000 1 -3.000000
283 2 -51.366300 -288.821000 -107.910000 1 1.000000 1 -3.000000
284 2 -49.409200 -297.427000 -112.516000 1 1.000000 1 -3.000000
285 2 -45.831100 -306.093000 -115.752000 1 1.000000 1 -3.000000
286 2 -44.047200 -315.184000 -119.365000 1 1.000000 1 -3.000000
287 2 -43.135900 -324.643000 -122.194000 1 1.000000 1 -3.000000
288 2 -41.845500 -334.102000 -124.895000 1 1.000000 1 -3.000000
289 2 -44.421200 -343.279000 -127.449000 1 1.000000 1 -3.000000
290 2 -48.754500 -350.182000 -132.957000 1 1.000000 1 -3.000000
291 2 -50.367600 -358.315000 -138.545000 1 1.000000 12 -3.000000
292 1 -24.612700 -348.301000 -176.803000 1 1.000000 12 0.000000
293 3 -6.378770 -333.680000 -150.727000 1 1.000000 12 0.000000
294 2 11.366200 -327.473000 -199.178000 1 1.000000 12 -3.000000
295 2 17.922800 -326.032000 -191.955000 1 1.000000 1 -3.000000
296 2 24.343900 -326.105000 -184.418000 1 1.000000 1 -3.000000
297 2 30.416300 -327.132000 -176.686000 1 1.000000 1 -3.000000
298 2 34.365700 -326.500000 -167.610000 1 1.000000 1 -3.000000
299 2 36.998900 -325.786000 -158.102000 1 1.000000 1 -3.000000
300 2 38.083900 -325.158000 -148.267000 1 1.000000 1 -3.000000
301 2 37.937800 -326.435000 -138.416000 1 1.000000 1 -3.000000
302 2 38.322600 -326.615000 -128.535000 1 1.000000 1 -3.000000
303 2 37.397700 -327.256000 -118.679000 1 1.000000 1 -3.000000
304 2 34.949900 -327.723000 -109.187000 1 1.000000 1 -3.000000
305 2 34.235300 -326.818000 -99.317800 1 1.000000 1 -3.000000
306 2 33.973200 -327.823000 -89.486800 1 1.000000 1 -3.000000
307 2 30.572600 -325.969000 -80.447400 1 1.000000 1 -3.000000
308 2 27.097800 -323.234000 -71.593600 1 1.000000 1 -3.000000
309 2 22.328800 -321.149000 -63.143300 1 1.000000 1 -3.000000
310 2 18.821400 -319.128000 -54.084100 1 1.000000 1 -3.000000
311 2 13.226500 -315.795000 -46.537600 1 1.000000 1 -3.000000
312 2 6.433290 -311.891000 -40.270600 1 1.000000 1 -3.000000
313 2 -0.873866 -307.181000 -35.517600 1 1.000000 1 -3.000000
314 2 -8.987540 -302.160000 -32.953800 1 1.000000 1 -3.000000
315 2 -17.269500 -296.952000 -31.509100 1 1.000000 1 -3.000000
316 2 -21.997800 -288.244000 -32.280800 1 1.000000 1 -3.000000
317 2 -26.652900 -279.594000 -33.042600 1 1.000000 1 -3.000000
318 2 -30.840000 -270.658000 -32.681100 1 1.000000 13 -3.000000
319 1 -18.457300 -256.391000 -75.908200 1 1.000000 13 0.000000
320 3 -11.170700 -290.595000 -76.328700 1 1.000000 13 0.000000
321 2 -0.905644 -263.085000 -119.171000 1 1.000000 13 -3.000000
322 2 -0.665006 -272.954000 -118.446000 1 1.000000 1 -3.000000
323 2 -3.228560 -282.465000 -118.743000 1 1.000000 1 -3.000000
324 2 -5.979260 -291.695000 -120.874000 1 1.000000 1 -3.000000
325 2 -8.732990 -301.059000 -119.193000 1 1.000000 1 -3.000000
326 2 -13.040600 -309.170000 -115.638000 1 1.000000 1 -3.000000
327 2 -16.653800 -317.691000 -112.155000 1 1.000000 1 -3.000000
328 2 -19.574600 -326.654000 -109.142000 1 1.000000 1 -3.000000
329 2 -21.067900 -335.620000 -105.056000 1 1.000000 1 -3.000000
330 2 -24.200500 -343.334000 -99.403400 1 1.000000 1 -3.000000
331 2 -27.921400 -350.367000 -93.505900 1 1.000000 1 -3.000000
332 2 -29.401300 -357.210000 -86.451400 1 1.000000 1 -3.000000
333 2 -30.108600 -363.998000 -79.213700 1 1.000000 1 -3.000000
334 2 -28.133700 -371.164000 -72.653700 1 1.000000 1 -3.000000
335 2 -25.099100 -376.723000 -64.978100 1 1.000000 1 -3.000000
336 2 -21.820100 -379.303000 -55.998100 1 1.000000 1 -3.000000
337 2 -17.248500 -382.672000 -47.841500 1 1.000000 1 -3.000000
338 2 -13.275600 -385.094000 -39.038300 1 1.000000 1 -3.000000
339 2 -10.244000 -389.138000 -30.547100 1 1.000000 1 -3.000000
340 2 -6.379460 -392.814000 -22.279600 1 1.000000 1 -3.000000
341 2 -2.648380 -395.304000 -13.430300 1 1.000000 1 -3.000000
342 2 0.598693 -396.682000 -4.169410 1 1.000000 1 -3.000000
343 2 5.128200 -399.172000 4.225440 1 1.000000 1 -3.000000
344 2 10.366300 -401.009000 12.403600 1 1.000000 1 -3.000000
345 2 16.379100 -401.831000 20.286400 1 1.000000 14 -3.000000
346 1 31.129000 -446.332000 14.793900 1 1.000000 14 0.000000
347 3 11.701000 -440.734000 -13.725300 1 1.000000 14 0.000000
348 2 33.437200 -487.499000 -8.113860 1 1.000000 14 -3.000000
349 2 31.746100 -483.892000 -17.217000 1 1.000000 1 -3.000000
350 2 32.276300 -481.499000 -26.830800 1 1.000000 1 -3.000000
351 2 28.268500 -478.038000 -35.248200 1 1.000000 1 -3.000000
352 2 21.141300 -475.436000 -41.624500 1 1.000000 1 -3.000000
353 2 14.818900 -471.020000 -47.963300 1 1.000000 1 -3.000000
354 2 8.578270 -465.589000 -53.525100 1 1.000000 1 -3.000000
355 2 1.187840 -460.429000 -57.590800 1 1.000000 1 -3.000000
356 2 -6.739910 -455.369000 -60.607700 1 1.000000 1 -3.000000
357 2 -14.236900 -449.407000 -63.082900 1 1.000000 1 -3.000000
358 2 -22.993000 -444.894000 -64.849700 1 1.000000 1 -3.000000
359 2 -31.758700 -440.412000 -65.685800 1 1.000000 1 -3.000000
360 2 -41.007400 -436.963000 -65.745700 1 1.000000 1 -3.000000
361 2 -50.423700 -433.958000 -65.126200 1 1.000000 1 -3.000000
362 2 -59.391700 -431.548000 -61.548900 1 1.000000 1 -3.000000
363 2 -68.657200 -429.995000 -58.463400 1 1.000000 1 -3.000000
364 2 -77.851300 -428.882000 -55.014900 1 1.000000 1 -3.000000
365 2 -86.774500 -427.382000 -51.057100 1 1.000000 1 -3.000000
366 2 -95.523900 -423.817000 -48.229000 1 1.000000 1 -3.000000
367 2 -103.715000 -419.953000 -44.280500 1 1.000000 1 -3.000000
368 2 -112.388000 -416.827000 -40.805100 1 1.000000 1 -3.000000
369 2 -121.086000 -416.185000 -36.100200 1 1.000000 1 -3.000000
370 2 -128.250000 -412.661000 -30.220300 1 1.000000 1 -3.000000
371 2 -136.036000 -410.005000 -24.738300 1 1.000000 1 -3.000000
372 2 -144.416000 -408.260000 -19.668500 1 1.000000 15 -3.000000
373 1 -142.993000 -361.380000 -24.741600 1 1.000000 15 0.000000
374 3 -118.203000 -372.556000 -46.771600 1 1.000000 15 0.000000
375 2 -125.767000 -321.332000 -42.791700 1 1.000000 15 -3.000000
376 2 -123.646000 -323.953000 -52.097600 1 1.000000 1 -3.000000
377 2 -121.323000 -326.619000 -61.301900 1 1.000000 1 -3.000000
378 2 -118.787000 -331.518000 -69.483500 1 1.000000 1 -3.000000
379 2 -115.426000 -338.106000 -76.208800 1 1.000000 1 -3.000000
380 2 -112.353000 -345.839000 -81.757300 1 1.000000 1 -3.000000
381 2 -110.224000 -354.147000 -86.706000 1 1.000000 1 -3.000000
382 2 -108.578000 -361.249000 -93.347100 1 1.000000 1 -3.000000
383 2 -105.866000 -368.558000 -99.391600 1 1.000000 1 -3.000000
384 2 -105.063000 -374.463000 -107.300000 1 1.000000 1 -3.000000
385 2 -102.912000 -379.920000 -115.240000 1 1.000000 1 -3.000000
386 2 -98.975400 -385.024000 -122.759000 1 1.000000 1 -3.000000
387 2 -96.691600 -389.981000 -131.073000 1 1.000000 1 -3.000000
388 2 -95.316800 -394.327000 -139.915000 1 1.000000 1 -3.000000
389 2 -95.765800 -397.352000 -149.364000 1 1.000000 1 -3.000000
390 2 -96.295700 -400.145000 -158.881000 1 1.000000 1 -3.000000
391 2 -96.391700 -403.341000 -168.319000 1 1.000000 1 -3.000000
392 2 -94.377700 -404.242000 -177.987000 1 1.000000 1 -3.000000
393 2 -90.514700 -404.263000 -187.081000 1 1.000000 1 -3.000000
394 2 -86.134700 -403.290000 -195.896000 1 1.000000 1 -3.000000
395 2 -79.584800 -401.096000 -202.935000 1 1.000000 1 -3.000000
396 2 -71.747300 -401.181000 -209.099000 1 1.000000 1 -3.000000
397 2 -63.059200 -400.098000 -213.682000 1 1.000000 1 -3.000000
398 2 -54.677600 -398.982000 -218.804000 1 1.000000 1 -3.000000
399 2 -46.029400 -398.939000 -223.771000 1 1.000000 16 -3.000000
400 1 -16.367700 -410.777000 -189.081000 1 1.000000 16 0.000000
401 3 -47.767600 -418.997000 -175.870000 1 1.000000 16 0.000000
402 2 -6.100060 -426.265000 -145.695000 1 1.000000 16 -3.000000
403 2 -14.405000 -431.243000 -144.015000 1 1.000000 1 -3.000000
404 2 -22.561100 -436.556000 -142.162000 1 1.000000 1 -3.000000
405 2 -31.625600 -440.088000 -140.228000 1 1.000000 1 -3.000000
406 2 -40.936300 -443.185000 -139.069000 1 1.000000 1 -3.000000
407 2 -50.755400 -444.027000 -139.029000 1 1.000000 1 -3.000000
408 2 -59.486300 -446.950000 -142.628000 1 1.000000 1 -3.000000
409 2 -67.010400 -449.700000 -148.458000 1 1.000000 1 -3.000000
410 2 -72.512700 -455.145000 -154.647000 1 1.000000 1 -3.000000
411 2 -77.852200 -461.203000 -160.312000 1 1.000000 1 -3.000000
412 2 -83.602600 -467.204000 -165.667000 1 1.000000 1 -3.000000
413 2 -89.440000 -473.242000 -170.938000 1 1.000000 1 -3.000000
414 2 -95.376700 -480.463000 -173.900000 1 1.000000 1 -3.000000
415 2 -102.241000 -487.499000 -174.788000 1 1.000000 1 -3.000000
416 2 -111.143000 -491.747000 -174.736000 1 1.000000 1 -3.000000
417 2 -118.497000 -498.353000 -173.623000 1 1.000000 1 -3.000000
418 2 -125.636000 -505.157000 -173.672000 1 1.000000 1 -3.000000
419 2 -130.935000 -513.547000 -173.400000 1 1.000000 1 -3.000000
420 2 -137.742000 -520.385000 -175.667000 1 1.000000 1 -3.000000
421 2 -144.459000 -526.538000 -179.552000 1 1.000000 1 -3.000000
422 2 -151.265000 -533.097000 -182.302000 1 1.000000 1 -3.000000
423 2 -156.776000 -541.272000 -181.597000 1 1.000000 1 -3.000000
424 2 -161.422000 -549.387000 -178.220000 1 1.000000 1 -3.000000
425 2 -168.419000 -555.992000 -175.934000 1 1.000000 1 -3.000000
426 2 -175.752000 -561.953000 -172.999000 1 1.000000 17 -3.000000
427 1 -147.718000 -599.747000 -169.277000 1 1.000000 17 0.000000
428 3 -127.972000 -576.729000 -186.896000 1 1.000000 17 0.000000
429 2 -106.837000 -622.633000 -174.726000 1 1.000000 17 -3.000000
430 2 -101.313000 -616.744000 -180.497000 1 1.000000 1 -3.000000
431 2 -96.397200 -610.693000 -186.570000 1 1.000000 1 -3.000000
432 2 -92.565400 -604.212000 -193.062000 1 1.000000 1 -3.000000
433 2 -88.488000 -595.929000 -196.654000 1 1.000000 1 -3.000000
434 2 -85.872100 -587.237000 -200.560000 1 1.000000 1 -3.000000
435 2 -84.894100 -577.742000 -203.079000 1 1.000000 1 -3.000000
436 2 -82.594200 -569.444000 -207.935000 1 1.000000 1 -3.000000
437 2 -81.805500 -561.234000 -213.367000 1 1.000000 1 -3.000000
438 2 -81.413600 -554.856000 -220.844000 1 1.000000 1 -3.000000
439 2 -81.296900 -547.673000 -227.594000 1 1.000000 1 -3.000000
440 2 -80.455200 -540.048000 -233.876000 1 1.000000 1 -3.000000
441 2 -80.710400 -533.648000 -241.423000 1 1.000000 1 -3.000000
442 2 -78.981800 -525.031000 -245.920000 1 1.000000 1 -3.000000
443 2 -78.657800 -515.498000 -248.755000 1 1.000000 1 -3.000000
444 2 -80.534200 -506.004000 -250.983000 1 1.000000 1 -3.000000
445 2 -80.681600 -496.288000 -253.270000 1 1.000000 1 -3.000000
446 2 -79.268700 -486.891000 -255.677000 1 1.000000 1 -3.000000
447 2 -77.931700 -477.567000 -258.626000 1 1.000000 1 -3.000000
448 2 -75.612700 -468.951000 -262.687000 1 1.000000 1 -3.000000
449 2 -72.561100 -460.965000 -267.594000 1 1.000000 1 -3.000000
450 2 -70.630600 -454.852000 -275.135000 1 1.000000 1 -3.000000
451 2 -65.007200 -449.873000 -281.543000 1 1.000000 1 -3.000000
452 2 -60.331000 -444.301000 -288.209000 1 1.000000 1 -3.000000
453 2 -57.298900 -438.303000 -295.338000 1 1.000000 18 -3.000000
454 1 -20.153800 -465.799000 -304.763000 1 1.000000 18 0.000000
455 3 -40.765300 -486.536000 -285.607000 1 1.000000 18 0.000000
456 2 5.099350 -505.454000 -300.864000 1 1.000000 18 -3.000000
457 2 -0.828834 -511.541000 -295.781000 1 1.000000 1 -3.000000
458 2 -7.527700 -517.785000 -292.036000 1 1.000000 1 -3.000000
459 2 -14.688800 -524.109000 -289.389000 1 1.000000 1 -3.000000
460 2 -22.423100 -529.066000 -285.793000 1 1.000000 1 -3.000000
461 2 -29.159000 -535.615000 -282.740000 1 1.000000 1 -3.000000
462 2 -36.145600 -542.163000 -280.224000 1 1.000000 1 -3.000000
463 2 -41.925000 -549.888000 -277.971000 1 1.000000 1 -3.000000
464 2 -47.938600 -556.369000 -273.648000 1 1.000000 1 -3.000000
465 2 -53.019500 -564.213000 -270.225000 1 1.000000 1 -3.000000
466 2 -57.419200 -572.535000 -266.979000 1 1.000000 1 -3.000000
467 2 -62.129200 -580.727000 -264.192000 1 1.000000 1 -3.000000
468 2 -67.750700 -587.930000 -260.267000 1 1.000000 1 -3.000000
469 2 -72.535000 -595.069000 -255.335000 1 1.000000 1 -3.000000
470 2 -77.827500 -602.452000 -251.463000 1 1.000000 1 -3.000000
471 2 -81.261800 -610.945000 -247.593000 1 1.000000 1 -3.000000
472 2 -86.638500 -618.785000 -244.816000 1 1.000000 1 -3.000000
473 2 -92.819100 -626.400000 -243.762000 1 1.000000 1 -3.000000
474 2 -99.981000 -632.292000 -240.532000 1 1.000000 1 -3.000000
475 2 -108.511000 -635.947000 -236.752000 1 1.000000 1 -3.000000
476 2 -117.615000 -639.560000 -235.598000 1 1.000000 1 -3.000000