LAMMPS data file

4067 atoms
4067 ellipsoids
4516 bonds
8882 angles
0 dihedrals

3 atom types
5 bond types
12 angle types
0 dihedral types

-4631.092947 4670.465898 xlo xhi
-4631.092947 4670.465898 ylo yhi
-4631.092947 4670.465898 zlo zhi

Masses

1 196016.000000
2 1950.000000
3 19500.000000

Atoms

1 2 -185.403000 18.619500 -344.505000 1 1.000000 1 -3.000000
2 2 -189.623000 26.325000 -348.818000 1 1.000000 1 -3.000000
3 2 -192.495000 33.039100 -355.465000 1 1.000000 1 -3.000000
4 2 -194.278000 40.307900 -361.864000 1 1.000000 1 -3.000000
5 2 -196.792000 47.103400 -368.713000 1 1.000000 1 -3.000000
6 2 -197.497000 55.138900 -374.331000 1 1.000000 1 -3.000000
7 2 -198.642000 62.406900 -380.938000 1 1.000000 1 -3.000000
8 2 -200.546000 69.775600 -387.290000 1 1.000000 1 -3.000000
9 2 -199.233000 75.669900 -395.066000 1 1.000000 1 -3.000000
10 2 -196.057000 80.652500 -403.053000 1 1.000000 1 -3.000000
11 2 -193.105000 82.279900 -412.388000 1 1.000000 1 -3.000000
12 2 -188.353000 81.634400 -421.023000 1 1.000000 1 -3.000000
13 2 -182.985000 80.370000 -429.209000 1 1.000000 1 -3.000000
14 2 -177.639000 79.738700 -437.481000 1 1.000000 1 -3.000000
15 2 -173.267000 82.902500 -445.724000 1 1.000000 1 -3.000000
16 2 -166.953000 85.152700 -453.016000 1 1.000000 1 -3.000000
17 2 -161.615000 87.431500 -461.068000 1 1.000000 1 -3.000000
18 2 -158.310000 87.650000 -470.399000 1 1.000000 1 -3.000000
19 2 -157.237000 86.264000 -480.182000 1 1.000000 1 -3.000000
20 2 -154.823000 84.758300 -489.637000 1 1.000000 1 -3.000000
21 2 -152.623000 83.017900 -499.158000 1 1.000000 2 -3.000000
22 1 -182.260000 47.576500 -508.815000 1 1.000000 2 0.000000
23 3 -192.264000 57.842200 -476.777000 1 1.000000 2 0.000000
24 2 -218.744000 19.264500 -499.174000 1 1.000000 2 -3.000000
25 2 -221.572000 22.849300 -490.378000 1 1.000000 1 -3.000000
26 2 -221.870000 26.193500 -481.084000 1 1.000000 1 -3.000000
27 2 -224.432000 30.144700 -472.416000 1 1.000000 1 -3.000000
28 2 -227.315000 34.578100 -464.101000 1 1.000000 1 -3.000000
29 2 -228.847000 40.131300 -456.097000 1 1.000000 1 -3.000000
30 2 -231.448000 45.344900 -447.992000 1 1.000000 1 -3.000000
31 2 -234.612000 50.718000 -440.311000 1 1.000000 1 -3.000000
32 2 -235.323000 56.427500 -432.181000 1 1.000000 1 -3.000000
33 2 -236.431000 61.415800 -423.660000 1 1.000000 1 -3.000000
34 2 -236.753000 66.293100 -415.034000 1 1.000000 1 -3.000000
35 2 -238.031000 72.093700 -407.083000 1 1.000000 1 -3.000000
36 2 -239.377000 78.020500 -399.238000 1 1.000000 1 -3.000000
37 2 -240.855000 84.043500 -391.540000 1 1.000000 1 -3.000000
38 2 -241.238000 88.979000 -382.983000 1 1.000000 1 -3.000000
39 2 -240.759000 92.736500 -373.850000 1 1.000000 1 -3.000000
40 2 -240.570000 95.043900 -364.202000 1 1.000000 1 -3.000000
41 2 -243.140000 97.540300 -354.903000 1 1.000000 1 -3.000000
42 2 -246.491000 99.411000 -345.847000 1 1.000000 1 -3.000000
43 2 -247.862000 100.426000 -336.090000 1 1.000000 1 -3.000000
44 2 -245.916000 102.308000 -326.586000 1 1.000000 1 -3.000000
45 2 -243.265000 106.739000 -318.205000 1 1.000000 1 -3.000000
46 2 -239.032000 110.642000 -310.099000 1 1.000000 1 -3.000000
47 2 -233.627000 113.520000 -302.282000 1 1.000000 1 -3.000000
48 2 -229.700000 115.786000 -293.483000 1 1.000000 3 -3.000000
49 1 -190.576000 133.095000 -313.375000 1 1.000000 3 0.000000
50 3 -211.477000 127.176000 -340.738000 1 1.000000 3 0.000000
51 2 -164.578000 147.181000 -350.146000 1 1.000000 3 -3.000000
52 2 -171.401000 147.815000 -357.269000 1 1.000000 1 -3.000000
53 2 -177.982000 145.934000 -364.447000 1 1.000000 1 -3.000000
54 2 -186.429000 145.796000 -369.537000 1 1.000000 1 -3.000000
55 2 -194.659000 147.416000 -374.836000 1 1.000000 1 -3.000000
56 2 -203.345000 149.889000 -379.065000 1 1.000000 1 -3.000000
57 2 -212.255000 153.413000 -381.342000 1 1.000000 1 -3.000000
58 2 -220.183000 155.892000 -386.811000 1 1.000000 1 -3.000000
59 2 -227.039000 158.622000 -393.395000 1 1.000000 1 -3.000000
60 2 -233.475000 159.921000 -400.898000 1 1.000000 1 -3.000000
61 2 -237.907000 162.155000 -409.559000 1 1.000000 1 -3.000000
62 2 -242.497000 164.334000 -418.036000 1 1.000000 1 -3.000000
63 2 -246.396000 164.694000 -427.121000 1 1.000000 1 -3.000000
64 2 -250.375000 166.302000 -436.019000 1 1.000000 1 -3.000000
65 2 -257.066000 169.408000 -442.596000 1 1.000000 1 -3.000000
66 2 -264.056000 171.789000 -449.155000 1 1.000000 1 -3.000000
67 2 -270.305000 175.107000 -456.063000 1 1.000000 1 -3.000000
68 2 -277.712000 178.252000 -461.749000 1 1.000000 1 -3.000000
69 2 -286.257000 181.454000 -465.547000 1 1.000000 1 -3.000000
70 2 -294.080000 184.401000 -470.777000 1 1.000000 1 -3.000000
71 2 -302.164000 188.221000 -475.009000 1 1.000000 1 -3.000000
72 2 -309.226000 193.406000 -479.583000 1 1.000000 1 -3.000000
73 2 -314.213000 199.537000 -485.598000 1 1.000000 1 -3.000000
74 2 -320.503000 205.261000 -490.635000 1 1.000000 1 -3.000000
75 2 -327.782000 210.555000 -494.716000 1 1.000000 4 -3.000000
76 1 -303.354000 249.644000 -484.758000 1 1.000000 4 0.000000
77 3 -278.748000 224.782000 -485.192000 1 1.000000 4 0.000000
78 2 -263.968000 273.228000 -473.979000 1 1.000000 4 -3.000000
79 2 -256.368000 267.919000 -477.554000 1 1.000000 1 -3.000000
80 2 -249.774000 261.240000 -480.606000 1 1.000000 1 -3.000000
81 2 -244.407000 254.979000 -486.129000 1 1.000000 1 -3.000000
82 2 -240.529000 247.333000 -491.098000 1 1.000000 1 -3.000000
83 2 -238.827000 239.512000 -496.994000 1 1.000000 1 -3.000000
84 2 -237.464000 230.524000 -501.055000 1 1.000000 1 -3.000000
85 2 -235.989000 222.879000 -507.155000 1 1.000000 1 -3.000000
86 2 -233.690000 216.480000 -514.415000 1 1.000000 1 -3.000000
87 2 -230.285000 212.370000 -522.833000 1 1.000000 1 -3.000000
88 2 -227.524000 206.647000 -530.476000 1 1.000000 1 -3.000000
89 2 -227.715000 202.555000 -539.404000 1 1.000000 1 -3.000000
90 2 -227.958000 198.248000 -548.308000 1 1.000000 1 -3.000000
91 2 -227.748000 194.403000 -557.531000 1 1.000000 1 -3.000000
92 2 -228.241000 189.244000 -566.057000 1 1.000000 1 -3.000000
93 2 -228.257000 182.570000 -573.438000 1 1.000000 1 -3.000000
94 2 -228.165000 176.164000 -580.907000 1 1.000000 1 -3.000000
95 2 -229.881000 169.961000 -588.518000 1 1.000000 1 -3.000000
96 2 -231.117000 163.916000 -596.314000 1 1.000000 1 -3.000000
97 2 -234.723000 158.995000 -604.148000 1 1.000000 1 -3.000000
98 2 -239.298000 154.995000 -611.981000 1 1.000000 1 -3.000000
99 2 -242.799000 151.813000 -620.749000 1 1.000000 1 -3.000000
100 2 -245.684000 149.678000 -629.997000 1 1.000000 1 -3.000000
101 2 -248.823000 150.047000 -639.429000 1 1.000000 1 -3.000000
102 2 -252.916000 149.620000 -648.451000 1 1.000000 5 -3.000000
103 1 -251.730000 195.204000 -660.526000 1 1.000000 5 0.000000
104 3 -234.336000 194.533000 -630.194000 1 1.000000 5 0.000000
105 2 -239.385000 240.219000 -654.238000 1 1.000000 5 -3.000000
106 2 -232.050000 240.126000 -647.591000 1 1.000000 1 -3.000000
107 2 -224.874000 238.617000 -640.912000 1 1.000000 1 -3.000000
108 2 -217.323000 235.032000 -635.540000 1 1.000000 1 -3.000000
109 2 -209.646000 232.150000 -630.111000 1 1.000000 1 -3.000000
110 2 -203.663000 226.504000 -624.559000 1 1.000000 1 -3.000000
111 2 -198.422000 219.995000 -619.152000 1 1.000000 1 -3.000000
112 2 -192.419000 214.098000 -613.838000 1 1.000000 1 -3.000000
113 2 -185.990000 207.880000 -609.628000 1 1.000000 1 -3.000000
114 2 -178.549000 204.709000 -604.067000 1 1.000000 1 -3.000000
115 2 -170.685000 201.337000 -599.129000 1 1.000000 1 -3.000000
116 2 -161.823000 199.433000 -595.156000 1 1.000000 1 -3.000000
117 2 -153.240000 196.709000 -591.217000 1 1.000000 1 -3.000000
118 2 -144.873000 193.957000 -586.649000 1 1.000000 1 -3.000000
119 2 -136.374000 189.746000 -583.702000 1 1.000000 1 -3.000000
120 2 -128.742000 185.168000 -579.346000 1 1.000000 1 -3.000000
121 2 -121.329000 178.688000 -578.228000 1 1.000000 1 -3.000000
122 2 -113.768000 172.801000 -575.754000 1 1.000000 1 -3.000000
123 2 -108.000000 164.816000 -574.001000 1 1.000000 1 -3.000000
124 2 -102.661000 157.320000 -570.662000 1 1.000000 1 -3.000000
125 2 -97.114700 150.316000 -566.525000 1 1.000000 1 -3.000000
126 2 -90.818200 144.180000 -561.960000 1 1.000000 1 -3.000000
127 2 -84.036200 141.256000 -555.186000 1 1.000000 1 -3.000000
128 2 -76.894200 137.730000 -549.279000 1 1.000000 1 -3.000000
129 2 -68.556600 133.409000 -546.168000 1 1.000000 6 -3.000000
130 1 -43.778300 173.214000 -540.661000 1 1.000000 6 0.000000
131 3 -75.746900 184.775000 -548.964000 1 1.000000 6 0.000000
132 2 -38.823100 220.106000 -540.024000 1 1.000000 6 -3.000000
133 2 -48.456100 221.352000 -538.254000 1 1.000000 1 -3.000000
134 2 -57.820000 224.110000 -536.863000 1 1.000000 1 -3.000000
135 2 -67.333800 226.474000 -535.716000 1 1.000000 1 -3.000000
136 2 -77.138800 227.708000 -535.080000 1 1.000000 1 -3.000000
137 2 -86.828800 225.428000 -535.352000 1 1.000000 1 -3.000000
138 2 -96.226500 222.539000 -533.487000 1 1.000000 1 -3.000000
139 2 -105.443000 219.646000 -531.455000 1 1.000000 1 -3.000000
140 2 -114.950000 218.529000 -529.122000 1 1.000000 1 -3.000000
141 2 -123.708000 217.851000 -524.478000 1 1.000000 1 -3.000000
142 2 -131.365000 219.331000 -518.410000 1 1.000000 1 -3.000000
143 2 -139.093000 218.302000 -512.331000 1 1.000000 1 -3.000000
144 2 -146.304000 218.370000 -505.539000 1 1.000000 1 -3.000000
145 2 -152.186000 215.952000 -498.015000 1 1.000000 1 -3.000000
146 2 -157.499000 212.412000 -490.496000 1 1.000000 1 -3.000000
147 2 -162.665000 209.177000 -482.771000 1 1.000000 1 -3.000000
148 2 -169.274000 206.612000 -475.848000 1 1.000000 1 -3.000000
149 2 -176.215000 204.343000 -469.190000 1 1.000000 1 -3.000000
150 2 -184.598000 204.611000 -463.923000 1 1.000000 1 -3.000000
151 2 -192.746000 204.700000 -458.258000 1 1.000000 1 -3.000000
152 2 -201.326000 204.847000 -453.269000 1 1.000000 1 -3.000000
153 2 -209.541000 201.840000 -448.543000 1 1.000000 1 -3.000000
154 2 -217.187000 197.503000 -443.966000 1 1.000000 1 -3.000000
155 2 -224.414000 193.280000 -438.601000 1 1.000000 1 -3.000000
156 2 -232.243000 190.237000 -433.251000 1 1.000000 7 -3.000000
157 1 -218.427000 145.385000 -438.057000 1 1.000000 7 0.000000
158 3 -188.627000 163.313000 -442.263000 1 1.000000 7 0.000000
159 2 -186.114000 111.573000 -444.206000 1 1.000000 7 -3.000000
160 2 -177.588000 116.319000 -442.663000 1 1.000000 1 -3.000000
161 2 -168.516000 120.412000 -442.178000 1 1.000000 1 -3.000000
162 2 -160.300000 125.475000 -440.063000 1 1.000000 1 -3.000000
163 2 -154.483000 133.215000 -438.028000 1 1.000000 1 -3.000000
164 2 -149.325000 140.766000 -434.352000 1 1.000000 1 -3.000000
165 2 -146.727000 149.234000 -430.075000 1 1.000000 1 -3.000000
166 2 -144.197000 157.423000 -424.983000 1 1.000000 1 -3.000000
167 2 -140.974000 165.866000 -421.013000 1 1.000000 1 -3.000000
168 2 -136.783000 174.454000 -418.573000 1 1.000000 1 -3.000000
169 2 -131.436000 182.303000 -415.732000 1 1.000000 1 -3.000000
170 2 -127.145000 190.139000 -411.616000 1 1.000000 1 -3.000000
171 2 -122.826000 198.264000 -407.942000 1 1.000000 1 -3.000000
172 2 -117.191000 205.860000 -404.905000 1 1.000000 1 -3.000000
173 2 -111.258000 213.569000 -403.399000 1 1.000000 1 -3.000000
174 2 -105.251000 221.078000 -400.752000 1 1.000000 1 -3.000000
175 2 -98.523500 227.874000 -398.081000 1 1.000000 1 -3.000000
176 2 -93.046900 235.805000 -395.867000 1 1.000000 1 -3.000000
177 2 -87.286400 242.773000 -391.695000 1 1.000000 1 -3.000000
178 2 -84.303800 248.697000 -384.311000 1 1.000000 1 -3.000000
179 2 -83.604300 254.642000 -376.410000 1 1.000000 1 -3.000000
180 2 -84.977400 261.421000 -369.401000 1 1.000000 1 -3.000000
181 2 -88.741700 267.831000 -362.789000 1 1.000000 1 -3.000000
182 2 -90.010900 274.954000 -356.113000 1 1.000000 1 -3.000000
183 2 -91.416800 282.224000 -349.620000 1 1.000000 8 -3.000000
184 1 -137.321000 284.668000 -360.391000 1 1.000000 8 0.000000
185 3 -127.527000 253.694000 -373.723000 1 1.000000 8 0.000000
186 2 -176.396000 269.421000 -382.004000 1 1.000000 8 -3.000000
187 2 -172.378000 260.366000 -381.959000 1 1.000000 1 -3.000000
188 2 -169.049000 251.130000 -382.133000 1 1.000000 1 -3.000000
189 2 -167.200000 241.587000 -380.237000 1 1.000000 1 -3.000000
190 2 -165.734000 232.079000 -377.884000 1 1.000000 1 -3.000000
191 2 -161.368000 223.356000 -376.580000 1 1.000000 1 -3.000000
192 2 -154.942000 216.181000 -374.393000 1 1.000000 1 -3.000000
193 2 -150.759000 208.149000 -370.276000 1 1.000000 1 -3.000000
194 2 -144.161000 201.873000 -366.421000 1 1.000000 1 -3.000000
195 2 -138.662000 194.971000 -361.975000 1 1.000000 1 -3.000000
196 2 -132.718000 187.171000 -361.135000 1 1.000000 1 -3.000000
197 2 -129.529000 177.850000 -360.597000 1 1.000000 1 -3.000000
198 2 -127.762000 168.077000 -359.572000 1 1.000000 1 -3.000000
199 2 -126.391000 158.499000 -357.948000 1 1.000000 1 -3.000000
200 2 -125.799000 148.640000 -357.663000 1 1.000000 1 -3.000000
201 2 -124.608000 138.777000 -357.266000 1 1.000000 1 -3.000000
202 2 -124.142000 128.997000 -356.232000 1 1.000000 1 -3.000000
203 2 -124.055000 119.207000 -354.397000 1 1.000000 1 -3.000000
204 2 -122.906000 109.367000 -353.328000 1 1.000000 1 -3.000000
205 2 -121.751000 99.825800 -355.556000 1 1.000000 1 -3.000000
206 2 -119.675000 90.371600 -357.825000 1 1.000000 1 -3.000000
207 2 -117.623000 80.868700 -359.212000 1 1.000000 1 -3.000000
208 2 -116.677000 71.164800 -360.241000 1 1.000000 1 -3.000000
209 2 -115.429000 61.387800 -358.805000 1 1.000000 1 -3.000000
210 2 -112.040000 52.252200 -356.987000 1 1.000000 9 -3.000000
211 1 -93.598500 55.519300 -313.675000 1 1.000000 9 0.000000
212 3 -118.801000 79.766500 -313.491000 1 1.000000 9 0.000000
213 2 -88.428100 76.147900 -271.557000 1 1.000000 9 -3.000000
214 2 -97.705700 79.677500 -270.456000 1 1.000000 1 -3.000000
215 2 -106.303000 84.317200 -269.292000 1 1.000000 1 -3.000000
216 2 -115.821000 86.995100 -269.286000 1 1.000000 1 -3.000000
217 2 -124.840000 90.096900 -272.233000 1 1.000000 1 -3.000000
218 2 -134.203000 91.816600 -274.915000 1 1.000000 1 -3.000000
219 2 -142.958000 92.121200 -279.524000 1 1.000000 1 -3.000000
220 2 -151.910000 92.187100 -283.831000 1 1.000000 1 -3.000000
221 2 -158.976000 94.426200 -290.335000 1 1.000000 1 -3.000000
222 2 -166.808000 94.746000 -296.329000 1 1.000000 1 -3.000000
223 2 -174.933000 95.165800 -302.093000 1 1.000000 1 -3.000000
224 2 -183.419000 94.522200 -307.089000 1 1.000000 1 -3.000000
225 2 -191.879000 92.943900 -312.146000 1 1.000000 1 -3.000000
226 2 -197.793000 93.191600 -320.023000 1 1.000000 1 -3.000000
227 2 -204.770000 95.560200 -326.583000 1 1.000000 1 -3.000000
228 2 -211.734000 98.570400 -332.795000 1 1.000000 1 -3.000000
229 2 -217.323000 103.473000 -339.278000 1 1.000000 1 -3.000000
230 2 -221.481000 109.798000 -345.532000 1 1.000000 1 -3.000000
231 2 -224.949000 116.472000 -352.067000 1 1.000000 1 -3.000000
232 2 -227.671000 123.725000 -358.235000 1 1.000000 1 -3.000000
233 2 -233.018000 131.211000 -362.125000 1 1.000000 1 -3.000000
234 2 -239.841000 138.318000 -363.220000 1 1.000000 1 -3.000000
235 2 -246.620000 145.583000 -363.918000 1 1.000000 1 -3.000000
236 2 -253.945000 152.158000 -363.435000 1 1.000000 1 -3.000000
237 2 -261.318000 158.658000 -364.903000 1 1.000000 10 -3.000000
238 1 -296.492000 130.297000 -351.371000 1 1.000000 10 0.000000
239 3 -267.798000 113.208000 -340.612000 1 1.000000 10 0.000000
240 2 -314.043000 91.164300 -331.665000 1 1.000000 10 -3.000000
241 2 -305.342000 88.503100 -327.646000 1 1.000000 1 -3.000000
242 2 -298.405000 88.564500 -320.601000 1 1.000000 1 -3.000000
243 2 -291.328000 88.272600 -313.584000 1 1.000000 1 -3.000000
244 2 -284.625000 88.269000 -306.316000 1 1.000000 1 -3.000000
245 2 -279.063000 87.395800 -298.191000 1 1.000000 1 -3.000000
246 2 -275.232000 87.385200 -289.069000 1 1.000000 1 -3.000000
247 2 -272.960000 88.800200 -279.566000 1 1.000000 1 -3.000000
248 2 -272.026000 89.223700 -269.705000 1 1.000000 1 -3.000000
249 2 -269.419000 87.327100 -260.431000 1 1.000000 1 -3.000000
250 2 -268.540000 87.779400 -250.642000 1 1.000000 1 -3.000000
251 2 -269.099000 90.246700 -241.121000 1 1.000000 1 -3.000000
252 2 -268.586000 91.338300 -231.282000 1 1.000000 1 -3.000000
253 2 -269.558000 92.007200 -221.471000 1 1.000000 1 -3.000000
254 2 -271.370000 92.439300 -211.756000 1 1.000000 1 -3.000000
255 2 -275.175000 95.705700 -203.243000 1 1.000000 1 -3.000000
256 2 -280.670000 98.417400 -195.479000 1 1.000000 1 -3.000000
257 2 -284.550000 100.338000 -186.534000 1 1.000000 1 -3.000000
258 2 -289.291000 103.227000 -178.239000 1 1.000000 1 -3.000000
259 2 -294.033000 107.067000 -170.507000 1 1.000000 1 -3.000000
260 2 -299.589000 112.821000 -164.606000 1 1.000000 1 -3.000000
261 2 -305.066000 118.712000 -158.795000 1 1.000000 1 -3.000000
262 2 -311.809000 124.982000 -155.114000 1 1.000000 1 -3.000000
263 2 -318.847000 130.622000 -151.055000 1 1.000000 1 -3.000000
264 2 -325.968000 136.135000 -146.727000 1 1.000000 11 -3.000000
265 1 -357.619000 133.584000 -181.641000 1 1.000000 11 0.000000
266 3 -330.624000 114.884000 -193.838000 1 1.000000 11 0.000000
267 2 -371.873000 120.839000 -224.740000 1 1.000000 11 -3.000000
268 2 -364.007000 116.621000 -228.809000 1 1.000000 1 -3.000000
269 2 -356.782000 110.132000 -230.684000 1 1.000000 1 -3.000000
270 2 -349.880000 103.112000 -231.660000 1 1.000000 1 -3.000000
271 2 -342.521000 96.611500 -231.075000 1 1.000000 1 -3.000000
272 2 -336.482000 89.045400 -229.166000 1 1.000000 1 -3.000000
273 2 -332.767000 80.322700 -226.540000 1 1.000000 1 -3.000000
274 2 -329.282000 72.017000 -222.360000 1 1.000000 1 -3.000000
275 2 -325.763000 64.193700 -217.337000 1 1.000000 1 -3.000000
276 2 -322.453000 57.119900 -211.301000 1 1.000000 1 -3.000000
277 2 -318.230000 50.678300 -205.033000 1 1.000000 1 -3.000000
278 2 -315.934000 43.873800 -198.181000 1 1.000000 1 -3.000000
279 2 -314.734000 38.807500 -189.815000 1 1.000000 1 -3.000000
280 2 -313.613000 34.896000 -180.799000 1 1.000000 1 -3.000000
281 2 -313.894000 30.085200 -172.233000 1 1.000000 1 -3.000000
282 2 -313.496000 25.506000 -163.475000 1 1.000000 1 -3.000000
283 2 -311.889000 22.485200 -154.211000 1 1.000000 1 -3.000000
284 2 -311.333000 20.323100 -144.571000 1 1.000000 1 -3.000000
285 2 -311.446000 19.146100 -134.694000 1 1.000000 1 -3.000000
286 2 -310.776000 20.094900 -124.875000 1 1.000000 1 -3.000000
287 2 -311.715000 23.647200 -115.721000 1 1.000000 1 -3.000000
288 2 -314.168000 28.881800 -107.675000 1 1.000000 1 -3.000000
289 2 -319.265000 34.031000 -100.865000 1 1.000000 1 -3.000000
290 2 -324.228000 38.766600 -93.757400 1 1.000000 1 -3.000000
291 2 -328.227000 43.612800 -85.992000 1 1.000000 12 -3.000000
292 1 -373.338000 35.216000 -97.168800 1 1.000000 12 0.000000
293 3 -355.594000 13.519700 -118.183000 1 1.000000 12 0.000000
294 2 -407.480000 13.127700 -121.001000 1 1.000000 12 -3.000000
295 2 -402.791000 6.186240 -126.263000 1 1.000000 1 -3.000000
296 2 -396.475000 -0.956521 -128.830000 1 1.000000 1 -3.000000
297 2 -391.474000 -8.552400 -132.685000 1 1.000000 1 -3.000000
298 2 -385.872000 -16.216700 -135.305000 1 1.000000 1 -3.000000
299 2 -378.170000 -22.053600 -137.093000 1 1.000000 1 -3.000000
300 2 -368.888000 -25.432000 -138.225000 1 1.000000 1 -3.000000
301 2 -360.396000 -30.368800 -139.274000 1 1.000000 1 -3.000000
302 2 -351.646000 -34.042000 -142.011000 1 1.000000 1 -3.000000
303 2 -344.139000 -39.166700 -145.986000 1 1.000000 1 -3.000000
304 2 -337.955000 -45.569700 -150.338000 1 1.000000 1 -3.000000
305 2 -333.068000 -53.408300 -153.832000 1 1.000000 1 -3.000000
306 2 -328.321000 -60.868300 -158.322000 1 1.000000 1 -3.000000
307 2 -323.040000 -68.678500 -161.373000 1 1.000000 1 -3.000000
308 2 -318.146000 -76.181500 -165.404000 1 1.000000 1 -3.000000
309 2 -315.232000 -84.275400 -170.306000 1 1.000000 1 -3.000000
310 2 -314.101000 -91.868500 -176.600000 1 1.000000 1 -3.000000
311 2 -312.358000 -97.710100 -184.382000 1 1.000000 1 -3.000000
312 2 -309.610000 -104.326000 -191.196000 1 1.000000 1 -3.000000
313 2 -308.855000 -111.129000 -198.301000 1 1.000000 1 -3.000000
314 2 -310.335000 -117.589000 -205.618000 1 1.000000 1 -3.000000
315 2 -311.606000 -124.278000 -212.808000 1 1.000000 1 -3.000000
316 2 -313.743000 -129.223000 -221.024000 1 1.000000 1 -3.000000
317 2 -317.461000 -135.488000 -227.737000 1 1.000000 1 -3.000000
318 2 -320.426000 -141.174000 -235.270000 1 1.000000 13 -3.000000
319 1 -366.812000 -133.734000 -230.650000 1 1.000000 13 0.000000
320 3 -352.637000 -108.563000 -210.751000 1 1.000000 13 0.000000
321 2 -404.409000 -110.854000 -213.744000 1 1.000000 13 -3.000000
322 2 -399.432000 -103.138000 -210.164000 1 1.000000 1 -3.000000
323 2 -396.728000 -94.679000 -205.674000 1 1.000000 1 -3.000000
324 2 -391.879000 -86.168900 -204.546000 1 1.000000 1 -3.000000
325 2 -386.476000 -78.444000 -201.409000 1 1.000000 1 -3.000000
326 2 -379.072000 -72.441600 -198.905000 1 1.000000 1 -3.000000
327 2 -370.316000 -68.894000 -195.857000 1 1.000000 1 -3.000000
328 2 -360.656000 -67.728200 -193.885000 1 1.000000 1 -3.000000
329 2 -351.032000 -66.251300 -192.525000 1 1.000000 1 -3.000000
330 2 -341.112000 -67.364700 -193.319000 1 1.000000 1 -3.000000
331 2 -331.412000 -68.617800 -194.618000 1 1.000000 1 -3.000000
332 2 -321.550000 -69.349900 -195.452000 1 1.000000 1 -3.000000
333 2 -312.055000 -71.633800 -197.317000 1 1.000000 1 -3.000000
334 2 -302.830000 -71.973300 -201.037000 1 1.000000 1 -3.000000
335 2 -294.741000 -71.968400 -206.705000 1 1.000000 1 -3.000000
336 2 -286.320000 -72.858300 -211.764000 1 1.000000 1 -3.000000
337 2 -279.031000 -73.875400 -218.369000 1 1.000000 1 -3.000000
338 2 -271.050000 -74.178500 -224.074000 1 1.000000 1 -3.000000
339 2 -264.321000 -72.733300 -231.209000 1 1.000000 1 -3.000000
340 2 -256.713000 -69.747000 -236.955000 1 1.000000 1 -3.000000
341 2 -248.393000 -65.891600 -240.623000 1 1.000000 1 -3.000000
342 2 -239.736000 -61.899100 -243.338000 1 1.000000 1 -3.000000
343 2 -230.781000 -57.564300 -243.413000 1 1.000000 1 -3.000000
344 2 -222.598000 -52.052000 -243.360000 1 1.000000 1 -3.000000
345 2 -213.873000 -47.244300 -243.747000 1 1.000000 14 -3.000000
346 1 -205.885000 -44.460900 -197.323000 1 1.000000 14 0.000000
347 3 -233.049000 -66.461800 -199.496000 1 1.000000 14 0.000000
348 2 -213.013000 -57.265000 -152.515000 1 1.000000 14 -3.000000
349 2 -218.204000 -65.398700 -154.509000 1 1.000000 1 -3.000000
350 2 -221.238000 -74.855900 -155.050000 1 1.000000 1 -3.000000
351 2 -225.495000 -83.339300 -157.872000 1 1.000000 1 -3.000000
352 2 -230.808000 -90.758900 -161.588000 1 1.000000 1 -3.000000
353 2 -237.433000 -97.852100 -163.433000 1 1.000000 1 -3.000000
354 2 -243.831000 -105.298000 -164.767000 1 1.000000 1 -3.000000
355 2 -248.623000 -113.774000 -166.491000 1 1.000000 1 -3.000000
356 2 -253.839000 -121.640000 -169.612000 1 1.000000 1 -3.000000
357 2 -258.848000 -129.712000 -172.431000 1 1.000000 1 -3.000000
358 2 -261.574000 -138.212000 -176.672000 1 1.000000 1 -3.000000
359 2 -267.007000 -144.812000 -181.600000 1 1.000000 1 -3.000000
360 2 -271.775000 -151.883000 -186.555000 1 1.000000 1 -3.000000
361 2 -277.028000 -157.569000 -192.877000 1 1.000000 1 -3.000000
362 2 -280.665000 -164.795000 -198.596000 1 1.000000 1 -3.000000
363 2 -284.939000 -170.415000 -205.545000 1 1.000000 1 -3.000000
364 2 -290.082000 -173.946000 -213.178000 1 1.000000 1 -3.000000
365 2 -295.849000 -176.029000 -220.966000 1 1.000000 1 -3.000000
366 2 -302.453000 -179.238000 -227.611000 1 1.000000 1 -3.000000
367 2 -309.967000 -184.728000 -230.951000 1 1.000000 1 -3.000000
368 2 -317.392000 -190.026000 -234.993000 1 1.000000 1 -3.000000
369 2 -324.426000 -194.919000 -239.816000 1 1.000000 1 -3.000000
370 2 -329.923000 -202.212000 -243.610000 1 1.000000 1 -3.000000
371 2 -333.402000 -210.810000 -247.067000 1 1.000000 1 -3.000000
372 2 -337.242000 -219.769000 -248.373000 1 1.000000 15 -3.000000
373 1 -303.759000 -229.516000 -280.155000 1 1.000000 15 0.000000
374 3 -286.094000 -213.570000 -254.574000 1 1.000000 15 0.000000
375 2 -259.587000 -228.234000 -296.643000 1 1.000000 15 -3.000000
376 2 -256.531000 -228.604000 -287.240000 1 1.000000 1 -3.000000
377 2 -252.128000 -227.318000 -278.528000 1 1.000000 1 -3.000000
378 2 -248.048000 -227.053000 -269.490000 1 1.000000 1 -3.000000
379 2 -245.305000 -226.716000 -260.024000 1 1.000000 1 -3.000000
380 2 -242.566000 -224.396000 -250.747000 1 1.000000 1 -3.000000
381 2 -240.930000 -221.831000 -241.322000 1 1.000000 1 -3.000000
382 2 -238.881000 -220.089000 -231.822000 1 1.000000 1 -3.000000
383 2 -237.526000 -217.495000 -222.325000 1 1.000000 1 -3.000000
384 2 -234.773000 -216.418000 -212.889000 1 1.000000 1 -3.000000
385 2 -232.692000 -217.340000 -203.312000 1 1.000000 1 -3.000000
386 2 -231.958000 -221.451000 -194.348000 1 1.000000 1 -3.000000
387 2 -228.694000 -224.650000 -185.611000 1 1.000000 1 -3.000000
388 2 -223.189000 -225.269000 -177.372000 1 1.000000 1 -3.000000
389 2 -216.748000 -226.274000 -169.955000 1 1.000000 1 -3.000000
390 2 -209.600000 -226.318000 -163.101000 1 1.000000 1 -3.000000
391 2 -202.407000 -224.330000 -156.549000 1 1.000000 1 -3.000000
392 2 -194.554000 -221.438000 -151.291000 1 1.000000 1 -3.000000
393 2 -186.624000 -218.904000 -145.927000 1 1.000000 1 -3.000000
394 2 -179.027000 -215.829000 -140.340000 1 1.000000 1 -3.000000
395 2 -170.833000 -213.614000 -135.260000 1 1.000000 1 -3.000000
396 2 -163.405000 -213.171000 -128.760000 1 1.000000 1 -3.000000
397 2 -158.806000 -211.411000 -120.133000 1 1.000000 1 -3.000000
398 2 -154.716000 -209.136000 -111.448000 1 1.000000 1 -3.000000
399 2 -152.424000 -205.919000 -102.431000 1 1.000000 16 -3.000000
400 1 -185.660000 -225.746000 -75.434200 1 1.000000 16 0.000000
401 3 -185.111000 -246.266000 -103.828000 1 1.000000 16 0.000000
402 2 -219.075000 -257.751000 -66.254600 1 1.000000 16 -3.000000
403 2 -214.815000 -264.204000 -72.392500 1 1.000000 1 -3.000000
404 2 -208.406000 -270.210000 -77.036200 1 1.000000 1 -3.000000
405 2 -202.193000 -277.702000 -78.676100 1 1.000000 1 -3.000000
406 2 -196.116000 -285.388000 -79.724100 1 1.000000 1 -3.000000
407 2 -189.449000 -292.707000 -80.738000 1 1.000000 1 -3.000000
408 2 -183.604000 -300.734000 -80.958100 1 1.000000 1 -3.000000
409 2 -176.991000 -307.955000 -79.642100 1 1.000000 1 -3.000000
410 2 -169.075000 -313.707000 -78.193300 1 1.000000 1 -3.000000
411 2 -162.014000 -319.763000 -74.774800 1 1.000000 1 -3.000000
412 2 -155.087000 -324.510000 -69.525000 1 1.000000 1 -3.000000
413 2 -150.075000 -331.245000 -64.272000 1 1.000000 1 -3.000000
414 2 -147.029000 -338.070000 -57.717600 1 1.000000 1 -3.000000
415 2 -142.938000 -344.934000 -52.000600 1 1.000000 1 -3.000000
416 2 -138.025000 -350.923000 -45.736600 1 1.000000 1 -3.000000
417 2 -135.720000 -357.122000 -38.429900 1 1.000000 1 -3.000000
418 2 -134.948000 -363.507000 -30.860000 1 1.000000 1 -3.000000
419 2 -136.807000 -369.805000 -23.460600 1 1.000000 1 -3.000000
420 2 -139.146000 -374.785000 -15.287900 1 1.000000 1 -3.000000
421 2 -143.126000 -378.315000 -7.070730 1 1.000000 1 -3.000000
422 2 -149.242000 -381.699000 -0.130162 1 1.000000 1 -3.000000
423 2 -155.337000 -387.554000 4.944810 1 1.000000 1 -3.000000
424 2 -161.918000 -393.548000 9.428670 1 1.000000 1 -3.000000
425 2 -167.392000 -400.107000 14.431600 1 1.000000 1 -3.000000
426 2 -171.801000 -406.314000 20.763900 1 1.000000 17 -3.000000
427 1 -193.045000 -423.138000 -17.844600 1 1.000000 17 0.000000
428 3 -161.931000 -412.709000 -29.852200 1 1.000000 17 0.000000
429 2 -196.047000 -431.230000 -64.243300 1 1.000000 17 -3.000000
430 2 -186.244000 -431.486000 -65.024500 1 1.000000 1 -3.000000
431 2 -176.621000 -432.129000 -67.419500 1 1.000000 1 -3.000000
432 2 -166.866000 -433.625000 -68.494700 1 1.000000 1 -3.000000
433 2 -156.957000 -432.941000 -68.396300 1 1.000000 1 -3.000000
434 2 -147.235000 -432.438000 -67.062100 1 1.000000 1 -3.000000
435 2 -137.337000 -431.438000 -66.699200 1 1.000000 1 -3.000000
436 2 -127.479000 -430.633000 -66.901600 1 1.000000 1 -3.000000
437 2 -117.874000 -428.592000 -68.066700 1 1.000000 1 -3.000000
438 2 -108.250000 -427.511000 -69.838800 1 1.000000 1 -3.000000
439 2 -98.380200 -426.942000 -68.679800 1 1.000000 1 -3.000000
440 2 -88.920800 -424.471000 -67.138800 1 1.000000 1 -3.000000
441 2 -79.909900 -423.286000 -63.072400 1 1.000000 1 -3.000000
442 2 -70.184000 -423.705000 -61.228500 1 1.000000 1 -3.000000
443 2 -60.460600 -423.604000 -59.289200 1 1.000000 1 -3.000000
444 2 -50.880200 -425.200000 -56.929600 1 1.000000 1 -3.000000
445 2 -41.514100 -428.201000 -56.795200 1 1.000000 1 -3.000000
446 2 -32.558100 -432.125000 -55.194000 1 1.000000 1 -3.000000
447 2 -23.573800 -436.031000 -53.690600 1 1.000000 1 -3.000000
448 2 -14.256000 -439.707000 -53.491300 1 1.000000 1 -3.000000
449 2 -5.543820 -444.268000 -55.409500 1 1.000000 1 -3.000000
450 2 3.488970 -448.092000 -56.248000 1 1.000000 1 -3.000000
451 2 13.410800 -448.958000 -56.936400 1 1.000000 1 -3.000000
452 2 23.204000 -450.149000 -57.398400 1 1.000000 1 -3.000000
453 2 32.891300 -451.766000 -58.135100 1 1.000000 18 -3.000000
454 1 48.913800 -408.762000 -46.990600 1 1.000000 18 0.000000
455 3 15.230000 -407.525000 -37.518300 1 1.000000 18 0.000000
456 2 44.500900 -365.387000 -28.970100 1 1.000000 18 -3.000000
457 2 35.996500 -367.354000 -24.267600 1 1.000000 1 -3.000000
458 2 27.199100 -367.685000 -19.716200 1 1.000000 1 -3.000000
459 2 19.449200 -369.287000 -13.707100 1 1.000000 1 -3.000000
460 2 11.772300 -372.835000 -8.572390 1 1.000000 1 -3.000000
461 2 4.271920 -378.488000 -5.473600 1 1.000000 1 -3.000000
462 2 -2.809340 -384.748000 -2.723280 1 1.000000 1 -3.000000
463 2 -9.139620 -390.561000 2.249480 1 1.000000 1 -3.000000
464 2 -14.338000 -396.099000 8.618120 1 1.000000 1 -3.000000
465 2 -18.014200 -401.646000 15.935700 1 1.000000 1 -3.000000
466 2 -20.805000 -406.536000 24.044400 1 1.000000 1 -3.000000
467 2 -23.602200 -411.196000 32.268800 1 1.000000 1 -3.000000
468 2 -26.900200 -417.394000 39.466600 1 1.000000 1 -3.000000