LAMMPS data file

4067 atoms
4067 ellipsoids
4516 bonds
8882 angles
0 dihedrals

3 atom types
5 bond types
12 angle types
0 dihedral types

-4631.092947 4670.465898 xlo xhi
-4631.092947 4670.465898 ylo yhi
-4631.092947 4670.465898 zlo zhi

Masses

1 196016.000000
2 1950.000000
3 19500.000000

Atoms

1 2 139.875000 -902.804000 133.013000 1 1.000000 1 -3.000000
2 2 135.281000 -897.776000 125.826000 1 1.000000 1 -3.000000
3 2 130.427000 -892.331000 119.163000 1 1.000000 1 -3.000000
4 2 125.813000 -885.561000 113.590000 1 1.000000 1 -3.000000
5 2 121.800000 -878.828000 107.566000 1 1.000000 1 -3.000000
6 2 117.155000 -873.071000 100.923000 1 1.000000 1 -3.000000
7 2 112.047000 -867.480000 94.550400 1 1.000000 1 -3.000000
8 2 106.655000 -861.249000 88.941200 1 1.000000 1 -3.000000
9 2 101.497000 -855.457000 82.752600 1 1.000000 1 -3.000000
10 2 96.850800 -849.843000 76.128300 1 1.000000 1 -3.000000
11 2 92.661500 -843.878000 69.391500 1 1.000000 1 -3.000000
12 2 89.902600 -836.800000 63.109500 1 1.000000 1 -3.000000
13 2 87.616700 -828.126000 58.941700 1 1.000000 1 -3.000000
14 2 87.842400 -818.696000 55.829900 1 1.000000 1 -3.000000
15 2 89.452800 -809.882000 51.656200 1 1.000000 1 -3.000000
16 2 91.225300 -801.319000 47.183200 1 1.000000 1 -3.000000
17 2 92.774600 -792.311000 43.360500 1 1.000000 1 -3.000000
18 2 93.205600 -784.713000 37.098500 1 1.000000 1 -3.000000
19 2 92.853800 -777.576000 30.162100 1 1.000000 1 -3.000000
20 2 94.021500 -771.095000 22.852000 1 1.000000 1 -3.000000
21 2 96.576100 -765.672000 14.972300 1 1.000000 2 -3.000000
22 1 78.994300 -791.884000 -20.159200 1 1.000000 2 0.000000
23 3 65.796200 -807.026000 8.459700 1 1.000000 2 0.000000
24 2 51.127600 -825.764000 -37.594700 1 1.000000 2 -3.000000
25 2 45.638000 -825.326000 -29.320300 1 1.000000 1 -3.000000
26 2 38.706600 -826.168000 -22.283700 1 1.000000 1 -3.000000
27 2 32.970300 -825.760000 -14.248200 1 1.000000 1 -3.000000
28 2 27.850500 -824.300000 -5.896340 1 1.000000 1 -3.000000
29 2 22.460300 -822.529000 2.160820 1 1.000000 1 -3.000000
30 2 17.471600 -821.532000 10.693500 1 1.000000 1 -3.000000
31 2 10.100800 -819.724000 17.018200 1 1.000000 1 -3.000000
32 2 3.529790 -815.882000 23.377800 1 1.000000 1 -3.000000
33 2 -3.392390 -811.233000 28.732300 1 1.000000 1 -3.000000
34 2 -10.676400 -807.956000 34.540900 1 1.000000 1 -3.000000
35 2 -17.401500 -804.677000 41.151500 1 1.000000 1 -3.000000
36 2 -24.038700 -801.519000 47.713000 1 1.000000 1 -3.000000
37 2 -30.214100 -796.739000 53.920600 1 1.000000 1 -3.000000
38 2 -35.822500 -791.424000 60.198600 1 1.000000 1 -3.000000
39 2 -40.918400 -785.448000 66.254100 1 1.000000 1 -3.000000
40 2 -46.659100 -781.002000 73.109100 1 1.000000 1 -3.000000
41 2 -50.805300 -781.719000 82.028400 1 1.000000 1 -3.000000
42 2 -54.088800 -779.768000 91.143300 1 1.000000 1 -3.000000
43 2 -57.927900 -780.138000 100.258000 1 1.000000 1 -3.000000
44 2 -61.911100 -777.423000 108.887000 1 1.000000 1 -3.000000
45 2 -65.969700 -772.435000 116.377000 1 1.000000 1 -3.000000
46 2 -68.905700 -766.398000 123.679000 1 1.000000 1 -3.000000
47 2 -70.625700 -759.139000 130.242000 1 1.000000 1 -3.000000
48 2 -73.144200 -752.442000 137.040000 1 1.000000 3 -3.000000
49 1 -68.903800 -712.317000 112.557000 1 1.000000 3 0.000000
50 3 -65.455200 -737.134000 88.026100 1 1.000000 3 0.000000
51 2 -64.985000 -687.471000 72.646600 1 1.000000 3 -3.000000
52 2 -66.959900 -694.278000 65.750900 1 1.000000 1 -3.000000
53 2 -70.199900 -701.481000 59.797100 1 1.000000 1 -3.000000
54 2 -71.846800 -709.699000 54.373000 1 1.000000 1 -3.000000
55 2 -73.186500 -718.241000 49.545700 1 1.000000 1 -3.000000
56 2 -74.612300 -727.229000 45.694700 1 1.000000 1 -3.000000
57 2 -76.086400 -736.724000 43.081300 1 1.000000 1 -3.000000
58 2 -79.980200 -745.115000 39.651000 1 1.000000 1 -3.000000
59 2 -85.083500 -753.596000 40.033000 1 1.000000 1 -3.000000
60 2 -88.776300 -762.439000 42.445200 1 1.000000 1 -3.000000
61 2 -93.011400 -770.958000 45.178100 1 1.000000 1 -3.000000
62 2 -98.502100 -779.031000 47.122900 1 1.000000 1 -3.000000
63 2 -102.806000 -787.908000 47.821600 1 1.000000 1 -3.000000
64 2 -108.793000 -795.542000 50.223400 1 1.000000 1 -3.000000
65 2 -115.122000 -802.272000 53.696800 1 1.000000 1 -3.000000
66 2 -120.346000 -809.539000 58.038400 1 1.000000 1 -3.000000
67 2 -124.128000 -817.392000 62.680500 1 1.000000 1 -3.000000
68 2 -130.281000 -824.252000 66.395400 1 1.000000 1 -3.000000
69 2 -138.403000 -829.474000 68.486200 1 1.000000 1 -3.000000
70 2 -146.749000 -834.161000 71.106700 1 1.000000 1 -3.000000
71 2 -154.467000 -839.665000 73.841600 1 1.000000 1 -3.000000
72 2 -162.161000 -845.834000 74.291300 1 1.000000 1 -3.000000
73 2 -169.781000 -851.719000 76.698600 1 1.000000 1 -3.000000
74 2 -177.553000 -857.163000 79.570800 1 1.000000 1 -3.000000
75 2 -185.524000 -862.439000 81.999700 1 1.000000 4 -3.000000
76 1 -213.212000 -844.871000 48.096800 1 1.000000 4 0.000000
77 3 -180.898000 -836.753000 37.219100 1 1.000000 4 0.000000
78 2 -221.064000 -821.892000 7.637070 1 1.000000 4 -3.000000
79 2 -212.824000 -823.678000 2.588050 1 1.000000 1 -3.000000
80 2 -204.750000 -826.331000 -2.330280 1 1.000000 1 -3.000000
81 2 -196.577000 -829.586000 -6.875230 1 1.000000 1 -3.000000
82 2 -186.837000 -830.657000 -7.804930 1 1.000000 1 -3.000000
83 2 -176.968000 -831.859000 -7.727230 1 1.000000 1 -3.000000
84 2 -167.750000 -835.414000 -6.543040 1 1.000000 1 -3.000000
85 2 -159.729000 -841.115000 -5.349170 1 1.000000 1 -3.000000
86 2 -152.628000 -847.163000 -1.969720 1 1.000000 1 -3.000000
87 2 -144.324000 -852.038000 0.424238 1 1.000000 1 -3.000000
88 2 -134.826000 -854.698000 1.811960 1 1.000000 1 -3.000000
89 2 -125.364000 -856.065000 4.304180 1 1.000000 1 -3.000000
90 2 -116.377000 -856.235000 8.425450 1 1.000000 1 -3.000000
91 2 -107.457000 -857.577000 12.482000 1 1.000000 1 -3.000000
92 2 -98.342300 -857.688000 16.228800 1 1.000000 1 -3.000000
93 2 -89.275900 -858.805000 19.935500 1 1.000000 1 -3.000000
94 2 -80.616700 -860.854000 24.328100 1 1.000000 1 -3.000000
95 2 -71.766200 -863.485000 27.854500 1 1.000000 1 -3.000000
96 2 -65.074700 -867.119000 34.086000 1 1.000000 1 -3.000000
97 2 -58.366400 -871.979000 39.596000 1 1.000000 1 -3.000000
98 2 -52.301100 -877.656000 44.971200 1 1.000000 1 -3.000000
99 2 -48.947700 -885.232000 50.558800 1 1.000000 1 -3.000000
100 2 -42.642300 -892.388000 53.249500 1 1.000000 1 -3.000000
101 2 -38.128200 -901.027000 55.555500 1 1.000000 1 -3.000000
102 2 -34.174700 -909.722000 58.114600 1 1.000000 5 -3.000000
103 1 -51.025200 -937.742000 24.142200 1 1.000000 5 0.000000
104 3 -57.387500 -905.560000 11.879800 1 1.000000 5 0.000000
105 2 -69.632000 -945.868000 -18.524800 1 1.000000 5 -3.000000
106 2 -70.310000 -936.610000 -22.007600 1 1.000000 1 -3.000000
107 2 -71.630300 -927.243000 -24.967200 1 1.000000 1 -3.000000
108 2 -72.609900 -917.571000 -26.941000 1 1.000000 1 -3.000000
109 2 -71.871100 -908.074000 -29.384600 1 1.000000 1 -3.000000
110 2 -68.606300 -898.800000 -29.544800 1 1.000000 1 -3.000000
111 2 -66.445900 -889.142000 -28.865000 1 1.000000 1 -3.000000
112 2 -64.769400 -879.389000 -30.060400 1 1.000000 1 -3.000000
113 2 -61.865700 -870.126000 -31.842600 1 1.000000 1 -3.000000
114 2 -58.366400 -861.368000 -34.913900 1 1.000000 1 -3.000000
115 2 -55.833100 -852.538000 -38.638900 1 1.000000 1 -3.000000
116 2 -54.717200 -843.344000 -42.282000 1 1.000000 1 -3.000000
117 2 -54.733700 -833.796000 -44.707600 1 1.000000 1 -3.000000
118 2 -58.124200 -824.700000 -46.746600 1 1.000000 1 -3.000000
119 2 -61.923700 -815.589000 -46.823100 1 1.000000 1 -3.000000
120 2 -63.024800 -805.989000 -48.824900 1 1.000000 1 -3.000000
121 2 -67.274100 -797.544000 -51.817700 1 1.000000 1 -3.000000
122 2 -71.748100 -788.869000 -53.554600 1 1.000000 1 -3.000000
123 2 -78.067500 -781.297000 -54.334400 1 1.000000 1 -3.000000
124 2 -82.681000 -772.456000 -53.987400 1 1.000000 1 -3.000000
125 2 -88.396400 -764.591000 -51.971500 1 1.000000 1 -3.000000
126 2 -91.639200 -755.850000 -48.604500 1 1.000000 1 -3.000000
127 2 -93.491000 -746.806000 -45.298300 1 1.000000 1 -3.000000
128 2 -96.162000 -737.951000 -41.701600 1 1.000000 1 -3.000000
129 2 -96.983700 -729.159000 -36.974500 1 1.000000 6 -3.000000
130 1 -67.117100 -732.674000 -0.527358 1 1.000000 6 0.000000
131 3 -55.290700 -756.795000 -23.097100 1 1.000000 6 0.000000
132 2 -28.378700 -749.341000 20.723400 1 1.000000 6 -3.000000
133 2 -25.139500 -754.511000 12.920500 1 1.000000 1 -3.000000
134 2 -20.270500 -759.309000 5.766820 1 1.000000 1 -3.000000
135 2 -16.155500 -764.699000 -1.446680 1 1.000000 1 -3.000000
136 2 -13.410700 -769.641000 -9.537320 1 1.000000 1 -3.000000
137 2 -11.829900 -774.730000 -17.843600 1 1.000000 1 -3.000000
138 2 -10.692200 -778.528000 -26.887500 1 1.000000 1 -3.000000
139 2 -10.303000 -783.636000 -35.372000 1 1.000000 1 -3.000000
140 2 -10.392500 -788.663000 -43.798900 1 1.000000 1 -3.000000
141 2 -10.730800 -794.709000 -51.694900 1 1.000000 1 -3.000000
142 2 -9.915320 -800.751000 -59.411000 1 1.000000 1 -3.000000
143 2 -8.538150 -806.498000 -67.383800 1 1.000000 1 -3.000000
144 2 -9.738610 -813.018000 -74.682700 1 1.000000 1 -3.000000
145 2 -13.627500 -818.426000 -81.999300 1 1.000000 1 -3.000000
146 2 -17.199700 -825.826000 -87.579400 1 1.000000 1 -3.000000
147 2 -23.143600 -832.926000 -91.128400 1 1.000000 1 -3.000000
148 2 -29.586300 -840.312000 -92.860700 1 1.000000 1 -3.000000
149 2 -34.615700 -848.813000 -93.540000 1 1.000000 1 -3.000000
150 2 -40.605100 -856.306000 -95.784300 1 1.000000 1 -3.000000
151 2 -45.787500 -864.204000 -98.750400 1 1.000000 1 -3.000000
152 2 -51.286200 -871.664000 -102.262000 1 1.000000 1 -3.000000
153 2 -57.660100 -876.888000 -107.772000 1 1.000000 1 -3.000000
154 2 -62.787700 -881.835000 -114.558000 1 1.000000 1 -3.000000
155 2 -67.092300 -888.117000 -120.930000 1 1.000000 1 -3.000000
156 2 -70.196300 -893.866000 -128.406000 1 1.000000 7 -3.000000
157 1 -69.163100 -862.513000 -163.730000 1 1.000000 7 0.000000
158 3 -47.978300 -848.335000 -139.683000 1 1.000000 7 0.000000
159 2 -53.471400 -823.421000 -184.967000 1 1.000000 7 -3.000000
160 2 -46.852100 -820.005000 -178.453000 1 1.000000 1 -3.000000
161 2 -39.018800 -817.353000 -172.910000 1 1.000000 1 -3.000000
162 2 -31.098100 -816.008000 -167.179000 1 1.000000 1 -3.000000
163 2 -25.811200 -814.457000 -158.970000 1 1.000000 1 -3.000000
164 2 -20.477200 -814.149000 -150.602000 1 1.000000 1 -3.000000
165 2 -14.887800 -814.315000 -142.416000 1 1.000000 1 -3.000000
166 2 -9.245690 -812.491000 -134.526000 1 1.000000 1 -3.000000
167 2 -2.542490 -811.157000 -127.420000 1 1.000000 1 -3.000000
168 2 5.580840 -807.293000 -123.303000 1 1.000000 1 -3.000000
169 2 14.813700 -804.131000 -122.270000 1 1.000000 1 -3.000000
170 2 24.043200 -800.715000 -123.533000 1 1.000000 1 -3.000000
171 2 33.437200 -799.020000 -125.910000 1 1.000000 1 -3.000000
172 2 42.478600 -797.899000 -129.849000 1 1.000000 1 -3.000000
173 2 51.249100 -796.905000 -134.481000 1 1.000000 1 -3.000000
174 2 59.230000 -794.565000 -139.729000 1 1.000000 1 -3.000000
175 2 67.100500 -792.493000 -145.306000 1 1.000000 1 -3.000000
176 2 76.107000 -791.566000 -149.244000 1 1.000000 1 -3.000000
177 2 84.228800 -790.592000 -154.706000 1 1.000000 1 -3.000000
178 2 90.988200 -790.568000 -162.013000 1 1.000000 1 -3.000000
179 2 98.259700 -789.932000 -168.693000 1 1.000000 1 -3.000000
180 2 106.096000 -791.030000 -174.673000 1 1.000000 1 -3.000000
181 2 114.139000 -793.299000 -180.073000 1 1.000000 1 -3.000000
182 2 121.600000 -793.658000 -186.510000 1 1.000000 1 -3.000000
183 2 129.395000 -796.287000 -191.895000 1 1.000000 8 -3.000000
184 1 162.460000 -777.369000 -164.132000 1 1.000000 8 0.000000
185 3 133.741000 -775.703000 -144.391000 1 1.000000 8 0.000000
186 2 178.031000 -757.525000 -124.274000 1 1.000000 8 -3.000000
187 2 170.142000 -758.972000 -118.522000 1 1.000000 1 -3.000000
188 2 162.415000 -759.667000 -112.331000 1 1.000000 1 -3.000000
189 2 153.635000 -759.543000 -107.810000 1 1.000000 1 -3.000000
190 2 144.856000 -762.034000 -104.098000 1 1.000000 1 -3.000000
191 2 135.317000 -764.120000 -102.005000 1 1.000000 1 -3.000000
192 2 125.500000 -764.449000 -100.976000 1 1.000000 1 -3.000000
193 2 115.741000 -765.099000 -99.620800 1 1.000000 1 -3.000000
194 2 106.738000 -767.458000 -96.364200 1 1.000000 1 -3.000000
195 2 98.667300 -768.743000 -90.787200 1 1.000000 1 -3.000000
196 2 91.356000 -768.943000 -84.231400 1 1.000000 1 -3.000000
197 2 84.206900 -769.151000 -77.359500 1 1.000000 1 -3.000000
198 2 76.698100 -767.852000 -71.040300 1 1.000000 1 -3.000000
199 2 69.726500 -766.895000 -64.074200 1 1.000000 1 -3.000000
200 2 65.996700 -766.663000 -54.980000 1 1.000000 1 -3.000000
201 2 61.099300 -767.815000 -46.499200 1 1.000000 1 -3.000000
202 2 58.003300 -768.304000 -37.188900 1 1.000000 1 -3.000000
203 2 54.598500 -769.725000 -28.062900 1 1.000000 1 -3.000000
204 2 51.496700 -770.057000 -18.530800 1 1.000000 1 -3.000000
205 2 48.518800 -769.447000 -9.089730 1 1.000000 1 -3.000000
206 2 44.916200 -769.181000 0.239251 1 1.000000 1 -3.000000
207 2 40.794400 -765.846000 8.604520 1 1.000000 1 -3.000000
208 2 35.100600 -762.925000 16.104300 1 1.000000 1 -3.000000
209 2 30.284400 -759.979000 24.294600 1 1.000000 1 -3.000000
210 2 24.760000 -754.461000 30.354400 1 1.000000 9 -3.000000
211 1 39.949000 -710.392000 22.873200 1 1.000000 9 0.000000
212 3 44.389300 -725.664000 -8.198660 1 1.000000 9 0.000000
213 2 55.019400 -675.056000 -4.412390 1 1.000000 9 -3.000000
214 2 53.447500 -679.384000 -13.182800 1 1.000000 1 -3.000000
215 2 50.452300 -682.702000 -22.068200 1 1.000000 1 -3.000000
216 2 47.751500 -686.841000 -30.654500 1 1.000000 1 -3.000000
217 2 44.288000 -692.089000 -38.224600 1 1.000000 1 -3.000000
218 2 40.879400 -697.986000 -45.428400 1 1.000000 1 -3.000000
219 2 38.569000 -704.650000 -52.378400 1 1.000000 1 -3.000000
220 2 36.724000 -711.404000 -59.359700 1 1.000000 1 -3.000000
221 2 34.796100 -719.185000 -65.081700 1 1.000000 1 -3.000000
222 2 34.928200 -728.148000 -69.467600 1 1.000000 1 -3.000000
223 2 33.051300 -736.285000 -74.664600 1 1.000000 1 -3.000000
224 2 29.480700 -743.863000 -79.944100 1 1.000000 1 -3.000000
225 2 25.057400 -751.325000 -84.559100 1 1.000000 1 -3.000000
226 2 22.841800 -760.460000 -87.711100 1 1.000000 1 -3.000000
227 2 19.563000 -769.791000 -88.130900 1 1.000000 1 -3.000000
228 2 14.749200 -778.434000 -87.440800 1 1.000000 1 -3.000000
229 2 9.172350 -786.572000 -87.047800 1 1.000000 1 -3.000000
230 2 2.098700 -792.801000 -90.152500 1 1.000000 1 -3.000000
231 2 -6.657530 -796.521000 -92.968100 1 1.000000 1 -3.000000
232 2 -15.802200 -798.597000 -96.060800 1 1.000000 1 -3.000000
233 2 -24.755400 -800.224000 -100.038000 1 1.000000 1 -3.000000
234 2 -32.872500 -802.661000 -105.104000 1 1.000000 1 -3.000000
235 2 -40.380600 -802.357000 -111.448000 1 1.000000 1 -3.000000
236 2 -47.544800 -802.897000 -118.331000 1 1.000000 1 -3.000000
237 2 -54.163800 -803.910000 -125.634000 1 1.000000 10 -3.000000
238 1 -32.232800 -779.483000 -159.502000 1 1.000000 10 0.000000
239 3 -6.101080 -788.927000 -138.170000 1 1.000000 10 0.000000
240 2 6.225870 -763.613000 -181.866000 1 1.000000 10 -3.000000
241 2 13.425900 -768.042000 -176.677000 1 1.000000 1 -3.000000
242 2 20.657500 -772.956000 -171.915000 1 1.000000 1 -3.000000
243 2 26.028600 -779.431000 -166.555000 1 1.000000 1 -3.000000
244 2 29.997100 -787.088000 -161.729000 1 1.000000 1 -3.000000
245 2 34.167000 -794.468000 -156.753000 1 1.000000 1 -3.000000
246 2 35.536200 -802.330000 -150.906000 1 1.000000 1 -3.000000
247 2 37.660700 -809.487000 -144.341000 1 1.000000 1 -3.000000
248 2 37.506900 -817.561000 -138.652000 1 1.000000 1 -3.000000
249 2 36.975200 -825.839000 -133.147000 1 1.000000 1 -3.000000
250 2 36.103800 -834.592000 -128.455000 1 1.000000 1 -3.000000
251 2 34.597200 -843.041000 -123.560000 1 1.000000 1 -3.000000
252 2 32.469100 -851.732000 -119.398000 1 1.000000 1 -3.000000
253 2 28.522900 -860.792000 -118.122000 1 1.000000 1 -3.000000
254 2 24.092000 -869.554000 -119.623000 1 1.000000 1 -3.000000
255 2 19.276000 -878.046000 -120.993000 1 1.000000 1 -3.000000
256 2 15.128100 -886.997000 -121.205000 1 1.000000 1 -3.000000
257 2 10.096200 -895.328000 -122.781000 1 1.000000 1 -3.000000
258 2 4.451170 -902.455000 -126.594000 1 1.000000 1 -3.000000
259 2 -0.973452 -909.207000 -131.403000 1 1.000000 1 -3.000000
260 2 -5.915400 -915.549000 -137.191000 1 1.000000 1 -3.000000
261 2 -9.170940 -923.079000 -142.803000 1 1.000000 1 -3.000000
262 2 -11.588500 -926.712000 -151.645000 1 1.000000 1 -3.000000
263 2 -13.280300 -929.654000 -160.952000 1 1.000000 1 -3.000000
264 2 -16.060200 -932.655000 -170.016000 1 1.000000 11 -3.000000
265 1 19.388100 -915.188000 -195.814000 1 1.000000 11 0.000000
266 3 29.583300 -909.049000 -162.928000 1 1.000000 11 0.000000
267 2 60.710500 -892.999000 -201.241000 1 1.000000 11 -3.000000
268 2 64.280900 -896.910000 -192.903000 1 1.000000 1 -3.000000
269 2 68.002500 -900.001000 -184.292000 1 1.000000 1 -3.000000
270 2 71.874600 -901.888000 -175.308000 1 1.000000 1 -3.000000
271 2 73.902000 -904.199000 -165.926000 1 1.000000 1 -3.000000
272 2 76.158000 -906.457000 -156.593000 1 1.000000 1 -3.000000
273 2 78.815200 -910.727000 -148.039000 1 1.000000 1 -3.000000
274 2 81.156600 -914.258000 -139.068000 1 1.000000 1 -3.000000
275 2 83.363200 -917.326000 -130.009000 1 1.000000 1 -3.000000
276 2 84.990500 -919.059000 -120.366000 1 1.000000 1 -3.000000
277 2 87.789200 -919.977000 -110.869000 1 1.000000 1 -3.000000
278 2 92.399500 -921.490000 -102.212000 1 1.000000 1 -3.000000
279 2 97.957800 -924.298000 -94.512600 1 1.000000 1 -3.000000
280 2 104.375000 -927.526000 -87.715500 1 1.000000 1 -3.000000
281 2 109.495000 -931.116000 -79.939700 1 1.000000 1 -3.000000
282 2 115.584000 -932.468000 -72.238100 1 1.000000 1 -3.000000
283 2 122.582000 -933.217000 -65.392100 1 1.000000 1 -3.000000
284 2 129.327000 -935.102000 -58.356400 1 1.000000 1 -3.000000
285 2 136.062000 -936.311000 -51.238800 1 1.000000 1 -3.000000
286 2 141.145000 -939.439000 -43.287500 1 1.000000 1 -3.000000
287 2 148.238000 -943.677000 -37.762600 1 1.000000 1 -3.000000
288 2 155.875000 -948.014000 -33.052700 1 1.000000 1 -3.000000
289 2 164.675000 -950.993000 -29.633200 1 1.000000 1 -3.000000
290 2 173.508000 -955.452000 -28.616800 1 1.000000 1 -3.000000
291 2 182.115000 -959.982000 -27.173800 1 1.000000 12 -3.000000
292 1 172.253000 -1000.100000 -49.868600 1 1.000000 12 0.000000
293 3 148.995000 -977.594000 -63.125200 1 1.000000 12 0.000000
294 2 146.198000 -1027.100000 -78.496100 1 1.000000 12 -3.000000
295 2 140.559000 -1019.990000 -82.551800 1 1.000000 1 -3.000000
296 2 134.651000 -1013.390000 -87.124600 1 1.000000 1 -3.000000
297 2 130.034000 -1005.540000 -91.219000 1 1.000000 1 -3.000000
298 2 123.262000 -998.555000 -92.885600 1 1.000000 1 -3.000000
299 2 117.238000 -990.666000 -93.279300 1 1.000000 1 -3.000000
300 2 112.506000 -982.556000 -90.184900 1 1.000000 1 -3.000000
301 2 108.170000 -975.463000 -84.862000 1 1.000000 1 -3.000000
302 2 102.726000 -969.031000 -79.822800 1 1.000000 1 -3.000000
303 2 96.806900 -962.125000 -75.791300 1 1.000000 1 -3.000000
304 2 91.766800 -954.095000 -72.646800 1 1.000000 1 -3.000000
305 2 87.736100 -945.611000 -69.486300 1 1.000000 1 -3.000000
306 2 85.870000 -936.092000 -68.246000 1 1.000000 1 -3.000000
307 2 84.672300 -926.269000 -67.888800 1 1.000000 1 -3.000000
308 2 81.989500 -916.844000 -68.803300 1 1.000000 1 -3.000000
309 2 78.316100 -907.584000 -68.764700 1 1.000000 1 -3.000000
310 2 73.713300 -898.914000 -70.356600 1 1.000000 1 -3.000000
311 2 70.397600 -889.626000 -71.059200 1 1.000000 1 -3.000000
312 2 67.206300 -880.276000 -71.307800 1 1.000000 1 -3.000000
313 2 62.641800 -871.533000 -71.730700 1 1.000000 1 -3.000000
314 2 58.919400 -862.764000 -74.282300 1 1.000000 1 -3.000000
315 2 58.412300 -854.006000 -78.997900 1 1.000000 1 -3.000000
316 2 59.557900 -845.259000 -83.588300 1 1.000000 1 -3.000000
317 2 61.214900 -837.897000 -90.040300 1 1.000000 1 -3.000000
318 2 62.841000 -829.745000 -95.438800 1 1.000000 13 -3.000000
319 1 82.543700 -847.603000 -134.369000 1 1.000000 13 0.000000
320 3 75.470100 -876.024000 -115.245000 1 1.000000 13 0.000000
321 2 99.425800 -882.845000 -160.784000 1 1.000000 13 -3.000000
322 2 104.128000 -889.069000 -154.771000 1 1.000000 1 -3.000000
323 2 110.723000 -894.561000 -149.797000 1 1.000000 1 -3.000000
324 2 115.773000 -901.840000 -145.381000 1 1.000000 1 -3.000000
325 2 120.988000 -909.074000 -140.963000 1 1.000000 1 -3.000000
326 2 125.876000 -917.055000 -137.688000 1 1.000000 1 -3.000000
327 2 130.138000 -924.254000 -132.355000 1 1.000000 1 -3.000000
328 2 133.691000 -931.050000 -126.005000 1 1.000000 1 -3.000000
329 2 138.059000 -936.777000 -119.239000 1 1.000000 1 -3.000000
330 2 143.471000 -942.107000 -112.841000 1 1.000000 1 -3.000000
331 2 148.127000 -947.232000 -105.741000 1 1.000000 1 -3.000000
332 2 152.271000 -953.995000 -99.811700 1 1.000000 1 -3.000000
333 2 156.169000 -962.099000 -95.693000 1 1.000000 1 -3.000000
334 2 158.853000 -971.403000 -93.312500 1 1.000000 1 -3.000000
335 2 160.998000 -980.515000 -90.164500 1 1.000000 1 -3.000000
336 2 164.338000 -989.835000 -89.817400 1 1.000000 1 -3.000000
337 2 166.266000 -999.443000 -88.916600 1 1.000000 1 -3.000000
338 2 169.393000 -1008.800000 -88.239000 1 1.000000 1 -3.000000
339 2 172.220000 -1017.900000 -86.152200 1 1.000000 1 -3.000000
340 2 177.314000 -1026.460000 -85.801000 1 1.000000 1 -3.000000
341 2 182.100000 -1035.190000 -85.406700 1 1.000000 1 -3.000000
342 2 188.142000 -1042.730000 -86.752100 1 1.000000 1 -3.000000
343 2 194.065000 -1049.910000 -90.042400 1 1.000000 1 -3.000000
344 2 198.889000 -1057.160000 -94.921000 1 1.000000 1 -3.000000
345 2 204.120000 -1064.130000 -99.575000 1 1.000000 14 -3.000000
346 1 195.035000 -1055.970000 -145.149000 1 1.000000 14 0.000000
347 3 183.091000 -1027.100000 -129.324000 1 1.000000 14 0.000000
348 2 177.649000 -1030.390000 -180.805000 1 1.000000 14 -3.000000
349 2 175.755000 -1022.320000 -175.230000 1 1.000000 1 -3.000000
350 2 174.115000 -1013.380000 -171.449000 1 1.000000 1 -3.000000
351 2 172.808000 -1004.620000 -167.045000 1 1.000000 1 -3.000000
352 2 171.856000 -997.431000 -160.416000 1 1.000000 1 -3.000000
353 2 171.975000 -990.520000 -153.349000 1 1.000000 1 -3.000000
354 2 172.700000 -984.312000 -145.569000 1 1.000000 1 -3.000000
355 2 175.706000 -977.579000 -139.018000 1 1.000000 1 -3.000000
356 2 179.346000 -971.896000 -131.761000 1 1.000000 1 -3.000000
357 2 181.493000 -963.813000 -126.443000 1 1.000000 1 -3.000000
358 2 184.159000 -955.523000 -121.756000 1 1.000000 1 -3.000000
359 2 187.454000 -947.077000 -118.010000 1 1.000000 1 -3.000000
360 2 189.545000 -939.506000 -111.964000 1 1.000000 1 -3.000000
361 2 193.011000 -931.606000 -107.077000 1 1.000000 1 -3.000000
362 2 196.210000 -924.771000 -100.708000 1 1.000000 1 -3.000000
363 2 199.009000 -919.956000 -92.491900 1 1.000000 1 -3.000000
364 2 201.157000 -916.742000 -83.275800 1 1.000000 1 -3.000000
365 2 203.684000 -914.174000 -74.023300 1 1.000000 1 -3.000000
366 2 207.578000 -912.422000 -65.123900 1 1.000000 1 -3.000000
367 2 211.297000 -913.073000 -55.943400 1 1.000000 1 -3.000000
368 2 215.806000 -916.603000 -47.855400 1 1.000000 1 -3.000000
369 2 221.485000 -920.726000 -40.951900 1 1.000000 1 -3.000000
370 2 229.139000 -924.749000 -35.972500 1 1.000000 1 -3.000000
371 2 236.358000 -928.056000 -30.096500 1 1.000000 1 -3.000000
372 2 242.035000 -932.627000 -23.429000 1 1.000000 15 -3.000000
373 1 253.652000 -965.494000 -55.238900 1 1.000000 15 0.000000
374 3 242.283000 -938.953000 -74.938900 1 1.000000 15 0.000000
375 2 260.655000 -980.972000 -99.247500 1 1.000000 15 -3.000000
376 2 261.699000 -972.300000 -103.939000 1 1.000000 1 -3.000000
377 2 261.580000 -963.309000 -108.137000 1 1.000000 1 -3.000000
378 2 262.173000 -954.351000 -112.336000 1 1.000000 1 -3.000000
379 2 261.148000 -945.085000 -115.718000 1 1.000000 1 -3.000000
380 2 257.857000 -936.063000 -118.208000 1 1.000000 1 -3.000000
381 2 256.545000 -926.331000 -117.187000 1 1.000000 1 -3.000000
382 2 255.396000 -916.675000 -115.296000 1 1.000000 1 -3.000000
383 2 256.203000 -906.871000 -115.057000 1 1.000000 1 -3.000000
384 2 259.567000 -897.641000 -114.390000 1 1.000000 1 -3.000000
385 2 264.292000 -889.000000 -113.255000 1 1.000000 1 -3.000000
386 2 269.458000 -880.565000 -113.594000 1 1.000000 1 -3.000000
387 2 271.928000 -870.989000 -112.681000 1 1.000000 1 -3.000000
388 2 275.104000 -861.545000 -112.927000 1 1.000000 1 -3.000000
389 2 278.277000 -852.297000 -112.001000 1 1.000000 1 -3.000000
390 2 281.693000 -842.922000 -112.050000 1 1.000000 1 -3.000000
391 2 284.685000 -833.438000 -111.683000 1 1.000000 1 -3.000000
392 2 287.304000 -824.083000 -113.210000 1 1.000000 1 -3.000000
393 2 288.539000 -815.058000 -116.963000 1 1.000000 1 -3.000000
394 2 291.045000 -807.749000 -123.082000 1 1.000000 1 -3.000000
395 2 291.706000 -800.357000 -129.456000 1 1.000000 1 -3.000000
396 2 292.457000 -794.494000 -137.376000 1 1.000000 1 -3.000000
397 2 290.429000 -790.004000 -145.898000 1 1.000000 1 -3.000000
398 2 291.466000 -788.429000 -155.586000 1 1.000000 1 -3.000000
399 2 295.179000 -787.152000 -164.633000 1 1.000000 16 -3.000000
400 1 281.571000 -828.850000 -182.109000 1 1.000000 16 0.000000
401 3 262.782000 -825.926000 -152.709000 1 1.000000 16 0.000000
402 2 253.353000 -866.647000 -183.589000 1 1.000000 16 -3.000000
403 2 247.046000 -863.836000 -176.538000 1 1.000000 1 -3.000000
404 2 241.812000 -860.838000 -168.751000 1 1.000000 1 -3.000000
405 2 237.810000 -856.653000 -160.799000 1 1.000000 1 -3.000000
406 2 231.618000 -852.305000 -154.465000 1 1.000000 1 -3.000000
407 2 225.786000 -847.877000 -147.725000 1 1.000000 1 -3.000000
408 2 222.077000 -842.973000 -139.887000 1 1.000000 1 -3.000000
409 2 217.699000 -838.707000 -132.117000 1 1.000000 1 -3.000000
410 2 216.261000 -834.870000 -123.078000 1 1.000000 1 -3.000000
411 2 214.089000 -829.923000 -114.818000 1 1.000000 1 -3.000000
412 2 212.428000 -824.200000 -106.919000 1 1.000000 1 -3.000000
413 2 211.144000 -817.056000 -100.191000 1 1.000000 1 -3.000000
414 2 210.150000 -809.738000 -93.590400 1 1.000000 1 -3.000000
415 2 210.781000 -802.687000 -86.718100 1 1.000000 1 -3.000000
416 2 212.226000 -794.804000 -80.881100 1 1.000000 1 -3.000000
417 2 212.370000 -786.210000 -75.996400 1 1.000000 1 -3.000000
418 2 210.308000 -776.837000 -73.440700 1 1.000000 1 -3.000000
419 2 210.217000 -767.527000 -69.760300 1 1.000000 1 -3.000000
420 2 212.364000 -758.496000 -66.216400 1 1.000000 1 -3.000000
421 2 214.281000 -749.066000 -63.966600 1 1.000000 1 -3.000000
422 2 216.248000 -739.594000 -61.811000 1 1.000000 1 -3.000000
423 2 219.328000 -730.250000 -60.742000 1 1.000000 1 -3.000000
424 2 221.889000 -720.876000 -58.675700 1 1.000000 1 -3.000000
425 2 223.042000 -711.303000 -56.632200 1 1.000000 1 -3.000000
426 2 224.437000 -701.580000 -54.838600 1 1.000000 17 -3.000000
427 1 180.587000 -688.113000 -65.989500 1 1.000000 17 0.000000
428 3 175.927000 -719.972000 -52.355900 1 1.000000 17 0.000000
429 2 134.193000 -695.364000 -70.912600 1 1.000000 17 -3.000000
430 2 133.349000 -701.654000 -63.348500 1 1.000000 1 -3.000000
431 2 132.291000 -707.188000 -55.122300 1 1.000000 1 -3.000000
432 2 133.691000 -713.233000 -47.423600 1 1.000000 1 -3.000000
433 2 133.913000 -717.806000 -38.661800 1 1.000000 1 -3.000000
434 2 134.175000 -718.423000 -28.731700 1 1.000000 1 -3.000000
435 2 133.034000 -716.859000 -19.076300 1 1.000000 1 -3.000000
436 2 130.404000 -713.750000 -9.866620 1 1.000000 1 -3.000000
437 2 129.313000 -709.507000 -0.973309 1 1.000000 1 -3.000000
438 2 128.632000 -704.928000 7.817530 1 1.000000 1 -3.000000
439 2 129.577000 -700.748000 16.812100 1 1.000000 1 -3.000000
440 2 129.808000 -695.812000 25.308800 1 1.000000 1 -3.000000
441 2 128.982000 -692.405000 34.538400 1 1.000000 1 -3.000000
442 2 128.018000 -690.140000 44.120200 1 1.000000 1 -3.000000
443 2 124.917000 -686.277000 52.722000 1 1.000000 1 -3.000000
444 2 119.952000 -681.353000 59.732500 1 1.000000 1 -3.000000
445 2 114.328000 -675.962000 65.893100 1 1.000000 1 -3.000000
446 2 109.383000 -670.936000 72.656400 1 1.000000 1 -3.000000
447 2 104.513000 -664.650000 78.469800 1 1.000000 1 -3.000000
448 2 99.206100 -658.071000 83.594600 1 1.000000 1 -3.000000
449 2 92.678100 -653.884000 89.825400 1 1.000000 1 -3.000000
450 2 87.143300 -650.922000 97.542100 1 1.000000 1 -3.000000
451 2 82.367600 -647.661000 105.643000 1 1.000000 1 -3.000000
452 2 77.568100 -647.872000 114.246000 1 1.000000 1 -3.000000
453 2 72.013400 -647.342000 122.441000 1 1.000000 18 -3.000000
454 1 83.175200 -688.511000 142.635000 1 1.000000 18 0.000000
455 3 106.095000 -686.143000 116.316000 1 1.000000 18 0.000000
456 2 107.329000 -728.900000 145.689000 1 1.000000 18 -3.000000
457 2 112.825000 -726.869000 137.693000 1 1.000000 1 -3.000000
458 2 119.885000 -723.869000 131.438000 1 1.000000 1 -3.000000
459 2 126.420000 -720.811000 124.733000 1 1.000000 1 -3.000000
460 2 134.705000 -717.357000 120.600000 1 1.000000 1 -3.000000
461 2 142.870000 -712.509000 117.737000 1 1.000000 1 -3.000000
462 2 149.068000 -705.982000 113.523000 1 1.000000 1 -3.000000
463 2 153.070000 -698.243000 108.850000 1 1.000000 1 -3.000000
464 2 155.237000 -689.344000 105.055000 1 1.000000 1 -3.000000
465 2 158.029000 -680.465000 101.574000 1 1.000000 1 -3.000000
466 2 158.796000 -670.829000 99.271900 1 1.000000 1 -3.000000
467 2 158.576000 -661.120000 97.344200 1 1.000000 1 -3.000000
468 2 160.097000 -651.682000 94.903400 1 1.000000 1 -3.000000
469 2 161.455000 -642.209000 92.224000 1 1.000000 1 -3.000000
470 2 162.784000 -632.602000 90.290100 1 1.000000 1 -3.000000
471 2 163.404000 -623.124000 87.709700 1 1.000000 1 -3.000000
472 2 165.857000 -613.698000 86.187000 1 1.000000 1 -3.000000
473 2 169.464000 -604.552000 85.487700 1 1.000000 1 -3.000000
474 2 174.428000 -596.062000 84.553400 1 1.000000 1 -3.000000