LAMMPS data file

4067 atoms
4067 ellipsoids
4516 bonds
8882 angles
0 dihedrals

3 atom types
5 bond types
12 angle types
0 dihedral types

-4631.092947 4670.465898 xlo xhi
-4631.092947 4670.465898 ylo yhi
-4631.092947 4670.465898 zlo zhi

Masses

1 196016.000000
2 1950.000000
3 19500.000000

Atoms

1 2 180.145000 -890.066000 -330.034000 1 1.000000 1 -3.000000
2 2 175.785000 -882.548000 -325.399000 1 1.000000 1 -3.000000
3 2 173.305000 -874.057000 -320.945000 1 1.000000 1 -3.000000
4 2 172.820000 -865.722000 -315.668000 1 1.000000 1 -3.000000
5 2 172.422000 -857.068000 -311.114000 1 1.000000 1 -3.000000
6 2 171.415000 -848.759000 -305.894000 1 1.000000 1 -3.000000
7 2 170.890000 -841.580000 -299.091000 1 1.000000 1 -3.000000
8 2 171.227000 -835.956000 -290.945000 1 1.000000 1 -3.000000
9 2 171.797000 -829.334000 -283.659000 1 1.000000 1 -3.000000
10 2 172.566000 -821.371000 -277.851000 1 1.000000 1 -3.000000
11 2 174.572000 -813.340000 -272.482000 1 1.000000 1 -3.000000
12 2 175.047000 -804.786000 -267.525000 1 1.000000 1 -3.000000
13 2 173.332000 -796.556000 -262.179000 1 1.000000 1 -3.000000
14 2 170.003000 -788.904000 -256.862000 1 1.000000 1 -3.000000
15 2 168.440000 -780.102000 -252.551000 1 1.000000 1 -3.000000
16 2 166.670000 -771.258000 -248.538000 1 1.000000 1 -3.000000
17 2 165.002000 -761.830000 -245.865000 1 1.000000 1 -3.000000
18 2 164.919000 -752.933000 -241.502000 1 1.000000 1 -3.000000
19 2 164.130000 -744.013000 -237.318000 1 1.000000 1 -3.000000
20 2 164.730000 -735.433000 -232.434000 1 1.000000 1 -3.000000
21 2 165.480000 -726.403000 -228.379000 1 1.000000 2 -3.000000
22 1 184.908000 -743.063000 -188.717000 1 1.000000 2 0.000000
23 3 189.330000 -769.308000 -211.364000 1 1.000000 2 0.000000
24 2 206.547000 -776.100000 -162.960000 1 1.000000 2 -3.000000
25 2 210.422000 -780.481000 -170.894000 1 1.000000 1 -3.000000
26 2 215.692000 -784.524000 -178.242000 1 1.000000 1 -3.000000
27 2 220.309000 -786.864000 -186.671000 1 1.000000 1 -3.000000
28 2 225.601000 -790.115000 -194.439000 1 1.000000 1 -3.000000
29 2 229.349000 -791.931000 -203.303000 1 1.000000 1 -3.000000
30 2 231.601000 -792.062000 -212.891000 1 1.000000 1 -3.000000
31 2 232.720000 -791.329000 -222.791000 1 1.000000 1 -3.000000
32 2 235.810000 -789.540000 -231.970000 1 1.000000 1 -3.000000
33 2 240.806000 -787.470000 -240.265000 1 1.000000 1 -3.000000
34 2 246.319000 -785.058000 -248.155000 1 1.000000 1 -3.000000
35 2 251.949000 -781.397000 -255.420000 1 1.000000 1 -3.000000
36 2 258.016000 -777.922000 -262.200000 1 1.000000 1 -3.000000
37 2 262.916000 -773.640000 -269.649000 1 1.000000 1 -3.000000
38 2 268.408000 -771.392000 -277.596000 1 1.000000 1 -3.000000
39 2 273.164000 -769.221000 -286.010000 1 1.000000 1 -3.000000
40 2 277.088000 -768.506000 -295.132000 1 1.000000 1 -3.000000
41 2 280.239000 -767.400000 -304.399000 1 1.000000 1 -3.000000
42 2 283.717000 -764.456000 -313.188000 1 1.000000 1 -3.000000
43 2 287.373000 -764.510000 -322.376000 1 1.000000 1 -3.000000
44 2 291.763000 -762.766000 -331.065000 1 1.000000 1 -3.000000
45 2 296.912000 -759.232000 -338.705000 1 1.000000 1 -3.000000
46 2 301.051000 -754.602000 -346.401000 1 1.000000 1 -3.000000
47 2 306.593000 -750.213000 -353.347000 1 1.000000 1 -3.000000
48 2 311.599000 -744.364000 -359.644000 1 1.000000 3 -3.000000
49 1 321.198000 -705.035000 -335.455000 1 1.000000 3 0.000000
50 3 308.266000 -726.636000 -310.981000 1 1.000000 3 0.000000
51 2 320.144000 -678.055000 -296.686000 1 1.000000 3 -3.000000
52 2 320.242000 -686.375000 -291.308000 1 1.000000 1 -3.000000
53 2 318.928000 -692.884000 -284.002000 1 1.000000 1 -3.000000
54 2 318.337000 -700.126000 -277.257000 1 1.000000 1 -3.000000
55 2 318.958000 -707.959000 -271.313000 1 1.000000 1 -3.000000
56 2 319.670000 -717.235000 -267.963000 1 1.000000 1 -3.000000
57 2 319.155000 -727.084000 -268.605000 1 1.000000 1 -3.000000
58 2 319.262000 -736.941000 -269.196000 1 1.000000 1 -3.000000
59 2 321.724000 -746.429000 -269.636000 1 1.000000 1 -3.000000
60 2 324.333000 -755.351000 -272.851000 1 1.000000 1 -3.000000
61 2 329.409000 -763.475000 -275.297000 1 1.000000 1 -3.000000
62 2 335.103000 -771.352000 -276.839000 1 1.000000 1 -3.000000
63 2 340.687000 -778.501000 -281.011000 1 1.000000 1 -3.000000
64 2 345.519000 -784.286000 -287.314000 1 1.000000 1 -3.000000
65 2 350.457000 -789.718000 -293.962000 1 1.000000 1 -3.000000
66 2 353.881000 -794.355000 -301.937000 1 1.000000 1 -3.000000
67 2 358.171000 -799.988000 -308.901000 1 1.000000 1 -3.000000
68 2 363.389000 -805.674000 -315.144000 1 1.000000 1 -3.000000
69 2 368.256000 -811.716000 -321.265000 1 1.000000 1 -3.000000
70 2 375.016000 -817.320000 -325.816000 1 1.000000 1 -3.000000
71 2 380.429000 -822.404000 -332.396000 1 1.000000 1 -3.000000
72 2 384.702000 -827.171000 -339.947000 1 1.000000 1 -3.000000
73 2 388.648000 -830.020000 -348.551000 1 1.000000 1 -3.000000
74 2 392.208000 -831.859000 -357.535000 1 1.000000 1 -3.000000
75 2 397.292000 -834.929000 -365.508000 1 1.000000 4 -3.000000
76 1 403.219000 -792.697000 -385.668000 1 1.000000 4 0.000000
77 3 389.066000 -784.784000 -354.699000 1 1.000000 4 0.000000
78 2 401.694000 -745.552000 -386.148000 1 1.000000 4 -3.000000
79 2 400.739000 -744.806000 -376.275000 1 1.000000 1 -3.000000
80 2 400.641000 -742.456000 -366.630000 1 1.000000 1 -3.000000
81 2 399.714000 -742.408000 -356.790000 1 1.000000 1 -3.000000
82 2 397.605000 -742.494000 -347.099000 1 1.000000 1 -3.000000
83 2 398.670000 -743.446000 -337.257000 1 1.000000 1 -3.000000
84 2 399.537000 -745.023000 -327.579000 1 1.000000 1 -3.000000
85 2 399.769000 -748.309000 -318.224000 1 1.000000 1 -3.000000
86 2 398.283000 -751.569000 -309.057000 1 1.000000 1 -3.000000
87 2 398.087000 -754.224000 -299.507000 1 1.000000 1 -3.000000
88 2 397.701000 -757.574000 -290.196000 1 1.000000 1 -3.000000
89 2 398.086000 -762.880000 -281.767000 1 1.000000 1 -3.000000
90 2 397.771000 -768.506000 -273.682000 1 1.000000 1 -3.000000
91 2 398.407000 -775.539000 -266.745000 1 1.000000 1 -3.000000
92 2 400.942000 -782.484000 -260.227000 1 1.000000 1 -3.000000
93 2 401.008000 -790.699000 -254.914000 1 1.000000 1 -3.000000
94 2 401.357000 -798.947000 -249.623000 1 1.000000 1 -3.000000
95 2 401.311000 -807.813000 -245.334000 1 1.000000 1 -3.000000
96 2 401.162000 -816.655000 -240.909000 1 1.000000 1 -3.000000
97 2 400.971000 -825.357000 -236.240000 1 1.000000 1 -3.000000
98 2 401.769000 -835.156000 -234.765000 1 1.000000 1 -3.000000
99 2 404.045000 -844.783000 -234.138000 1 1.000000 1 -3.000000
100 2 406.673000 -854.294000 -233.386000 1 1.000000 1 -3.000000
101 2 409.534000 -863.759000 -233.320000 1 1.000000 1 -3.000000
102 2 413.540000 -872.758000 -234.166000 1 1.000000 5 -3.000000
103 1 429.769000 -870.871000 -278.388000 1 1.000000 5 0.000000
104 3 429.529000 -837.312000 -268.417000 1 1.000000 5 0.000000
105 2 448.232000 -848.497000 -315.619000 1 1.000000 5 -3.000000
106 2 452.181000 -840.774000 -310.911000 1 1.000000 1 -3.000000
107 2 454.280000 -833.067000 -305.005000 1 1.000000 1 -3.000000
108 2 454.396000 -824.094000 -300.893000 1 1.000000 1 -3.000000
109 2 455.061000 -815.205000 -296.616000 1 1.000000 1 -3.000000
110 2 454.064000 -807.256000 -290.727000 1 1.000000 1 -3.000000
111 2 453.890000 -802.169000 -282.214000 1 1.000000 1 -3.000000
112 2 452.042000 -797.829000 -273.571000 1 1.000000 1 -3.000000
113 2 449.476000 -794.914000 -264.542000 1 1.000000 1 -3.000000
114 2 447.236000 -793.070000 -254.988000 1 1.000000 1 -3.000000
115 2 445.937000 -793.571000 -245.164000 1 1.000000 1 -3.000000
116 2 444.925000 -792.750000 -235.413000 1 1.000000 1 -3.000000
117 2 443.815000 -790.145000 -225.906000 1 1.000000 1 -3.000000
118 2 444.111000 -785.087000 -217.421000 1 1.000000 1 -3.000000
119 2 443.472000 -781.141000 -208.306000 1 1.000000 1 -3.000000
120 2 442.446000 -776.858000 -199.502000 1 1.000000 1 -3.000000
121 2 443.652000 -772.994000 -190.490000 1 1.000000 1 -3.000000
122 2 445.329000 -767.913000 -182.143000 1 1.000000 1 -3.000000
123 2 447.556000 -761.269000 -175.107000 1 1.000000 1 -3.000000
124 2 450.621000 -753.886000 -169.320000 1 1.000000 1 -3.000000
125 2 453.265000 -746.055000 -163.942000 1 1.000000 1 -3.000000
126 2 455.807000 -737.750000 -159.098000 1 1.000000 1 -3.000000
127 2 458.318000 -729.745000 -153.823000 1 1.000000 1 -3.000000
128 2 459.782000 -721.440000 -148.513000 1 1.000000 1 -3.000000
129 2 461.341000 -713.009000 -143.470000 1 1.000000 6 -3.000000
130 1 426.154000 -689.473000 -164.133000 1 1.000000 6 0.000000
131 3 419.208000 -722.776000 -172.147000 1 1.000000 6 0.000000
132 2 384.947000 -686.662000 -186.998000 1 1.000000 6 -3.000000
133 2 382.123000 -695.951000 -184.933000 1 1.000000 1 -3.000000
134 2 378.263000 -704.949000 -183.248000 1 1.000000 1 -3.000000
135 2 374.698000 -713.784000 -180.801000 1 1.000000 1 -3.000000
136 2 374.194000 -723.578000 -179.346000 1 1.000000 1 -3.000000
137 2 376.652000 -733.033000 -177.538000 1 1.000000 1 -3.000000
138 2 378.686000 -742.551000 -175.834000 1 1.000000 1 -3.000000
139 2 381.630000 -751.827000 -176.568000 1 1.000000 1 -3.000000
140 2 381.737000 -761.687000 -177.209000 1 1.000000 1 -3.000000
141 2 382.196000 -771.240000 -179.835000 1 1.000000 1 -3.000000
142 2 382.268000 -781.048000 -181.657000 1 1.000000 1 -3.000000
143 2 384.996000 -790.284000 -183.931000 1 1.000000 1 -3.000000
144 2 388.051000 -799.010000 -187.483000 1 1.000000 1 -3.000000
145 2 391.346000 -808.291000 -187.986000 1 1.000000 1 -3.000000
146 2 393.091000 -817.986000 -188.641000 1 1.000000 1 -3.000000
147 2 394.151000 -827.682000 -189.913000 1 1.000000 1 -3.000000
148 2 396.265000 -837.321000 -188.706000 1 1.000000 1 -3.000000
149 2 399.284000 -846.804000 -188.834000 1 1.000000 1 -3.000000
150 2 402.036000 -855.778000 -185.809000 1 1.000000 1 -3.000000
151 2 405.022000 -864.827000 -183.121000 1 1.000000 1 -3.000000
152 2 409.980000 -871.893000 -178.280000 1 1.000000 1 -3.000000
153 2 413.717000 -878.908000 -172.508000 1 1.000000 1 -3.000000
154 2 416.890000 -885.274000 -165.588000 1 1.000000 1 -3.000000
155 2 419.288000 -892.452000 -159.195000 1 1.000000 1 -3.000000
156 2 419.581000 -897.718000 -150.729000 1 1.000000 7 -3.000000
157 1 405.682000 -869.548000 -115.523000 1 1.000000 7 0.000000
158 3 388.272000 -857.117000 -143.177000 1 1.000000 7 0.000000
159 2 382.759000 -832.214000 -97.923200 1 1.000000 7 -3.000000
160 2 376.727000 -829.152000 -105.096000 1 1.000000 1 -3.000000
161 2 369.959000 -827.374000 -112.165000 1 1.000000 1 -3.000000
162 2 363.304000 -828.050000 -119.528000 1 1.000000 1 -3.000000
163 2 357.542000 -829.047000 -127.445000 1 1.000000 1 -3.000000
164 2 351.531000 -830.966000 -135.030000 1 1.000000 1 -3.000000
165 2 345.839000 -834.835000 -142.182000 1 1.000000 1 -3.000000
166 2 340.964000 -839.365000 -149.409000 1 1.000000 1 -3.000000
167 2 334.537000 -843.077000 -155.872000 1 1.000000 1 -3.000000
168 2 327.363000 -848.074000 -160.584000 1 1.000000 1 -3.000000
169 2 320.031000 -851.717000 -166.066000 1 1.000000 1 -3.000000
170 2 312.393000 -856.253000 -170.298000 1 1.000000 1 -3.000000
171 2 304.522000 -861.571000 -173.363000 1 1.000000 1 -3.000000
172 2 296.987000 -865.908000 -178.158000 1 1.000000 1 -3.000000
173 2 288.660000 -869.610000 -181.901000 1 1.000000 1 -3.000000
174 2 279.779000 -871.947000 -185.635000 1 1.000000 1 -3.000000
175 2 270.803000 -875.752000 -187.385000 1 1.000000 1 -3.000000
176 2 262.147000 -880.192000 -189.325000 1 1.000000 1 -3.000000
177 2 254.952000 -886.675000 -191.741000 1 1.000000 1 -3.000000
178 2 248.166000 -893.409000 -194.330000 1 1.000000 1 -3.000000
179 2 241.179000 -899.298000 -198.174000 1 1.000000 1 -3.000000
180 2 233.801000 -905.348000 -200.646000 1 1.000000 1 -3.000000
181 2 227.889000 -912.097000 -204.865000 1 1.000000 1 -3.000000
182 2 223.349000 -919.617000 -209.368000 1 1.000000 1 -3.000000
183 2 220.068000 -928.355000 -212.891000 1 1.000000 8 -3.000000
184 1 254.159000 -959.607000 -203.616000 1 1.000000 8 0.000000
185 3 261.071000 -933.450000 -181.390000 1 1.000000 8 0.000000
186 2 291.905000 -975.227000 -180.001000 1 1.000000 8 -3.000000
187 2 291.201000 -969.749000 -171.858000 1 1.000000 1 -3.000000
188 2 290.359000 -964.998000 -163.240000 1 1.000000 1 -3.000000
189 2 290.415000 -958.216000 -156.009000 1 1.000000 1 -3.000000
190 2 288.753000 -950.093000 -150.473000 1 1.000000 1 -3.000000
191 2 286.661000 -941.554000 -146.017000 1 1.000000 1 -3.000000
192 2 283.697000 -933.373000 -141.286000 1 1.000000 1 -3.000000
193 2 279.405000 -926.450000 -135.650000 1 1.000000 1 -3.000000
194 2 274.380000 -920.726000 -129.373000 1 1.000000 1 -3.000000
195 2 268.363000 -915.858000 -123.280000 1 1.000000 1 -3.000000
196 2 262.963000 -910.019000 -117.373000 1 1.000000 1 -3.000000
197 2 256.383000 -905.656000 -111.381000 1 1.000000 1 -3.000000
198 2 250.095000 -901.580000 -104.961000 1 1.000000 1 -3.000000
199 2 244.005000 -896.448000 -99.186400 1 1.000000 1 -3.000000
200 2 236.327000 -892.690000 -94.179700 1 1.000000 1 -3.000000
201 2 229.834000 -889.075000 -87.610900 1 1.000000 1 -3.000000
202 2 224.851000 -888.912000 -78.999600 1 1.000000 1 -3.000000
203 2 222.754000 -890.642000 -69.424600 1 1.000000 1 -3.000000
204 2 219.860000 -893.803000 -60.514200 1 1.000000 1 -3.000000
205 2 216.779000 -897.173000 -51.630100 1 1.000000 1 -3.000000
206 2 211.355000 -900.095000 -43.991300 1 1.000000 1 -3.000000
207 2 204.886000 -905.122000 -38.496300 1 1.000000 1 -3.000000
208 2 197.900000 -911.929000 -36.558900 1 1.000000 1 -3.000000
209 2 191.317000 -918.993000 -34.171200 1 1.000000 1 -3.000000
210 2 183.607000 -924.715000 -31.686900 1 1.000000 9 -3.000000
211 1 149.986000 -910.548000 -61.576900 1 1.000000 9 0.000000
212 3 179.439000 -899.431000 -76.993700 1 1.000000 9 0.000000
213 2 134.339000 -887.959000 -99.965500 1 1.000000 9 -3.000000
214 2 142.194000 -888.636000 -105.909000 1 1.000000 1 -3.000000
215 2 149.740000 -889.721000 -112.186000 1 1.000000 1 -3.000000
216 2 158.811000 -890.063000 -116.061000 1 1.000000 1 -3.000000
217 2 168.181000 -889.281000 -119.176000 1 1.000000 1 -3.000000
218 2 177.588000 -889.715000 -122.107000 1 1.000000 1 -3.000000
219 2 187.290000 -889.072000 -124.159000 1 1.000000 1 -3.000000
220 2 196.635000 -886.841000 -126.710000 1 1.000000 1 -3.000000
221 2 205.578000 -882.909000 -128.040000 1 1.000000 1 -3.000000
222 2 214.531000 -878.827000 -128.509000 1 1.000000 1 -3.000000
223 2 223.468000 -874.584000 -129.197000 1 1.000000 1 -3.000000
224 2 231.842000 -869.339000 -128.775000 1 1.000000 1 -3.000000
225 2 240.745000 -865.220000 -130.214000 1 1.000000 1 -3.000000
226 2 249.747000 -861.458000 -131.520000 1 1.000000 1 -3.000000
227 2 258.318000 -857.052000 -129.459000 1 1.000000 1 -3.000000
228 2 266.043000 -853.532000 -124.276000 1 1.000000 1 -3.000000
229 2 273.447000 -848.793000 -119.594000 1 1.000000 1 -3.000000
230 2 280.721000 -844.139000 -114.804000 1 1.000000 1 -3.000000
231 2 288.301000 -838.586000 -111.581000 1 1.000000 1 -3.000000
232 2 294.683000 -832.732000 -106.807000 1 1.000000 1 -3.000000
233 2 299.467000 -825.055000 -102.773000 1 1.000000 1 -3.000000
234 2 305.136000 -817.147000 -101.314000 1 1.000000 1 -3.000000
235 2 311.554000 -809.811000 -99.387900 1 1.000000 1 -3.000000
236 2 317.924000 -802.357000 -99.532700 1 1.000000 1 -3.000000
237 2 324.310000 -794.838000 -98.649600 1 1.000000 10 -3.000000
238 1 322.008000 -780.401000 -143.524000 1 1.000000 10 0.000000
239 3 298.446000 -806.255000 -142.196000 1 1.000000 10 0.000000
240 2 303.232000 -780.175000 -186.758000 1 1.000000 10 -3.000000
241 2 296.237000 -786.668000 -184.270000 1 1.000000 1 -3.000000
242 2 287.621000 -791.138000 -182.565000 1 1.000000 1 -3.000000
243 2 280.129000 -796.829000 -179.378000 1 1.000000 1 -3.000000
244 2 272.896000 -803.193000 -176.937000 1 1.000000 1 -3.000000
245 2 266.709000 -809.255000 -172.127000 1 1.000000 1 -3.000000
246 2 260.829000 -813.079000 -165.126000 1 1.000000 1 -3.000000
247 2 255.065000 -816.361000 -157.780000 1 1.000000 1 -3.000000
248 2 249.836000 -818.867000 -149.818000 1 1.000000 1 -3.000000
249 2 244.756000 -821.110000 -141.584000 1 1.000000 1 -3.000000
250 2 238.595000 -821.664000 -133.837000 1 1.000000 1 -3.000000
251 2 232.040000 -819.773000 -126.562000 1 1.000000 1 -3.000000
252 2 226.096000 -816.710000 -119.284000 1 1.000000 1 -3.000000
253 2 220.157000 -814.608000 -111.661000 1 1.000000 1 -3.000000
254 2 214.536000 -812.275000 -103.817000 1 1.000000 1 -3.000000
255 2 209.590000 -810.436000 -95.548300 1 1.000000 1 -3.000000
256 2 205.668000 -808.471000 -86.664600 1 1.000000 1 -3.000000
257 2 199.626000 -807.620000 -78.888300 1 1.000000 1 -3.000000
258 2 195.206000 -805.158000 -70.395100 1 1.000000 1 -3.000000
259 2 191.778000 -802.846000 -61.479300 1 1.000000 1 -3.000000
260 2 189.538000 -801.193000 -52.026000 1 1.000000 1 -3.000000
261 2 190.315000 -801.290000 -42.190700 1 1.000000 1 -3.000000
262 2 190.504000 -803.174000 -32.478100 1 1.000000 1 -3.000000
263 2 190.124000 -806.146000 -23.080200 1 1.000000 1 -3.000000
264 2 189.813000 -810.272000 -14.128900 1 1.000000 11 -3.000000
265 1 222.021000 -844.630000 -17.228900 1 1.000000 11 0.000000
266 3 223.697000 -829.282000 -48.715100 1 1.000000 11 0.000000
267 2 256.666000 -868.259000 -38.870800 1 1.000000 11 -3.000000
268 2 256.841000 -862.031000 -46.584400 1 1.000000 1 -3.000000
269 2 258.870000 -856.295000 -54.399200 1 1.000000 1 -3.000000
270 2 261.157000 -848.469000 -60.038200 1 1.000000 1 -3.000000
271 2 261.971000 -840.580000 -65.953600 1 1.000000 1 -3.000000
272 2 261.655000 -832.624000 -71.769000 1 1.000000 1 -3.000000
273 2 260.896000 -823.160000 -74.547500 1 1.000000 1 -3.000000
274 2 255.965000 -814.688000 -73.434800 1 1.000000 1 -3.000000
275 2 249.902000 -806.969000 -71.669900 1 1.000000 1 -3.000000
276 2 244.136000 -799.048000 -70.488500 1 1.000000 1 -3.000000
277 2 238.216000 -791.188000 -69.513700 1 1.000000 1 -3.000000
278 2 233.785000 -782.572000 -67.416100 1 1.000000 1 -3.000000
279 2 228.707000 -774.144000 -66.307900 1 1.000000 1 -3.000000
280 2 223.823000 -765.560000 -65.382900 1 1.000000 1 -3.000000
281 2 221.290000 -756.147000 -63.677100 1 1.000000 1 -3.000000
282 2 217.480000 -747.687000 -66.961100 1 1.000000 1 -3.000000
283 2 211.967000 -739.666000 -68.503300 1 1.000000 1 -3.000000
284 2 205.522000 -732.129000 -68.634600 1 1.000000 1 -3.000000
285 2 198.158000 -725.667000 -67.551200 1 1.000000 1 -3.000000
286 2 190.957000 -718.890000 -66.984400 1 1.000000 1 -3.000000
287 2 183.397000 -712.542000 -66.537900 1 1.000000 1 -3.000000
288 2 174.476000 -708.083000 -66.265400 1 1.000000 1 -3.000000
289 2 165.847000 -703.340000 -64.712000 1 1.000000 1 -3.000000
290 2 156.216000 -701.201000 -63.738300 1 1.000000 1 -3.000000
291 2 146.532000 -699.351000 -62.527700 1 1.000000 12 -3.000000
292 1 132.211000 -739.146000 -41.517100 1 1.000000 12 0.000000
293 3 166.649000 -738.532000 -35.251000 1 1.000000 12 0.000000
294 2 139.459000 -779.260000 -17.789300 1 1.000000 12 -3.000000
295 2 146.334000 -776.395000 -11.346000 1 1.000000 1 -3.000000
296 2 154.366000 -772.914000 -6.778490 1 1.000000 1 -3.000000
297 2 162.653000 -769.468000 -2.612290 1 1.000000 1 -3.000000
298 2 170.082000 -764.346000 1.411530 1 1.000000 1 -3.000000
299 2 176.679000 -757.303000 3.861470 1 1.000000 1 -3.000000
300 2 184.146000 -750.968000 4.810620 1 1.000000 1 -3.000000
301 2 191.846000 -745.980000 8.459010 1 1.000000 1 -3.000000
302 2 200.581000 -741.284000 9.152800 1 1.000000 1 -3.000000
303 2 208.430000 -735.430000 7.692670 1 1.000000 1 -3.000000
304 2 216.378000 -729.572000 7.187740 1 1.000000 1 -3.000000
305 2 223.930000 -723.634000 4.800090 1 1.000000 1 -3.000000
306 2 229.805000 -716.439000 1.278600 1 1.000000 1 -3.000000
307 2 236.765000 -710.029000 -1.747240 1 1.000000 1 -3.000000
308 2 243.504000 -704.102000 -6.012890 1 1.000000 1 -3.000000
309 2 248.538000 -696.431000 -9.542660 1 1.000000 1 -3.000000
310 2 254.873000 -690.022000 -13.491500 1 1.000000 1 -3.000000
311 2 259.820000 -684.871000 -20.413500 1 1.000000 1 -3.000000
312 2 264.861000 -682.602000 -28.707400 1 1.000000 1 -3.000000
313 2 270.818000 -681.678000 -36.505000 1 1.000000 1 -3.000000
314 2 274.119000 -680.950000 -45.819600 1 1.000000 1 -3.000000
315 2 274.764000 -679.995000 -55.657800 1 1.000000 1 -3.000000
316 2 274.416000 -679.458000 -65.576000 1 1.000000 1 -3.000000
317 2 274.106000 -682.007000 -75.084800 1 1.000000 1 -3.000000
318 2 273.920000 -684.628000 -84.680400 1 1.000000 13 -3.000000
319 1 227.043000 -681.127000 -88.687600 1 1.000000 13 0.000000
320 3 233.262000 -669.318000 -56.330100 1 1.000000 13 0.000000
321 2 183.825000 -671.633000 -72.333800 1 1.000000 13 -3.000000
322 2 187.019000 -665.742000 -65.056000 1 1.000000 1 -3.000000
323 2 189.054000 -659.718000 -57.439700 1 1.000000 1 -3.000000
324 2 192.322000 -652.386000 -51.539500 1 1.000000 1 -3.000000
325 2 196.004000 -645.652000 -45.272600 1 1.000000 1 -3.000000
326 2 200.707000 -639.163000 -39.475100 1 1.000000 1 -3.000000
327 2 205.692000 -631.791000 -35.139200 1 1.000000 1 -3.000000
328 2 208.359000 -623.445000 -30.349900 1 1.000000 1 -3.000000
329 2 211.565000 -616.944000 -23.567100 1 1.000000 1 -3.000000
330 2 214.271000 -610.084000 -16.970500 1 1.000000 1 -3.000000
331 2 215.605000 -603.558000 -9.693540 1 1.000000 1 -3.000000
332 2 215.246000 -596.665000 -2.580870 1 1.000000 1 -3.000000
333 2 215.626000 -589.363000 4.078560 1 1.000000 1 -3.000000
334 2 215.047000 -581.434000 9.968620 1 1.000000 1 -3.000000
335 2 212.569000 -572.678000 13.812300 1 1.000000 1 -3.000000
336 2 209.893000 -563.427000 16.195200 1 1.000000 1 -3.000000
337 2 209.306000 -553.571000 16.882000 1 1.000000 1 -3.000000
338 2 209.235000 -543.756000 15.909300 1 1.000000 1 -3.000000
339 2 208.871000 -534.313000 13.023900 1 1.000000 1 -3.000000
340 2 210.324000 -525.173000 9.774510 1 1.000000 1 -3.000000
341 2 213.066000 -515.715000 8.620260 1 1.000000 1 -3.000000
342 2 215.783000 -506.532000 6.097900 1 1.000000 1 -3.000000
343 2 219.088000 -497.288000 4.474110 1 1.000000 1 -3.000000
344 2 223.573000 -488.465000 3.966450 1 1.000000 1 -3.000000
345 2 226.442000 -479.131000 5.081980 1 1.000000 14 -3.000000
346 1 237.870000 -476.292000 50.818000 1 1.000000 14 0.000000
347 3 233.151000 -510.691000 45.796600 1 1.000000 14 0.000000
348 2 247.100000 -494.842000 93.227500 1 1.000000 14 -3.000000
349 2 247.546000 -504.011000 89.500600 1 1.000000 1 -3.000000
350 2 249.042000 -513.344000 86.600300 1 1.000000 1 -3.000000
351 2 250.772000 -522.591000 83.467000 1 1.000000 1 -3.000000
352 2 250.437000 -531.413000 79.051200 1 1.000000 1 -3.000000
353 2 248.823000 -539.928000 74.051500 1 1.000000 1 -3.000000
354 2 245.862000 -548.957000 71.142300 1 1.000000 1 -3.000000
355 2 244.691000 -558.498000 69.168700 1 1.000000 1 -3.000000
356 2 242.814000 -567.968000 66.684400 1 1.000000 1 -3.000000
357 2 239.574000 -576.923000 63.853100 1 1.000000 1 -3.000000
358 2 236.466000 -585.729000 60.494700 1 1.000000 1 -3.000000
359 2 233.909000 -594.954000 57.811200 1 1.000000 1 -3.000000
360 2 231.133000 -603.481000 53.718500 1 1.000000 1 -3.000000
361 2 227.236000 -611.747000 50.050000 1 1.000000 1 -3.000000
362 2 223.301000 -620.725000 48.608200 1 1.000000 1 -3.000000
363 2 217.904000 -628.389000 45.394700 1 1.000000 1 -3.000000
364 2 212.224000 -635.918000 42.330200 1 1.000000 1 -3.000000
365 2 207.769000 -644.365000 39.748900 1 1.000000 1 -3.000000
366 2 204.282000 -653.490000 38.586200 1 1.000000 1 -3.000000
367 2 201.549000 -662.684000 36.002800 1 1.000000 1 -3.000000
368 2 199.083000 -671.843000 33.204600 1 1.000000 1 -3.000000
369 2 194.236000 -680.358000 31.605100 1 1.000000 1 -3.000000
370 2 189.094000 -688.624000 29.966700 1 1.000000 1 -3.000000
371 2 183.527000 -696.427000 27.679100 1 1.000000 1 -3.000000
372 2 177.504000 -703.956000 25.390200 1 1.000000 15 -3.000000
373 1 150.089000 -704.355000 63.797600 1 1.000000 15 0.000000
374 3 167.095000 -673.808000 66.249700 1 1.000000 15 0.000000
375 2 132.543000 -685.404000 103.262000 1 1.000000 15 -3.000000
376 2 134.819000 -675.793000 102.136000 1 1.000000 1 -3.000000
377 2 138.743000 -666.829000 101.309000 1 1.000000 1 -3.000000
378 2 143.522000 -658.166000 101.347000 1 1.000000 1 -3.000000
379 2 147.545000 -649.976000 97.703100 1 1.000000 1 -3.000000
380 2 152.241000 -642.188000 93.860500 1 1.000000 1 -3.000000
381 2 156.681000 -634.168000 90.337900 1 1.000000 1 -3.000000
382 2 161.886000 -625.731000 89.412700 1 1.000000 1 -3.000000
383 2 165.241000 -616.474000 88.215800 1 1.000000 1 -3.000000
384 2 169.462000 -607.575000 86.870400 1 1.000000 1 -3.000000
385 2 171.074000 -597.897000 85.579100 1 1.000000 1 -3.000000
386 2 171.915000 -588.252000 83.412300 1 1.000000 1 -3.000000
387 2 172.741000 -578.405000 82.356500 1 1.000000 1 -3.000000
388 2 170.557000 -569.156000 79.665800 1 1.000000 1 -3.000000
389 2 167.747000 -559.890000 77.441600 1 1.000000 1 -3.000000
390 2 165.232000 -550.677000 74.874500 1 1.000000 1 -3.000000
391 2 162.842000 -541.684000 71.344900 1 1.000000 1 -3.000000
392 2 159.241000 -533.661000 66.796600 1 1.000000 1 -3.000000
393 2 154.072000 -526.848000 61.671400 1 1.000000 1 -3.000000
394 2 149.908000 -519.981000 56.030600 1 1.000000 1 -3.000000
395 2 142.592000 -514.609000 51.966300 1 1.000000 1 -3.000000
396 2 133.481000 -511.290000 49.718100 1 1.000000 1 -3.000000
397 2 124.507000 -507.359000 49.086700 1 1.000000 1 -3.000000
398 2 115.259000 -504.366000 47.105900 1 1.000000 1 -3.000000
399 2 106.408000 -500.312000 45.971700 1 1.000000 16 -3.000000
400 1 88.493400 -517.208000 86.166300 1 1.000000 16 0.000000
401 3 122.977000 -517.194000 92.187900 1 1.000000 16 0.000000
402 2 91.855500 -534.552000 129.913000 1 1.000000 16 -3.000000
403 2 100.131000 -530.296000 133.426000 1 1.000000 1 -3.000000
404 2 109.816000 -528.315000 134.519000 1 1.000000 1 -3.000000
405 2 118.920000 -524.766000 136.356000 1 1.000000 1 -3.000000
406 2 127.760000 -520.331000 136.023000 1 1.000000 1 -3.000000
407 2 136.416000 -515.821000 134.360000 1 1.000000 1 -3.000000
408 2 143.871000 -510.186000 130.934000 1 1.000000 1 -3.000000
409 2 151.233000 -504.753000 127.199000 1 1.000000 1 -3.000000
410 2 157.674000 -500.090000 121.371000 1 1.000000 1 -3.000000
411 2 163.759000 -494.987000 115.472000 1 1.000000 1 -3.000000
412 2 171.581000 -490.191000 111.544000 1 1.000000 1 -3.000000
413 2 180.776000 -487.155000 109.383000 1 1.000000 1 -3.000000
414 2 189.601000 -482.703000 108.599000 1 1.000000 1 -3.000000
415 2 199.080000 -480.782000 106.461000 1 1.000000 1 -3.000000
416 2 208.361000 -477.949000 104.583000 1 1.000000 1 -3.000000
417 2 216.518000 -472.922000 102.110000 1 1.000000 1 -3.000000
418 2 223.698000 -467.141000 98.423000 1 1.000000 1 -3.000000
419 2 231.318000 -461.226000 95.940100 1 1.000000 1 -3.000000
420 2 239.277000 -457.358000 91.469700 1 1.000000 1 -3.000000
421 2 247.998000 -453.483000 88.739100 1 1.000000 1 -3.000000
422 2 255.560000 -449.333000 84.048600 1 1.000000 1 -3.000000
423 2 262.613000 -443.512000 80.130600 1 1.000000 1 -3.000000
424 2 270.409000 -438.774000 76.255700 1 1.000000 1 -3.000000
425 2 277.406000 -433.387000 71.708900 1 1.000000 1 -3.000000
426 2 284.796000 -428.889000 66.919400 1 1.000000 17 -3.000000
427 1 317.946000 -438.003000 99.230000 1 1.000000 17 0.000000
428 3 290.494000 -456.520000 110.487000 1 1.000000 17 0.000000
429 2 334.311000 -459.153000 138.126000 1 1.000000 17 -3.000000
430 2 325.899000 -463.262000 141.371000 1 1.000000 1 -3.000000
431 2 317.949000 -468.924000 142.910000 1 1.000000 1 -3.000000
432 2 310.952000 -474.927000 146.522000 1 1.000000 1 -3.000000
433 2 303.623000 -479.228000 151.413000 1 1.000000 1 -3.000000
434 2 297.539000 -483.926000 157.675000 1 1.000000 1 -3.000000
435 2 291.869000 -487.186000 165.121000 1 1.000000 1 -3.000000
436 2 286.356000 -486.983000 173.432000 1 1.000000 1 -3.000000
437 2 280.866000 -487.752000 181.693000 1 1.000000 1 -3.000000
438 2 275.398000 -487.785000 189.974000 1 1.000000 1 -3.000000
439 2 269.924000 -487.551000 198.238000 1 1.000000 1 -3.000000
440 2 266.224000 -485.916000 207.311000 1 1.000000 1 -3.000000
441 2 265.381000 -484.154000 217.002000 1 1.000000 1 -3.000000
442 2 264.671000 -481.385000 226.487000 1 1.000000 1 -3.000000
443 2 263.309000 -477.560000 235.389000 1 1.000000 1 -3.000000
444 2 262.472000 -472.521000 243.840000 1 1.000000 1 -3.000000
445 2 264.355000 -467.716000 252.287000 1 1.000000 1 -3.000000
446 2 263.154000 -463.215000 260.980000 1 1.000000 1 -3.000000
447 2 262.555000 -458.153000 269.394000 1 1.000000 1 -3.000000
448 2 259.933000 -453.643000 277.811000 1 1.000000 1 -3.000000
449 2 256.474000 -447.879000 285.161000 1 1.000000 1 -3.000000
450 2 254.035000 -440.938000 291.845000 1 1.000000 1 -3.000000
451 2 249.485000 -436.177000 299.324000 1 1.000000 1 -3.000000
452 2 245.110000 -431.241000 306.643000 1 1.000000 1 -3.000000
453 2 240.575000 -427.127000 314.356000 1 1.000000 18 -3.000000
454 1 252.316000 -456.923000 348.999000 1 1.000000 18 0.000000
455 3 276.272000 -463.522000 324.328000 1 1.000000 18 0.000000
456 2 280.142000 -489.209000 369.258000 1 1.000000 18 -3.000000
457 2 288.488000 -488.704000 363.919000 1 1.000000 1 -3.000000
458 2 296.501000 -487.324000 358.286000 1 1.000000 1 -3.000000
459 2 304.511000 -485.554000 352.876000 1 1.000000 1 -3.000000
460 2 310.675000 -480.215000 347.172000 1 1.000000 1 -3.000000
461 2 316.222000 -473.492000 342.526000 1 1.000000 1 -3.000000
462 2 320.320000 -465.878000 337.550000 1 1.000000 1 -3.000000
463 2 325.554000 -458.680000 333.427000 1 1.000000 1 -3.000000
464 2 329.956000 -451.197000 328.711000 1 1.000000 1 -3.000000
465 2 336.972000 -444.778000 326.166000 1 1.000000 1 -3.000000
466 2 344.103000 -438.467000 323.387000 1 1.000000 1 -3.000000
467 2 349.646000 -431.425000 319.271000 1 1.000000 1 -3.000000
468 2 355.931000 -424.880000 315.128000 1 1.000000 1 -3.000000
469 2 362.902000 -418.899000 311.181000 1 1.000000 1 -3.000000
470 2 370.077000 -412.725000 308.127000 1 1.000000 1 -3.000000
471 2 377.632000 -407.525000 304.465000 1 1.000000 1 -3.000000