LAMMPS data file

4067 atoms
4067 ellipsoids
4516 bonds
8882 angles
0 dihedrals

3 atom types
5 bond types
12 angle types
0 dihedral types

-4631.092947 4670.465898 xlo xhi
-4631.092947 4670.465898 ylo yhi
-4631.092947 4670.465898 zlo zhi

Masses

1 196016.000000
2 1950.000000
3 19500.000000

Atoms

1 2 -63.603700 511.686000 -329.392000 1 1.000000 1 -3.000000
2 2 -67.090900 519.694000 -324.800000 1 1.000000 1 -3.000000
3 2 -70.703400 525.729000 -317.738000 1 1.000000 1 -3.000000
4 2 -75.204700 531.387000 -310.988000 1 1.000000 1 -3.000000
5 2 -79.518200 537.306000 -304.355000 1 1.000000 1 -3.000000
6 2 -84.306100 543.421000 -298.233000 1 1.000000 1 -3.000000
7 2 -87.734600 550.358000 -292.050000 1 1.000000 1 -3.000000
8 2 -92.098300 557.676000 -286.932000 1 1.000000 1 -3.000000
9 2 -97.232300 565.451000 -283.533000 1 1.000000 1 -3.000000
10 2 -101.541000 573.151000 -279.054000 1 1.000000 1 -3.000000
11 2 -107.707000 579.534000 -274.740000 1 1.000000 1 -3.000000
12 2 -114.507000 583.607000 -268.757000 1 1.000000 1 -3.000000
13 2 -120.721000 588.447000 -262.678000 1 1.000000 1 -3.000000
14 2 -125.982000 594.117000 -256.542000 1 1.000000 1 -3.000000
15 2 -131.247000 597.632000 -248.877000 1 1.000000 1 -3.000000
16 2 -134.543000 601.223000 -240.178000 1 1.000000 1 -3.000000
17 2 -136.748000 603.081000 -230.655000 1 1.000000 1 -3.000000
18 2 -138.765000 604.002000 -220.968000 1 1.000000 1 -3.000000
19 2 -135.812000 606.458000 -211.855000 1 1.000000 1 -3.000000
20 2 -132.584000 607.717000 -202.534000 1 1.000000 1 -3.000000
21 2 -131.702000 608.528000 -192.707000 1 1.000000 2 -3.000000
22 1 -100.605000 573.487000 -187.450000 1 1.000000 2 0.000000
23 3 -100.631000 579.003000 -221.995000 1 1.000000 2 0.000000
24 2 -70.316200 541.044000 -203.485000 1 1.000000 2 -3.000000
25 2 -67.881300 544.763000 -212.386000 1 1.000000 1 -3.000000
26 2 -66.137200 549.821000 -220.686000 1 1.000000 1 -3.000000
27 2 -64.110700 554.854000 -228.978000 1 1.000000 1 -3.000000
28 2 -62.551300 557.924000 -238.235000 1 1.000000 1 -3.000000
29 2 -61.601500 559.629000 -247.888000 1 1.000000 1 -3.000000
30 2 -61.438400 562.057000 -257.422000 1 1.000000 1 -3.000000
31 2 -60.718500 564.987000 -266.952000 1 1.000000 1 -3.000000
32 2 -58.587300 569.818000 -275.359000 1 1.000000 1 -3.000000
33 2 -54.531900 574.468000 -283.146000 1 1.000000 1 -3.000000
34 2 -50.899800 580.472000 -290.058000 1 1.000000 1 -3.000000
35 2 -47.305600 585.218000 -297.948000 1 1.000000 1 -3.000000
36 2 -42.978500 591.168000 -304.516000 1 1.000000 1 -3.000000
37 2 -37.681500 596.579000 -310.989000 1 1.000000 1 -3.000000
38 2 -32.182600 602.515000 -316.622000 1 1.000000 1 -3.000000
39 2 -28.850900 609.597000 -322.713000 1 1.000000 1 -3.000000
40 2 -25.268800 617.472000 -327.462000 1 1.000000 1 -3.000000
41 2 -20.727100 624.614000 -332.338000 1 1.000000 1 -3.000000
42 2 -14.173000 630.987000 -335.947000 1 1.000000 1 -3.000000
43 2 -5.689330 635.514000 -338.404000 1 1.000000 1 -3.000000
44 2 3.660280 638.499000 -339.508000 1 1.000000 1 -3.000000
45 2 13.205900 639.752000 -341.870000 1 1.000000 1 -3.000000
46 2 22.919400 640.204000 -343.941000 1 1.000000 1 -3.000000
47 2 32.476400 638.995000 -345.850000 1 1.000000 1 -3.000000
48 2 42.391500 638.947000 -346.589000 1 1.000000 3 -3.000000
49 1 49.477800 601.722000 -318.503000 1 1.000000 3 0.000000
50 3 16.723000 597.004000 -330.040000 1 1.000000 3 0.000000
51 2 36.473000 561.281000 -297.932000 1 1.000000 3 -3.000000
52 2 28.970200 560.116000 -304.385000 1 1.000000 1 -3.000000
53 2 21.218400 558.343000 -310.190000 1 1.000000 1 -3.000000
54 2 13.462000 555.690000 -315.737000 1 1.000000 1 -3.000000
55 2 7.705200 553.601000 -323.447000 1 1.000000 1 -3.000000
56 2 2.759030 553.949000 -332.022000 1 1.000000 1 -3.000000
57 2 -1.824170 557.165000 -340.329000 1 1.000000 1 -3.000000
58 2 -5.185400 561.348000 -348.592000 1 1.000000 1 -3.000000
59 2 -8.069860 566.722000 -356.391000 1 1.000000 1 -3.000000
60 2 -10.591900 572.093000 -364.380000 1 1.000000 1 -3.000000
61 2 -12.438000 577.910000 -372.234000 1 1.000000 1 -3.000000
62 2 -10.397800 581.312000 -381.309000 1 1.000000 1 -3.000000
63 2 -8.446920 587.784000 -388.517000 1 1.000000 1 -3.000000
64 2 -7.929170 596.071000 -393.939000 1 1.000000 1 -3.000000
65 2 -5.723280 604.312000 -398.895000 1 1.000000 1 -3.000000
66 2 -1.246850 612.130000 -402.862000 1 1.000000 1 -3.000000
67 2 4.102770 620.303000 -404.846000 1 1.000000 1 -3.000000
68 2 10.233400 628.137000 -404.668000 1 1.000000 1 -3.000000
69 2 16.643200 635.338000 -406.881000 1 1.000000 1 -3.000000
70 2 23.135400 641.148000 -411.574000 1 1.000000 1 -3.000000
71 2 28.868200 646.462000 -417.626000 1 1.000000 1 -3.000000
72 2 35.315300 650.705000 -423.838000 1 1.000000 1 -3.000000
73 2 41.863800 651.728000 -431.265000 1 1.000000 1 -3.000000
74 2 47.867300 653.991000 -438.849000 1 1.000000 1 -3.000000
75 2 52.871000 657.956000 -446.338000 1 1.000000 4 -3.000000
76 1 38.805100 624.211000 -476.131000 1 1.000000 4 0.000000
77 3 13.084000 625.199000 -452.471000 1 1.000000 4 0.000000
78 2 8.393360 591.789000 -491.931000 1 1.000000 4 -3.000000
79 2 0.147382 593.494000 -486.842000 1 1.000000 1 -3.000000
80 2 -7.956410 595.398000 -481.608000 1 1.000000 1 -3.000000
81 2 -15.361200 598.096000 -475.637000 1 1.000000 1 -3.000000
82 2 -21.844500 603.463000 -470.246000 1 1.000000 1 -3.000000
83 2 -27.236700 607.646000 -463.088000 1 1.000000 1 -3.000000
84 2 -31.644800 611.061000 -454.894000 1 1.000000 1 -3.000000
85 2 -35.235200 616.664000 -447.594000 1 1.000000 1 -3.000000
86 2 -39.734100 620.771000 -439.732000 1 1.000000 1 -3.000000
87 2 -43.420600 623.630000 -431.012000 1 1.000000 1 -3.000000
88 2 -47.133100 626.885000 -422.481000 1 1.000000 1 -3.000000
89 2 -50.671200 629.598000 -413.584000 1 1.000000 1 -3.000000
90 2 -56.200900 632.402000 -405.923000 1 1.000000 1 -3.000000
91 2 -62.185400 636.567000 -399.247000 1 1.000000 1 -3.000000
92 2 -66.489600 643.810000 -394.020000 1 1.000000 1 -3.000000
93 2 -72.015000 649.259000 -388.037000 1 1.000000 1 -3.000000
94 2 -77.659500 652.724000 -380.627000 1 1.000000 1 -3.000000
95 2 -83.128700 656.109000 -373.015000 1 1.000000 1 -3.000000
96 2 -88.325000 660.324000 -365.759000 1 1.000000 1 -3.000000
97 2 -94.350500 664.695000 -359.335000 1 1.000000 1 -3.000000
98 2 -99.738700 670.726000 -353.684000 1 1.000000 1 -3.000000
99 2 -105.009000 678.849000 -351.604000 1 1.000000 1 -3.000000
100 2 -110.307000 687.163000 -350.776000 1 1.000000 1 -3.000000
101 2 -116.602000 694.730000 -350.131000 1 1.000000 1 -3.000000
102 2 -122.828000 702.030000 -347.708000 1 1.000000 5 -3.000000
103 1 -122.204000 718.629000 -391.889000 1 1.000000 5 0.000000
104 3 -108.961000 686.386000 -395.257000 1 1.000000 5 0.000000
105 2 -114.064000 715.034000 -438.198000 1 1.000000 5 -3.000000
106 2 -111.934000 705.505000 -439.383000 1 1.000000 1 -3.000000
107 2 -110.549000 695.729000 -439.817000 1 1.000000 1 -3.000000
108 2 -107.708000 686.151000 -440.281000 1 1.000000 1 -3.000000
109 2 -105.833000 676.531000 -438.869000 1 1.000000 1 -3.000000
110 2 -106.657000 667.677000 -434.503000 1 1.000000 1 -3.000000
111 2 -108.896000 658.744000 -430.934000 1 1.000000 1 -3.000000
112 2 -109.000000 651.200000 -424.490000 1 1.000000 1 -3.000000
113 2 -109.536000 644.297000 -417.440000 1 1.000000 1 -3.000000
114 2 -110.018000 636.487000 -411.348000 1 1.000000 1 -3.000000
115 2 -114.876000 629.165000 -406.664000 1 1.000000 1 -3.000000
116 2 -121.006000 623.985000 -400.899000 1 1.000000 1 -3.000000
117 2 -125.538000 617.721000 -394.629000 1 1.000000 1 -3.000000
118 2 -130.043000 611.620000 -388.185000 1 1.000000 1 -3.000000
119 2 -133.464000 604.095000 -382.674000 1 1.000000 1 -3.000000
120 2 -136.752000 596.583000 -377.192000 1 1.000000 1 -3.000000
121 2 -140.092000 589.383000 -371.207000 1 1.000000 1 -3.000000
122 2 -143.077000 582.203000 -365.012000 1 1.000000 1 -3.000000
123 2 -147.159000 576.330000 -358.041000 1 1.000000 1 -3.000000
124 2 -151.836000 569.919000 -352.025000 1 1.000000 1 -3.000000
125 2 -157.955000 563.539000 -347.496000 1 1.000000 1 -3.000000
126 2 -164.085000 556.594000 -344.051000 1 1.000000 1 -3.000000
127 2 -170.807000 549.541000 -342.151000 1 1.000000 1 -3.000000
128 2 -177.758000 542.636000 -340.669000 1 1.000000 1 -3.000000
129 2 -185.098000 535.917000 -340.575000 1 1.000000 6 -3.000000
130 1 -204.079000 538.162000 -383.727000 1 1.000000 6 0.000000
131 3 -173.034000 553.693000 -387.815000 1 1.000000 6 0.000000
132 2 -202.824000 547.909000 -429.880000 1 1.000000 6 -3.000000
133 2 -193.088000 549.618000 -429.004000 1 1.000000 1 -3.000000
134 2 -183.217000 549.063000 -428.115000 1 1.000000 1 -3.000000
135 2 -173.382000 548.361000 -428.803000 1 1.000000 1 -3.000000
136 2 -163.892000 545.465000 -428.577000 1 1.000000 1 -3.000000
137 2 -154.634000 541.992000 -429.537000 1 1.000000 1 -3.000000
138 2 -145.545000 538.251000 -430.408000 1 1.000000 1 -3.000000
139 2 -136.135000 535.099000 -429.672000 1 1.000000 1 -3.000000
140 2 -127.322000 530.710000 -430.183000 1 1.000000 1 -3.000000
141 2 -119.135000 525.550000 -432.537000 1 1.000000 1 -3.000000
142 2 -110.457000 520.915000 -433.299000 1 1.000000 1 -3.000000
143 2 -100.975000 518.017000 -433.693000 1 1.000000 1 -3.000000
144 2 -92.190500 513.457000 -433.762000 1 1.000000 1 -3.000000
145 2 -83.302500 509.104000 -432.839000 1 1.000000 1 -3.000000
146 2 -75.740300 502.930000 -431.054000 1 1.000000 1 -3.000000
147 2 -67.065600 498.280000 -430.940000 1 1.000000 1 -3.000000
148 2 -58.290600 493.645000 -430.540000 1 1.000000 1 -3.000000
149 2 -50.573100 487.602000 -429.255000 1 1.000000 1 -3.000000
150 2 -41.696600 483.240000 -429.601000 1 1.000000 1 -3.000000
151 2 -32.249300 480.940000 -430.916000 1 1.000000 1 -3.000000
152 2 -23.035500 481.720000 -434.432000 1 1.000000 1 -3.000000
153 2 -15.464600 482.100000 -440.801000 1 1.000000 1 -3.000000
154 2 -8.957690 480.141000 -447.964000 1 1.000000 1 -3.000000
155 2 -2.079300 480.739000 -455.081000 1 1.000000 1 -3.000000
156 2 5.287850 480.368000 -461.647000 1 1.000000 7 -3.000000
157 1 -16.516500 444.258000 -482.741000 1 1.000000 7 0.000000
158 3 -43.071700 463.173000 -470.069000 1 1.000000 7 0.000000
159 2 -54.658100 421.146000 -498.117000 1 1.000000 7 -3.000000
160 2 -60.502200 429.125000 -497.372000 1 1.000000 1 -3.000000
161 2 -66.296000 437.156000 -496.757000 1 1.000000 1 -3.000000
162 2 -72.567100 444.737000 -496.629000 1 1.000000 1 -3.000000
163 2 -76.912600 453.665000 -495.931000 1 1.000000 1 -3.000000
164 2 -80.966000 462.377000 -493.516000 1 1.000000 1 -3.000000
165 2 -82.316900 470.875000 -488.822000 1 1.000000 1 -3.000000
166 2 -82.851000 479.831000 -484.593000 1 1.000000 1 -3.000000
167 2 -83.510900 489.176000 -481.248000 1 1.000000 1 -3.000000
168 2 -83.514600 497.999000 -476.804000 1 1.000000 1 -3.000000
169 2 -82.228500 506.620000 -471.965000 1 1.000000 1 -3.000000
170 2 -82.546300 514.572000 -466.066000 1 1.000000 1 -3.000000
171 2 -80.564000 521.887000 -459.721000 1 1.000000 1 -3.000000
172 2 -78.499700 528.638000 -452.747000 1 1.000000 1 -3.000000
173 2 -75.319900 534.788000 -445.607000 1 1.000000 1 -3.000000
174 2 -71.609300 540.731000 -438.687000 1 1.000000 1 -3.000000
175 2 -67.050000 547.341000 -432.952000 1 1.000000 1 -3.000000
176 2 -61.401300 554.138000 -428.410000 1 1.000000 1 -3.000000
177 2 -54.381700 560.546000 -425.705000 1 1.000000 1 -3.000000
178 2 -45.980000 564.310000 -422.104000 1 1.000000 1 -3.000000
179 2 -36.874100 568.038000 -421.103000 1 1.000000 1 -3.000000
180 2 -27.340700 570.011000 -419.737000 1 1.000000 1 -3.000000
181 2 -17.502300 568.914000 -419.952000 1 1.000000 1 -3.000000
182 2 -7.739760 568.834000 -421.779000 1 1.000000 1 -3.000000
183 2 2.168060 568.636000 -422.688000 1 1.000000 8 -3.000000
184 1 6.219930 523.396000 -409.966000 1 1.000000 8 0.000000
185 3 -25.380400 524.727000 -424.948000 1 1.000000 8 0.000000
186 2 -8.878150 478.841000 -407.004000 1 1.000000 8 -3.000000
187 2 -18.738500 479.506000 -407.945000 1 1.000000 1 -3.000000
188 2 -28.700100 479.246000 -407.486000 1 1.000000 1 -3.000000
189 2 -38.550400 478.912000 -407.344000 1 1.000000 1 -3.000000
190 2 -48.423400 478.057000 -407.613000 1 1.000000 1 -3.000000
191 2 -58.013600 476.043000 -409.055000 1 1.000000 1 -3.000000
192 2 -67.695600 474.040000 -409.338000 1 1.000000 1 -3.000000
193 2 -76.963500 470.512000 -409.940000 1 1.000000 1 -3.000000
194 2 -86.257800 467.135000 -409.359000 1 1.000000 1 -3.000000
195 2 -95.134100 462.929000 -408.050000 1 1.000000 1 -3.000000
196 2 -104.859000 460.968000 -407.450000 1 1.000000 1 -3.000000
197 2 -114.164000 457.546000 -407.164000 1 1.000000 1 -3.000000
198 2 -122.346000 452.352000 -405.602000 1 1.000000 1 -3.000000
199 2 -129.901000 445.937000 -406.306000 1 1.000000 1 -3.000000
200 2 -136.760000 439.003000 -407.650000 1 1.000000 1 -3.000000
201 2 -143.458000 431.842000 -409.122000 1 1.000000 1 -3.000000
202 2 -150.419000 424.935000 -410.543000 1 1.000000 1 -3.000000
203 2 -156.875000 418.263000 -413.955000 1 1.000000 1 -3.000000
204 2 -164.629000 413.827000 -418.253000 1 1.000000 1 -3.000000
205 2 -172.060000 409.514000 -423.156000 1 1.000000 1 -3.000000
206 2 -178.305000 404.569000 -429.044000 1 1.000000 1 -3.000000
207 2 -183.490000 400.093000 -436.207000 1 1.000000 1 -3.000000
208 2 -186.457000 396.312000 -444.866000 1 1.000000 1 -3.000000
209 2 -188.116000 393.786000 -454.358000 1 1.000000 1 -3.000000
210 2 -188.947000 388.090000 -462.373000 1 1.000000 9 -3.000000
211 1 -145.581000 375.782000 -476.362000 1 1.000000 9 0.000000
212 3 -139.819000 393.270000 -446.608000 1 1.000000 9 0.000000
213 2 -98.605400 374.664000 -472.107000 1 1.000000 9 -3.000000
214 2 -98.521000 374.490000 -462.207000 1 1.000000 1 -3.000000
215 2 -97.282900 374.991000 -452.279000 1 1.000000 1 -3.000000
216 2 -97.282100 377.221000 -442.647000 1 1.000000 1 -3.000000
217 2 -98.572100 381.107000 -433.555000 1 1.000000 1 -3.000000
218 2 -101.515000 383.761000 -424.495000 1 1.000000 1 -3.000000
219 2 -106.089000 387.908000 -416.762000 1 1.000000 1 -3.000000
220 2 -112.062000 391.024000 -409.484000 1 1.000000 1 -3.000000
221 2 -118.768000 391.727000 -402.167000 1 1.000000 1 -3.000000
222 2 -124.158000 395.292000 -394.675000 1 1.000000 1 -3.000000
223 2 -130.329000 400.113000 -388.467000 1 1.000000 1 -3.000000
224 2 -135.952000 405.325000 -382.166000 1 1.000000 1 -3.000000
225 2 -143.850000 409.618000 -378.038000 1 1.000000 1 -3.000000
226 2 -150.938000 416.338000 -376.305000 1 1.000000 1 -3.000000
227 2 -158.104000 422.997000 -374.848000 1 1.000000 1 -3.000000
228 2 -164.833000 430.189000 -374.773000 1 1.000000 1 -3.000000
229 2 -171.356000 437.495000 -376.439000 1 1.000000 1 -3.000000
230 2 -177.327000 445.353000 -377.366000 1 1.000000 1 -3.000000
231 2 -183.083000 453.249000 -378.498000 1 1.000000 1 -3.000000
232 2 -187.729000 461.866000 -380.172000 1 1.000000 1 -3.000000
233 2 -192.848000 469.925000 -382.744000 1 1.000000 1 -3.000000
234 2 -199.259000 476.853000 -385.585000 1 1.000000 1 -3.000000
235 2 -206.633000 482.657000 -388.975000 1 1.000000 1 -3.000000
236 2 -213.958000 488.536000 -391.889000 1 1.000000 1 -3.000000
237 2 -221.705000 492.452000 -396.768000 1 1.000000 10 -3.000000
238 1 -253.837000 458.155000 -400.949000 1 1.000000 10 0.000000
239 3 -228.172000 442.847000 -382.735000 1 1.000000 10 0.000000
240 2 -269.159000 413.848000 -395.955000 1 1.000000 10 -3.000000
241 2 -264.812000 410.162000 -387.727000 1 1.000000 1 -3.000000
242 2 -259.421000 408.035000 -379.700000 1 1.000000 1 -3.000000
243 2 -253.551000 405.342000 -372.193000 1 1.000000 1 -3.000000
244 2 -246.656000 405.349000 -365.049000 1 1.000000 1 -3.000000
245 2 -239.359000 406.889000 -358.603000 1 1.000000 1 -3.000000
246 2 -232.351000 409.161000 -351.998000 1 1.000000 1 -3.000000
247 2 -225.974000 411.548000 -344.745000 1 1.000000 1 -3.000000
248 2 -222.350000 412.967000 -335.616000 1 1.000000 1 -3.000000
249 2 -219.467000 414.326000 -326.208000 1 1.000000 1 -3.000000
250 2 -217.437000 415.266000 -316.457000 1 1.000000 1 -3.000000
251 2 -217.007000 414.982000 -306.585000 1 1.000000 1 -3.000000
252 2 -217.692000 414.967000 -296.733000 1 1.000000 1 -3.000000
253 2 -218.105000 415.339000 -286.771000 1 1.000000 1 -3.000000
254 2 -218.873000 415.439000 -276.903000 1 1.000000 1 -3.000000
255 2 -218.253000 416.698000 -267.063000 1 1.000000 1 -3.000000
256 2 -217.218000 419.189000 -257.643000 1 1.000000 1 -3.000000
257 2 -216.638000 422.341000 -248.235000 1 1.000000 1 -3.000000
258 2 -214.549000 425.740000 -239.246000 1 1.000000 1 -3.000000
259 2 -211.446000 428.886000 -230.428000 1 1.000000 1 -3.000000
260 2 -209.837000 433.445000 -221.786000 1 1.000000 1 -3.000000
261 2 -209.263000 436.242000 -212.258000 1 1.000000 1 -3.000000
262 2 -209.674000 436.711000 -202.282000 1 1.000000 1 -3.000000
263 2 -209.167000 436.656000 -192.368000 1 1.000000 1 -3.000000
264 2 -209.070000 437.991000 -182.568000 1 1.000000 11 -3.000000
265 1 -255.562000 430.953000 -178.695000 1 1.000000 11 0.000000
266 3 -247.407000 414.236000 -208.289000 1 1.000000 11 0.000000
267 2 -296.187000 410.374000 -191.093000 1 1.000000 11 -3.000000
268 2 -291.523000 403.515000 -196.481000 1 1.000000 1 -3.000000
269 2 -286.256000 396.353000 -200.850000 1 1.000000 1 -3.000000
270 2 -280.572000 388.595000 -203.106000 1 1.000000 1 -3.000000
271 2 -276.266000 379.697000 -202.797000 1 1.000000 1 -3.000000
272 2 -270.464000 371.847000 -201.339000 1 1.000000 1 -3.000000
273 2 -265.344000 363.849000 -198.619000 1 1.000000 1 -3.000000
274 2 -260.018000 355.568000 -197.461000 1 1.000000 1 -3.000000
275 2 -256.410000 346.404000 -195.993000 1 1.000000 1 -3.000000
276 2 -253.979000 338.190000 -190.978000 1 1.000000 1 -3.000000
277 2 -253.205000 330.337000 -184.989000 1 1.000000 1 -3.000000
278 2 -253.418000 322.085000 -179.717000 1 1.000000 1 -3.000000
279 2 -257.068000 315.140000 -173.680000 1 1.000000 1 -3.000000
280 2 -262.534000 308.820000 -168.451000 1 1.000000 1 -3.000000
281 2 -269.800000 303.676000 -164.159000 1 1.000000 1 -3.000000
282 2 -276.004000 297.739000 -159.295000 1 1.000000 1 -3.000000
283 2 -282.429000 292.559000 -153.923000 1 1.000000 1 -3.000000
284 2 -289.353000 287.950000 -148.436000 1 1.000000 1 -3.000000
285 2 -297.260000 283.776000 -144.368000 1 1.000000 1 -3.000000
286 2 -305.528000 282.299000 -139.213000 1 1.000000 1 -3.000000
287 2 -314.672000 280.682000 -135.758000 1 1.000000 1 -3.000000
288 2 -324.424000 278.984000 -135.496000 1 1.000000 1 -3.000000
289 2 -333.447000 275.216000 -134.157000 1 1.000000 1 -3.000000
290 2 -342.966000 272.650000 -134.688000 1 1.000000 1 -3.000000
291 2 -351.745000 268.439000 -133.610000 1 1.000000 12 -3.000000
292 1 -353.603000 243.920000 -173.860000 1 1.000000 12 0.000000
293 3 -320.132000 254.005000 -172.287000 1 1.000000 12 0.000000
294 2 -335.685000 228.283000 -214.577000 1 1.000000 12 -3.000000
295 2 -325.990000 229.128000 -212.861000 1 1.000000 1 -3.000000
296 2 -316.380000 229.973000 -210.262000 1 1.000000 1 -3.000000
297 2 -306.698000 231.405000 -208.538000 1 1.000000 1 -3.000000
298 2 -297.551000 234.116000 -205.699000 1 1.000000 1 -3.000000
299 2 -289.903000 235.874000 -199.630000 1 1.000000 1 -3.000000
300 2 -282.572000 237.183000 -193.222000 1 1.000000 1 -3.000000
301 2 -277.917000 237.874000 -184.590000 1 1.000000 1 -3.000000
302 2 -272.947000 237.537000 -176.058000 1 1.000000 1 -3.000000
303 2 -267.574000 238.517000 -167.820000 1 1.000000 1 -3.000000
304 2 -262.922000 239.545000 -159.136000 1 1.000000 1 -3.000000
305 2 -259.226000 238.080000 -150.080000 1 1.000000 1 -3.000000
306 2 -254.012000 235.685000 -141.986000 1 1.000000 1 -3.000000
307 2 -248.318000 233.391000 -134.226000 1 1.000000 1 -3.000000
308 2 -240.857000 231.867000 -127.962000 1 1.000000 1 -3.000000
309 2 -234.371000 231.317000 -120.568000 1 1.000000 1 -3.000000
310 2 -228.799000 233.731000 -112.704000 1 1.000000 1 -3.000000
311 2 -222.402000 235.595000 -105.383000 1 1.000000 1 -3.000000
312 2 -215.503000 236.934000 -98.477800 1 1.000000 1 -3.000000
313 2 -208.879000 239.388000 -91.531500 1 1.000000 1 -3.000000
314 2 -201.882000 242.726000 -85.419600 1 1.000000 1 -3.000000
315 2 -195.552000 248.308000 -80.167000 1 1.000000 1 -3.000000
316 2 -190.802000 254.854000 -74.460200 1 1.000000 1 -3.000000
317 2 -186.427000 262.349000 -69.662200 1 1.000000 1 -3.000000
318 2 -183.289000 269.648000 -63.669000 1 1.000000 13 -3.000000
319 1 -168.864000 296.073000 -100.003000 1 1.000000 13 0.000000
320 3 -193.904000 276.067000 -114.070000 1 1.000000 13 0.000000
321 2 -169.149000 309.401000 -145.272000 1 1.000000 13 -3.000000
322 2 -178.585000 307.850000 -147.863000 1 1.000000 1 -3.000000
323 2 -187.120000 303.606000 -150.602000 1 1.000000 1 -3.000000
324 2 -196.084000 300.705000 -153.750000 1 1.000000 1 -3.000000
325 2 -203.647000 294.304000 -153.906000 1 1.000000 1 -3.000000
326 2 -210.035000 286.731000 -153.868000 1 1.000000 1 -3.000000
327 2 -215.192000 278.275000 -154.374000 1 1.000000 1 -3.000000
328 2 -218.925000 269.362000 -152.408000 1 1.000000 1 -3.000000
329 2 -219.618000 259.974000 -149.278000 1 1.000000 1 -3.000000
330 2 -218.784000 251.469000 -144.378000 1 1.000000 1 -3.000000
331 2 -217.907000 242.825000 -139.719000 1 1.000000 1 -3.000000
332 2 -215.113000 234.735000 -134.756000 1 1.000000 1 -3.000000
333 2 -210.288000 227.355000 -130.303000 1 1.000000 1 -3.000000
334 2 -204.681000 220.011000 -126.764000 1 1.000000 1 -3.000000
335 2 -199.583000 212.578000 -122.674000 1 1.000000 1 -3.000000
336 2 -193.292000 205.501000 -120.039000 1 1.000000 1 -3.000000
337 2 -186.991000 199.988000 -114.886000 1 1.000000 1 -3.000000
338 2 -181.034000 193.129000 -111.062000 1 1.000000 1 -3.000000
339 2 -176.894000 185.869000 -105.815000 1 1.000000 1 -3.000000
340 2 -173.518000 179.382000 -99.104800 1 1.000000 1 -3.000000
341 2 -171.054000 172.346000 -92.673700 1 1.000000 1 -3.000000
342 2 -169.816000 163.373000 -88.602600 1 1.000000 1 -3.000000
343 2 -167.600000 154.905000 -83.917200 1 1.000000 1 -3.000000
344 2 -166.879000 145.464000 -81.027500 1 1.000000 1 -3.000000
345 2 -165.922000 135.738000 -79.349500 1 1.000000 14 -3.000000
346 1 -203.979000 119.346000 -101.878000 1 1.000000 14 0.000000
347 3 -194.311000 146.817000 -121.353000 1 1.000000 14 0.000000
348 2 -234.331000 118.321000 -138.042000 1 1.000000 14 -3.000000
349 2 -228.606000 124.157000 -143.589000 1 1.000000 1 -3.000000
350 2 -222.898000 129.459000 -149.651000 1 1.000000 1 -3.000000
351 2 -217.499000 133.551000 -156.738000 1 1.000000 1 -3.000000
352 2 -211.699000 139.018000 -162.422000 1 1.000000 1 -3.000000
353 2 -203.666000 143.782000 -165.848000 1 1.000000 1 -3.000000
354 2 -195.691000 148.687000 -168.981000 1 1.000000 1 -3.000000
355 2 -186.308000 151.251000 -171.056000 1 1.000000 1 -3.000000
356 2 -178.179000 155.432000 -174.795000 1 1.000000 1 -3.000000
357 2 -170.592000 159.802000 -179.511000 1 1.000000 1 -3.000000
358 2 -163.467000 165.868000 -182.899000 1 1.000000 1 -3.000000
359 2 -155.955000 171.802000 -185.655000 1 1.000000 1 -3.000000
360 2 -148.500000 176.692000 -190.040000 1 1.000000 1 -3.000000
361 2 -140.342000 180.796000 -193.908000 1 1.000000 1 -3.000000
362 2 -132.665000 184.615000 -199.014000 1 1.000000 1 -3.000000
363 2 -126.822000 187.902000 -206.300000 1 1.000000 1 -3.000000
364 2 -120.797000 192.709000 -212.496000 1 1.000000 1 -3.000000
365 2 -113.954000 197.325000 -218.013000 1 1.000000 1 -3.000000
366 2 -105.693000 199.493000 -223.017000 1 1.000000 1 -3.000000
367 2 -98.161200 200.760000 -229.290000 1 1.000000 1 -3.000000
368 2 -92.367100 201.552000 -237.385000 1 1.000000 1 -3.000000
369 2 -86.879700 204.521000 -245.107000 1 1.000000 1 -3.000000
370 2 -82.458600 207.257000 -253.616000 1 1.000000 1 -3.000000
371 2 -81.367800 207.626000 -263.481000 1 1.000000 1 -3.000000
372 2 -80.834400 210.688000 -272.863000 1 1.000000 15 -3.000000
373 1 -65.674800 171.159000 -293.656000 1 1.000000 15 0.000000
374 3 -45.254500 173.648000 -265.354000 1 1.000000 15 0.000000
375 2 -40.461600 131.265000 -295.073000 1 1.000000 15 -3.000000
376 2 -40.164600 131.737000 -285.147000 1 1.000000 1 -3.000000
377 2 -39.341900 131.009000 -275.264000 1 1.000000 1 -3.000000
378 2 -36.103100 130.526000 -265.959000 1 1.000000 1 -3.000000
379 2 -31.726700 131.732000 -257.203000 1 1.000000 1 -3.000000
380 2 -29.859400 135.543000 -248.334000 1 1.000000 1 -3.000000
381 2 -27.622400 141.393000 -240.638000 1 1.000000 1 -3.000000
382 2 -26.815400 147.996000 -233.264000 1 1.000000 1 -3.000000
383 2 -26.213200 153.509000 -225.029000 1 1.000000 1 -3.000000
384 2 -26.567900 159.554000 -217.255000 1 1.000000 1 -3.000000
385 2 -27.995800 167.102000 -211.001000 1 1.000000 1 -3.000000
386 2 -31.630300 175.098000 -206.553000 1 1.000000 1 -3.000000
387 2 -36.316200 183.758000 -205.370000 1 1.000000 1 -3.000000
388 2 -42.487700 191.344000 -205.107000 1 1.000000 1 -3.000000
389 2 -48.297200 199.238000 -203.623000 1 1.000000 1 -3.000000
390 2 -53.751200 206.930000 -200.756000 1 1.000000 1 -3.000000
391 2 -59.146000 214.933000 -198.347000 1 1.000000 1 -3.000000
392 2 -65.651600 221.443000 -194.930000 1 1.000000 1 -3.000000
393 2 -73.221000 226.725000 -191.298000 1 1.000000 1 -3.000000
394 2 -80.826300 231.854000 -187.635000 1 1.000000 1 -3.000000
395 2 -87.016800 239.582000 -186.731000 1 1.000000 1 -3.000000
396 2 -93.730500 246.534000 -188.642000 1 1.000000 1 -3.000000
397 2 -101.027000 252.758000 -190.920000 1 1.000000 1 -3.000000
398 2 -107.248000 260.116000 -192.661000 1 1.000000 1 -3.000000
399 2 -113.503000 267.571000 -194.286000 1 1.000000 16 -3.000000
400 1 -108.437000 269.078000 -241.156000 1 1.000000 16 0.000000
401 3 -86.243900 243.846000 -231.558000 1 1.000000 16 0.000000
402 2 -88.610300 255.926000 -281.927000 1 1.000000 16 -3.000000
403 2 -84.765700 247.656000 -278.153000 1 1.000000 1 -3.000000
404 2 -79.050000 240.932000 -273.702000 1 1.000000 1 -3.000000
405 2 -72.664300 234.430000 -269.850000 1 1.000000 1 -3.000000
406 2 -65.081300 228.718000 -267.397000 1 1.000000 1 -3.000000
407 2 -57.017800 223.600000 -264.769000 1 1.000000 1 -3.000000
408 2 -49.309600 219.494000 -260.085000 1 1.000000 1 -3.000000
409 2 -42.125800 216.026000 -254.181000 1 1.000000 1 -3.000000
410 2 -33.796500 213.774000 -249.468000 1 1.000000 1 -3.000000
411 2 -25.591000 211.570000 -244.380000 1 1.000000 1 -3.000000
412 2 -17.598600 207.464000 -240.278000 1 1.000000 1 -3.000000
413 2 -9.809310 204.425000 -234.960000 1 1.000000 1 -3.000000
414 2 -2.125250 200.895000 -229.862000 1 1.000000 1 -3.000000
415 2 5.346270 196.951000 -224.654000 1 1.000000 1 -3.000000
416 2 12.235400 192.517000 -219.087000 1 1.000000 1 -3.000000
417 2 20.118000 191.532000 -213.120000 1 1.000000 1 -3.000000
418 2 28.142100 189.454000 -207.716000 1 1.000000 1 -3.000000
419 2 35.865900 187.865000 -201.769000 1 1.000000 1 -3.000000
420 2 43.853000 185.138000 -196.587000 1 1.000000 1 -3.000000
421 2 52.025600 181.242000 -192.476000 1 1.000000 1 -3.000000
422 2 59.729400 178.410000 -187.019000 1 1.000000 1 -3.000000
423 2 67.525800 176.879000 -181.076000 1 1.000000 1 -3.000000
424 2 75.899700 176.245000 -175.785000 1 1.000000 1 -3.000000
425 2 83.524900 177.502000 -169.536000 1 1.000000 1 -3.000000
426 2 91.185100 179.151000 -163.504000 1 1.000000 17 -3.000000
427 1 128.208000 189.769000 -190.742000 1 1.000000 17 0.000000
428 3 104.544000 177.961000 -213.671000 1 1.000000 17 0.000000
429 2 149.788000 195.193000 -232.394000 1 1.000000 17 -3.000000
430 2 141.291000 196.421000 -237.347000 1 1.000000 1 -3.000000
431 2 133.184000 198.680000 -242.446000 1 1.000000 1 -3.000000
432 2 124.604000 199.903000 -247.295000 1 1.000000 1 -3.000000
433 2 115.592000 199.641000 -251.271000 1 1.000000 1 -3.000000
434 2 106.741000 196.968000 -254.849000 1 1.000000 1 -3.000000
435 2 97.654700 193.211000 -255.814000 1 1.000000 1 -3.000000
436 2 89.317000 188.187000 -254.241000 1 1.000000 1 -3.000000
437 2 81.665700 182.767000 -251.235000 1 1.000000 1 -3.000000
438 2 74.804700 176.872000 -247.389000 1 1.000000 1 -3.000000
439 2 67.696700 171.237000 -243.443000 1 1.000000 1 -3.000000
440 2 63.124700 165.480000 -236.815000 1 1.000000 1 -3.000000
441 2 61.604800 160.180000 -228.670000 1 1.000000 1 -3.000000
442 2 62.222600 156.901000 -219.340000 1 1.000000 1 -3.000000
443 2 64.742000 153.995000 -210.223000 1 1.000000 1 -3.000000
444 2 69.562500 150.982000 -202.173000 1 1.000000 1 -3.000000
445 2 76.501200 148.931000 -195.429000 1 1.000000 1 -3.000000
446 2 84.336900 147.348000 -189.536000 1 1.000000 1 -3.000000
447 2 91.074400 148.257000 -182.481000 1 1.000000 1 -3.000000
448 2 97.515100 149.835000 -175.135000 1 1.000000 1 -3.000000
449 2 101.704000 148.099000 -166.296000 1 1.000000 1 -3.000000
450 2 107.202000 147.583000 -158.112000 1 1.000000 1 -3.000000
451 2 113.125000 145.655000 -150.312000 1 1.000000 1 -3.000000
452 2 118.387000 146.243000 -141.975000 1 1.000000 1 -3.000000
453 2 123.128000 147.207000 -133.425000 1 1.000000 18 -3.000000
454 1 155.870000 123.000000 -157.261000 1 1.000000 18 0.000000
455 3 132.609000 131.688000 -182.081000 1 1.000000 18 0.000000
456 2 175.008000 105.491000 -196.673000 1 1.000000 18 -3.000000
457 2 170.241000 111.163000 -203.187000 1 1.000000 1 -3.000000
458 2 165.736000 116.404000 -210.250000 1 1.000000 1 -3.000000
459 2 160.231000 122.269000 -216.107000 1 1.000000 1 -3.000000
460 2 152.997000 127.292000 -220.623000 1 1.000000 1 -3.000000
461 2 145.860000 132.117000 -225.409000 1 1.000000 1 -3.000000
462 2 138.544000 136.271000 -230.764000 1 1.000000 1 -3.000000
463 2 131.365000 139.935000 -236.576000 1 1.000000 1 -3.000000
464 2 123.918000 141.441000 -242.896000 1 1.000000 1 -3.000000
465 2 116.698000 144.081000 -249.270000 1 1.000000 1 -3.000000
466 2 108.458000 147.707000 -253.365000 1 1.000000 1 -3.000000
467 2 100.671000 153.202000 -256.274000 1 1.000000 1 -3.000000
468 2 93.377800 159.401000 -258.711000 1 1.000000 1 -3.000000
469 2 87.893900 165.320000 -264.458000 1 1.000000 1 -3.000000
470 2 84.342300 172.386000 -270.378000 1 1.000000 1 -3.000000
471 2 83.879000 179.156000 -277.442000 1 1.000000 1 -3.000000