LAMMPS data file

4067 atoms
4067 ellipsoids
4516 bonds
8882 angles
0 dihedrals

3 atom types
5 bond types
12 angle types
0 dihedral types

-4631.092947 4670.465898 xlo xhi
-4631.092947 4670.465898 ylo yhi
-4631.092947 4670.465898 zlo zhi

Masses

1 196016.000000
2 1950.000000
3 19500.000000

Atoms

1 2 629.454000 -705.633000 184.130000 1 1.000000 1 -3.000000
2 2 634.180000 -699.960000 190.708000 1 1.000000 1 -3.000000
3 2 639.595000 -693.276000 195.667000 1 1.000000 1 -3.000000
4 2 646.669000 -687.141000 198.797000 1 1.000000 1 -3.000000
5 2 653.515000 -680.750000 201.899000 1 1.000000 1 -3.000000
6 2 659.398000 -673.021000 204.231000 1 1.000000 1 -3.000000
7 2 665.010000 -665.504000 207.652000 1 1.000000 1 -3.000000
8 2 672.694000 -659.305000 208.509000 1 1.000000 1 -3.000000
9 2 679.797000 -652.491000 209.652000 1 1.000000 1 -3.000000
10 2 686.178000 -645.174000 211.751000 1 1.000000 1 -3.000000
11 2 693.083000 -638.128000 210.731000 1 1.000000 1 -3.000000
12 2 701.545000 -633.139000 209.646000 1 1.000000 1 -3.000000
13 2 707.876000 -625.533000 210.156000 1 1.000000 1 -3.000000
14 2 714.930000 -619.123000 207.504000 1 1.000000 1 -3.000000
15 2 721.181000 -611.904000 205.155000 1 1.000000 1 -3.000000
16 2 726.281000 -603.831000 202.554000 1 1.000000 1 -3.000000
17 2 732.085000 -596.113000 200.415000 1 1.000000 1 -3.000000
18 2 738.298000 -589.455000 196.589000 1 1.000000 1 -3.000000
19 2 745.119000 -584.329000 191.618000 1 1.000000 1 -3.000000
20 2 751.558000 -580.535000 185.113000 1 1.000000 1 -3.000000
21 2 757.070000 -574.657000 179.291000 1 1.000000 2 -3.000000
22 1 776.086000 -610.846000 155.721000 1 1.000000 2 0.000000
23 3 746.357000 -624.274000 168.257000 1 1.000000 2 0.000000
24 2 777.539000 -655.695000 141.287000 1 1.000000 2 -3.000000
25 2 767.814000 -657.397000 140.183000 1 1.000000 1 -3.000000
26 2 758.004000 -658.223000 138.847000 1 1.000000 1 -3.000000
27 2 748.241000 -657.254000 137.527000 1 1.000000 1 -3.000000
28 2 738.614000 -655.076000 137.572000 1 1.000000 1 -3.000000
29 2 729.588000 -651.212000 137.505000 1 1.000000 1 -3.000000
30 2 720.496000 -647.775000 135.425000 1 1.000000 1 -3.000000
31 2 711.016000 -645.040000 134.281000 1 1.000000 1 -3.000000
32 2 701.745000 -641.835000 132.860000 1 1.000000 1 -3.000000
33 2 692.457000 -639.143000 130.953000 1 1.000000 1 -3.000000
34 2 684.398000 -635.922000 126.197000 1 1.000000 1 -3.000000
35 2 675.933000 -634.518000 121.228000 1 1.000000 1 -3.000000
36 2 667.691000 -631.992000 116.350000 1 1.000000 1 -3.000000
37 2 659.946000 -627.745000 111.769000 1 1.000000 1 -3.000000
38 2 652.519000 -623.642000 106.546000 1 1.000000 1 -3.000000
39 2 645.780000 -618.916000 101.031000 1 1.000000 1 -3.000000
40 2 637.462000 -615.244000 97.350800 1 1.000000 1 -3.000000
41 2 629.062000 -610.397000 95.432300 1 1.000000 1 -3.000000
42 2 622.414000 -603.122000 94.061500 1 1.000000 1 -3.000000
43 2 615.686000 -595.922000 92.982000 1 1.000000 1 -3.000000
44 2 608.603000 -588.913000 92.546100 1 1.000000 1 -3.000000
45 2 601.205000 -582.405000 93.729700 1 1.000000 1 -3.000000
46 2 594.731000 -576.331000 98.076800 1 1.000000 1 -3.000000
47 2 589.743000 -568.719000 102.003000 1 1.000000 1 -3.000000
48 2 584.286000 -562.603000 107.533000 1 1.000000 3 -3.000000
49 1 601.122000 -565.955000 151.534000 1 1.000000 3 0.000000
50 3 625.812000 -581.627000 132.207000 1 1.000000 3 0.000000
51 2 633.890000 -577.935000 183.302000 1 1.000000 3 -3.000000
52 2 641.490000 -579.117000 177.029000 1 1.000000 1 -3.000000
53 2 648.846000 -583.074000 171.835000 1 1.000000 1 -3.000000
54 2 654.587000 -584.932000 163.961000 1 1.000000 1 -3.000000
55 2 660.216000 -588.766000 156.776000 1 1.000000 1 -3.000000
56 2 666.863000 -590.754000 149.746000 1 1.000000 1 -3.000000
57 2 673.540000 -592.654000 142.761000 1 1.000000 1 -3.000000
58 2 681.297000 -594.407000 136.847000 1 1.000000 1 -3.000000
59 2 690.776000 -595.060000 133.912000 1 1.000000 1 -3.000000
60 2 700.406000 -593.454000 132.030000 1 1.000000 1 -3.000000
61 2 710.247000 -593.709000 131.137000 1 1.000000 1 -3.000000
62 2 719.973000 -593.967000 129.601000 1 1.000000 1 -3.000000
63 2 729.159000 -594.461000 125.984000 1 1.000000 1 -3.000000
64 2 737.910000 -593.022000 121.503000 1 1.000000 1 -3.000000
65 2 745.813000 -590.751000 115.974000 1 1.000000 1 -3.000000
66 2 753.904000 -587.860000 110.992000 1 1.000000 1 -3.000000
67 2 760.296000 -584.506000 104.250000 1 1.000000 1 -3.000000
68 2 768.138000 -580.225000 100.116000 1 1.000000 1 -3.000000
69 2 776.282000 -575.434000 97.346400 1 1.000000 1 -3.000000
70 2 782.713000 -568.398000 94.483300 1 1.000000 1 -3.000000
71 2 789.613000 -561.633000 92.460400 1 1.000000 1 -3.000000
72 2 796.296000 -554.338000 91.372800 1 1.000000 1 -3.000000
73 2 801.110000 -545.813000 90.870400 1 1.000000 1 -3.000000
74 2 806.177000 -537.365000 91.873600 1 1.000000 1 -3.000000
75 2 808.139000 -527.709000 91.214200 1 1.000000 4 -3.000000
76 1 784.603000 -516.581000 130.559000 1 1.000000 4 0.000000
77 3 791.966000 -550.520000 134.931000 1 1.000000 4 0.000000
78 2 765.775000 -526.456000 172.702000 1 1.000000 4 -3.000000
79 2 770.356000 -534.908000 174.655000 1 1.000000 1 -3.000000
80 2 776.097000 -542.948000 175.615000 1 1.000000 1 -3.000000
81 2 783.709000 -548.577000 178.687000 1 1.000000 1 -3.000000
82 2 791.600000 -554.370000 179.739000 1 1.000000 1 -3.000000
83 2 798.619000 -561.280000 178.850000 1 1.000000 1 -3.000000
84 2 806.025000 -567.658000 180.434000 1 1.000000 1 -3.000000
85 2 812.995000 -574.453000 182.478000 1 1.000000 1 -3.000000
86 2 819.009000 -582.125000 184.489000 1 1.000000 1 -3.000000
87 2 825.273000 -589.025000 187.885000 1 1.000000 1 -3.000000
88 2 832.465000 -595.663000 189.647000 1 1.000000 1 -3.000000
89 2 840.315000 -601.670000 190.732000 1 1.000000 1 -3.000000
90 2 848.480000 -606.611000 193.299000 1 1.000000 1 -3.000000
91 2 857.559000 -609.676000 195.648000 1 1.000000 1 -3.000000
92 2 866.657000 -611.624000 198.944000 1 1.000000 1 -3.000000
93 2 875.736000 -613.696000 202.161000 1 1.000000 1 -3.000000
94 2 884.563000 -617.566000 204.201000 1 1.000000 1 -3.000000
95 2 894.005000 -620.335000 205.865000 1 1.000000 1 -3.000000
96 2 902.653000 -624.050000 208.807000 1 1.000000 1 -3.000000
97 2 910.999000 -627.051000 213.325000 1 1.000000 1 -3.000000
98 2 918.630000 -629.797000 218.915000 1 1.000000 1 -3.000000
99 2 925.886000 -628.667000 225.427000 1 1.000000 1 -3.000000
100 2 932.089000 -627.538000 233.062000 1 1.000000 1 -3.000000
101 2 937.641000 -626.499000 241.153000 1 1.000000 1 -3.000000
102 2 944.522000 -626.524000 248.306000 1 1.000000 5 -3.000000
103 1 939.735000 -579.605000 251.025000 1 1.000000 5 0.000000
104 3 909.443000 -590.012000 236.942000 1 1.000000 5 0.000000
105 2 914.908000 -539.600000 248.037000 1 1.000000 5 -3.000000
106 2 906.206000 -544.258000 249.397000 1 1.000000 1 -3.000000
107 2 897.082000 -548.221000 250.110000 1 1.000000 1 -3.000000
108 2 888.697000 -553.379000 251.044000 1 1.000000 1 -3.000000
109 2 880.715000 -559.208000 251.554000 1 1.000000 1 -3.000000
110 2 874.091000 -566.583000 251.508000 1 1.000000 1 -3.000000
111 2 869.027000 -575.118000 250.498000 1 1.000000 1 -3.000000
112 2 864.847000 -583.421000 247.054000 1 1.000000 1 -3.000000
113 2 862.294000 -592.550000 244.420000 1 1.000000 1 -3.000000
114 2 860.547000 -602.257000 243.925000 1 1.000000 1 -3.000000
115 2 861.736000 -612.082000 243.054000 1 1.000000 1 -3.000000
116 2 863.747000 -621.701000 244.207000 1 1.000000 1 -3.000000
117 2 865.914000 -631.088000 246.595000 1 1.000000 1 -3.000000
118 2 868.794000 -640.644000 247.276000 1 1.000000 1 -3.000000
119 2 870.816000 -650.404000 247.442000 1 1.000000 1 -3.000000
120 2 871.493000 -660.204000 248.270000 1 1.000000 1 -3.000000
121 2 872.502000 -669.983000 249.206000 1 1.000000 1 -3.000000
122 2 873.773000 -679.224000 252.462000 1 1.000000 1 -3.000000
123 2 877.225000 -686.330000 258.241000 1 1.000000 1 -3.000000
124 2 880.366000 -695.014000 261.772000 1 1.000000 1 -3.000000
125 2 884.190000 -703.763000 264.549000 1 1.000000 1 -3.000000
126 2 885.981000 -713.400000 265.922000 1 1.000000 1 -3.000000
127 2 886.693000 -722.659000 269.350000 1 1.000000 1 -3.000000
128 2 886.207000 -732.213000 271.888000 1 1.000000 1 -3.000000
129 2 884.724000 -741.252000 275.586000 1 1.000000 6 -3.000000
130 1 869.820000 -725.521000 317.444000 1 1.000000 6 0.000000
131 3 854.122000 -703.960000 294.788000 1 1.000000 6 0.000000
132 2 845.176000 -696.565000 345.380000 1 1.000000 6 -3.000000
133 2 838.670000 -692.944000 338.808000 1 1.000000 1 -3.000000
134 2 831.716000 -689.954000 332.420000 1 1.000000 1 -3.000000
135 2 824.981000 -687.730000 325.583000 1 1.000000 1 -3.000000
136 2 819.201000 -686.923000 317.559000 1 1.000000 1 -3.000000
137 2 815.203000 -685.353000 308.687000 1 1.000000 1 -3.000000
138 2 814.716000 -684.527000 298.866000 1 1.000000 1 -3.000000
139 2 813.163000 -683.314000 289.177000 1 1.000000 1 -3.000000
140 2 811.127000 -682.814000 279.551000 1 1.000000 1 -3.000000
141 2 807.438000 -684.275000 270.440000 1 1.000000 1 -3.000000
142 2 803.607000 -688.986000 262.578000 1 1.000000 1 -3.000000
143 2 800.208000 -695.440000 255.886000 1 1.000000 1 -3.000000
144 2 796.367000 -700.476000 248.329000 1 1.000000 1 -3.000000
145 2 792.121000 -705.081000 240.647000 1 1.000000 1 -3.000000
146 2 788.421000 -709.171000 232.377000 1 1.000000 1 -3.000000
147 2 785.654000 -713.562000 223.931000 1 1.000000 1 -3.000000
148 2 783.776000 -716.838000 214.726000 1 1.000000 1 -3.000000
149 2 781.769000 -721.772000 206.363000 1 1.000000 1 -3.000000
150 2 780.499000 -725.055000 197.099000 1 1.000000 1 -3.000000
151 2 780.998000 -723.924000 187.223000 1 1.000000 1 -3.000000
152 2 779.919000 -723.293000 177.410000 1 1.000000 1 -3.000000
153 2 779.247000 -723.406000 167.547000 1 1.000000 1 -3.000000
154 2 781.727000 -724.466000 157.940000 1 1.000000 1 -3.000000
155 2 782.629000 -725.691000 148.180000 1 1.000000 1 -3.000000
156 2 781.739000 -726.666000 138.276000 1 1.000000 7 -3.000000
157 1 800.472000 -769.853000 140.997000 1 1.000000 7 0.000000
158 3 782.715000 -766.905000 171.026000 1 1.000000 7 0.000000
159 2 805.202000 -812.479000 160.717000 1 1.000000 7 -3.000000
160 2 797.709000 -812.285000 167.115000 1 1.000000 1 -3.000000
161 2 789.526000 -811.306000 172.536000 1 1.000000 1 -3.000000
162 2 780.979000 -809.949000 177.181000 1 1.000000 1 -3.000000
163 2 772.250000 -808.635000 181.712000 1 1.000000 1 -3.000000
164 2 764.568000 -807.015000 187.709000 1 1.000000 1 -3.000000
165 2 755.164000 -805.536000 190.503000 1 1.000000 1 -3.000000
166 2 745.693000 -802.977000 191.611000 1 1.000000 1 -3.000000
167 2 736.376000 -801.450000 194.623000 1 1.000000 1 -3.000000
168 2 727.149000 -800.511000 198.062000 1 1.000000 1 -3.000000
169 2 718.337000 -798.789000 202.336000 1 1.000000 1 -3.000000
170 2 709.754000 -796.916000 206.984000 1 1.000000 1 -3.000000
171 2 701.527000 -794.802000 212.144000 1 1.000000 1 -3.000000
172 2 692.522000 -796.454000 215.980000 1 1.000000 1 -3.000000
173 2 684.005000 -798.062000 220.780000 1 1.000000 1 -3.000000
174 2 675.326000 -800.528000 224.847000 1 1.000000 1 -3.000000
175 2 666.865000 -801.996000 229.579000 1 1.000000 1 -3.000000
176 2 659.372000 -805.292000 235.185000 1 1.000000 1 -3.000000
177 2 653.461000 -810.376000 241.192000 1 1.000000 1 -3.000000
178 2 646.901000 -812.071000 248.454000 1 1.000000 1 -3.000000
179 2 639.718000 -811.879000 255.213000 1 1.000000 1 -3.000000
180 2 633.338000 -809.313000 262.428000 1 1.000000 1 -3.000000
181 2 626.779000 -805.195000 268.641000 1 1.000000 1 -3.000000
182 2 619.972000 -802.362000 275.404000 1 1.000000 1 -3.000000
183 2 615.528000 -796.625000 282.157000 1 1.000000 8 -3.000000
184 1 644.460000 -761.808000 295.570000 1 1.000000 8 0.000000
185 3 658.026000 -772.080000 265.039000 1 1.000000 8 0.000000
186 2 683.742000 -735.915000 292.013000 1 1.000000 8 -3.000000
187 2 685.686000 -738.533000 282.719000 1 1.000000 1 -3.000000
188 2 685.898000 -738.826000 272.821000 1 1.000000 1 -3.000000
189 2 685.639000 -740.105000 262.985000 1 1.000000 1 -3.000000
190 2 683.344000 -740.128000 253.401000 1 1.000000 1 -3.000000
191 2 680.086000 -739.685000 244.038000 1 1.000000 1 -3.000000
192 2 677.415000 -742.042000 234.779000 1 1.000000 1 -3.000000
193 2 675.208000 -742.684000 225.136000 1 1.000000 1 -3.000000
194 2 676.543000 -745.455000 215.814000 1 1.000000 1 -3.000000
195 2 678.927000 -748.115000 206.536000 1 1.000000 1 -3.000000
196 2 684.570000 -747.616000 198.440000 1 1.000000 1 -3.000000
197 2 690.403000 -747.049000 190.520000 1 1.000000 1 -3.000000
198 2 695.005000 -746.724000 181.722000 1 1.000000 1 -3.000000
199 2 699.924000 -744.524000 173.493000 1 1.000000 1 -3.000000
200 2 705.467000 -742.886000 165.432000 1 1.000000 1 -3.000000
201 2 710.723000 -741.804000 157.078000 1 1.000000 1 -3.000000
202 2 717.086000 -741.255000 149.568000 1 1.000000 1 -3.000000
203 2 724.735000 -740.557000 143.238000 1 1.000000 1 -3.000000
204 2 731.342000 -738.465000 136.010000 1 1.000000 1 -3.000000
205 2 737.401000 -735.621000 128.743000 1 1.000000 1 -3.000000
206 2 742.707000 -735.471000 120.468000 1 1.000000 1 -3.000000
207 2 748.372000 -738.822000 113.089000 1 1.000000 1 -3.000000
208 2 753.480000 -744.054000 106.517000 1 1.000000 1 -3.000000
209 2 759.073000 -750.323000 101.312000 1 1.000000 1 -3.000000
210 2 765.773000 -756.719000 98.009500 1 1.000000 9 -3.000000
211 1 731.759000 -785.465000 82.493700 1 1.000000 9 0.000000
212 3 714.164000 -761.866000 101.485000 1 1.000000 9 0.000000
213 2 686.756000 -798.742000 77.420300 1 1.000000 9 -3.000000
214 2 682.279000 -790.896000 81.627700 1 1.000000 1 -3.000000
215 2 679.007000 -782.796000 86.301600 1 1.000000 1 -3.000000
216 2 674.358000 -774.824000 90.151700 1 1.000000 1 -3.000000
217 2 669.409000 -767.599000 94.770400 1 1.000000 1 -3.000000
218 2 668.308000 -759.905000 100.870000 1 1.000000 1 -3.000000
219 2 669.999000 -750.924000 104.656000 1 1.000000 1 -3.000000
220 2 673.810000 -741.961000 106.633000 1 1.000000 1 -3.000000
221 2 677.987000 -732.943000 106.414000 1 1.000000 1 -3.000000
222 2 683.189000 -724.570000 106.552000 1 1.000000 1 -3.000000
223 2 688.662000 -716.325000 106.468000 1 1.000000 1 -3.000000
224 2 693.899000 -707.955000 107.111000 1 1.000000 1 -3.000000
225 2 697.577000 -699.238000 109.882000 1 1.000000 1 -3.000000
226 2 701.423000 -693.422000 116.835000 1 1.000000 1 -3.000000
227 2 703.345000 -685.541000 122.440000 1 1.000000 1 -3.000000
228 2 705.474000 -677.594000 127.727000 1 1.000000 1 -3.000000
229 2 707.297000 -670.547000 134.429000 1 1.000000 1 -3.000000
230 2 710.640000 -664.562000 141.683000 1 1.000000 1 -3.000000
231 2 712.144000 -658.716000 149.570000 1 1.000000 1 -3.000000
232 2 714.740000 -654.145000 157.960000 1 1.000000 1 -3.000000
233 2 718.935000 -650.456000 166.157000 1 1.000000 1 -3.000000
234 2 725.421000 -645.439000 171.769000 1 1.000000 1 -3.000000
235 2 732.711000 -641.183000 176.946000 1 1.000000 1 -3.000000
236 2 739.287000 -637.370000 183.251000 1 1.000000 1 -3.000000
237 2 745.627000 -633.126000 189.494000 1 1.000000 10 -3.000000
238 1 774.844000 -669.585000 182.577000 1 1.000000 10 0.000000
239 3 756.247000 -668.455000 152.919000 1 1.000000 10 0.000000
240 2 794.728000 -703.206000 156.101000 1 1.000000 10 -3.000000
241 2 791.962000 -701.273000 146.788000 1 1.000000 1 -3.000000
242 2 787.693000 -698.837000 138.217000 1 1.000000 1 -3.000000
243 2 782.042000 -696.532000 130.376000 1 1.000000 1 -3.000000
244 2 775.973000 -693.744000 123.147000 1 1.000000 1 -3.000000
245 2 769.786000 -690.602000 116.155000 1 1.000000 1 -3.000000
246 2 766.196000 -685.997000 108.190000 1 1.000000 1 -3.000000
247 2 762.318000 -679.959000 101.347000 1 1.000000 1 -3.000000
248 2 758.014000 -674.589000 94.165600 1 1.000000 1 -3.000000
249 2 752.628000 -668.968000 87.929100 1 1.000000 1 -3.000000
250 2 746.685000 -663.953000 81.766400 1 1.000000 1 -3.000000
251 2 743.439000 -658.015000 74.530100 1 1.000000 1 -3.000000
252 2 739.542000 -653.145000 66.820100 1 1.000000 1 -3.000000
253 2 735.812000 -647.575000 59.572900 1 1.000000 1 -3.000000
254 2 731.257000 -642.328000 52.550800 1 1.000000 1 -3.000000
255 2 729.768000 -637.186000 44.172900 1 1.000000 1 -3.000000
256 2 731.311000 -632.604000 35.583700 1 1.000000 1 -3.000000
257 2 734.327000 -628.930000 26.822900 1 1.000000 1 -3.000000
258 2 735.996000 -625.083000 17.843900 1 1.000000 1 -3.000000
259 2 739.241000 -620.495000 9.748200 1 1.000000 1 -3.000000
260 2 741.945000 -616.537000 1.042030 1 1.000000 1 -3.000000
261 2 741.576000 -613.057000 -8.199000 1 1.000000 1 -3.000000
262 2 742.236000 -612.612000 -18.056200 1 1.000000 1 -3.000000
263 2 744.146000 -612.195000 -27.831000 1 1.000000 1 -3.000000
264 2 745.445000 -613.173000 -37.590300 1 1.000000 11 -3.000000
265 1 722.391000 -653.317000 -46.712600 1 1.000000 11 0.000000
266 3 711.115000 -644.771000 -14.580300 1 1.000000 11 0.000000
267 2 691.544000 -687.538000 -36.580200 1 1.000000 11 -3.000000
268 2 685.198000 -682.339000 -31.024200 1 1.000000 1 -3.000000
269 2 680.473000 -676.381000 -24.784900 1 1.000000 1 -3.000000
270 2 677.375000 -671.543000 -16.627800 1 1.000000 1 -3.000000
271 2 673.341000 -666.831000 -8.879770 1 1.000000 1 -3.000000
272 2 671.803000 -660.444000 -1.475120 1 1.000000 1 -3.000000
273 2 672.579000 -653.596000 5.632140 1 1.000000 1 -3.000000
274 2 675.530000 -648.593000 13.671000 1 1.000000 1 -3.000000
275 2 679.786000 -644.120000 21.422200 1 1.000000 1 -3.000000
276 2 682.957000 -639.428000 29.618800 1 1.000000 1 -3.000000
277 2 685.614000 -633.813000 37.363500 1 1.000000 1 -3.000000
278 2 686.257000 -626.138000 43.534800 1 1.000000 1 -3.000000
279 2 688.025000 -619.983000 51.137800 1 1.000000 1 -3.000000
280 2 688.841000 -612.654000 57.750300 1 1.000000 1 -3.000000
281 2 690.413000 -606.775000 65.515800 1 1.000000 1 -3.000000
282 2 692.242000 -602.052000 73.957700 1 1.000000 1 -3.000000
283 2 697.175000 -597.740000 81.452500 1 1.000000 1 -3.000000
284 2 698.194000 -590.055000 87.688800 1 1.000000 1 -3.000000
285 2 700.035000 -582.600000 93.997700 1 1.000000 1 -3.000000
286 2 700.292000 -574.200000 99.271100 1 1.000000 1 -3.000000
287 2 703.033000 -567.608000 106.076000 1 1.000000 1 -3.000000
288 2 706.244000 -562.357000 113.812000 1 1.000000 1 -3.000000
289 2 711.035000 -557.839000 121.303000 1 1.000000 1 -3.000000
290 2 718.222000 -554.058000 126.958000 1 1.000000 1 -3.000000
291 2 722.743000 -549.569000 134.492000 1 1.000000 12 -3.000000
292 1 703.237000 -578.243000 166.557000 1 1.000000 12 0.000000
293 3 701.492000 -596.897000 136.978000 1 1.000000 12 0.000000
294 2 684.115000 -618.971000 180.703000 1 1.000000 12 -3.000000
295 2 682.467000 -626.213000 174.170000 1 1.000000 1 -3.000000
296 2 679.635000 -633.059000 167.584000 1 1.000000 1 -3.000000
297 2 674.950000 -638.656000 160.869000 1 1.000000 1 -3.000000
298 2 669.650000 -643.978000 154.537000 1 1.000000 1 -3.000000
299 2 663.527000 -649.192000 148.695000 1 1.000000 1 -3.000000
300 2 658.912000 -656.324000 143.684000 1 1.000000 1 -3.000000
301 2 653.675000 -664.052000 140.404000 1 1.000000 1 -3.000000
302 2 648.150000 -671.588000 137.178000 1 1.000000 1 -3.000000
303 2 643.619000 -679.943000 134.250000 1 1.000000 1 -3.000000
304 2 640.689000 -687.806000 129.070000 1 1.000000 1 -3.000000
305 2 638.448000 -694.904000 122.466000 1 1.000000 1 -3.000000
306 2 638.095000 -702.748000 116.529000 1 1.000000 1 -3.000000
307 2 638.742000 -710.578000 110.615000 1 1.000000 1 -3.000000
308 2 638.878000 -718.641000 104.825000 1 1.000000 1 -3.000000
309 2 637.624000 -726.469000 98.856600 1 1.000000 1 -3.000000
310 2 634.882000 -734.830000 94.191900 1 1.000000 1 -3.000000
311 2 633.186000 -742.030000 87.663800 1 1.000000 1 -3.000000
312 2 632.963000 -748.777000 80.518000 1 1.000000 1 -3.000000
313 2 634.302000 -755.791000 73.830800 1 1.000000 1 -3.000000
314 2 636.017000 -763.319000 67.455700 1 1.000000 1 -3.000000
315 2 639.308000 -770.828000 61.936500 1 1.000000 1 -3.000000
316 2 641.872000 -779.623000 58.253700 1 1.000000 1 -3.000000
317 2 646.009000 -788.252000 55.694800 1 1.000000 1 -3.000000
318 2 650.443000 -796.223000 51.873600 1 1.000000 13 -3.000000
319 1 651.134000 -819.298000 93.032100 1 1.000000 13 0.000000
320 3 629.867000 -792.230000 99.492300 1 1.000000 13 0.000000
321 2 640.229000 -824.803000 138.594000 1 1.000000 13 -3.000000
322 2 631.732000 -819.742000 138.943000 1 1.000000 1 -3.000000
323 2 623.083000 -815.171000 139.066000 1 1.000000 1 -3.000000
324 2 613.603000 -814.209000 136.429000 1 1.000000 1 -3.000000
325 2 604.818000 -814.449000 131.773000 1 1.000000 1 -3.000000
326 2 596.266000 -815.888000 126.925000 1 1.000000 1 -3.000000
327 2 589.608000 -817.117000 119.741000 1 1.000000 1 -3.000000
328 2 584.171000 -821.988000 112.987000 1 1.000000 1 -3.000000
329 2 578.928000 -826.203000 105.752000 1 1.000000 1 -3.000000
330 2 574.212000 -831.697000 98.941800 1 1.000000 1 -3.000000
331 2 571.452000 -836.630000 90.785600 1 1.000000 1 -3.000000
332 2 568.940000 -839.924000 81.908900 1 1.000000 1 -3.000000
333 2 565.513000 -845.203000 74.141000 1 1.000000 1 -3.000000
334 2 560.926000 -849.176000 66.348800 1 1.000000 1 -3.000000
335 2 559.287000 -854.669000 58.305700 1 1.000000 1 -3.000000
336 2 556.696000 -859.102000 49.837400 1 1.000000 1 -3.000000
337 2 554.082000 -865.635000 42.777800 1 1.000000 1 -3.000000
338 2 550.843000 -871.352000 35.451100 1 1.000000 1 -3.000000
339 2 549.440000 -875.022000 26.373500 1 1.000000 1 -3.000000
340 2 549.377000 -875.026000 16.490300 1 1.000000 1 -3.000000
341 2 549.189000 -878.360000 7.205490 1 1.000000 1 -3.000000
342 2 549.172000 -883.775000 -1.093020 1 1.000000 1 -3.000000
343 2 550.763000 -890.029000 -8.528260 1 1.000000 1 -3.000000
344 2 549.993000 -896.991000 -15.570200 1 1.000000 1 -3.000000
345 2 551.274000 -902.775000 -23.539600 1 1.000000 14 -3.000000
346 1 544.697000 -943.508000 -0.656095 1 1.000000 14 0.000000
347 3 540.365000 -919.410000 24.348200 1 1.000000 14 0.000000
348 2 536.221000 -969.502000 37.813200 1 1.000000 14 -3.000000
349 2 534.585000 -962.312000 44.340600 1 1.000000 1 -3.000000
350 2 532.508000 -955.145000 50.861900 1 1.000000 1 -3.000000
351 2 531.773000 -948.122000 57.834400 1 1.000000 1 -3.000000
352 2 529.184000 -939.317000 61.616100 1 1.000000 1 -3.000000
353 2 526.618000 -931.044000 66.442600 1 1.000000 1 -3.000000
354 2 525.179000 -922.066000 70.320400 1 1.000000 1 -3.000000
355 2 521.816000 -913.597000 74.140200 1 1.000000 1 -3.000000
356 2 519.350000 -904.440000 77.039300 1 1.000000 1 -3.000000
357 2 516.451000 -895.011000 78.377100 1 1.000000 1 -3.000000
358 2 512.953000 -885.712000 78.783900 1 1.000000 1 -3.000000
359 2 506.989000 -877.904000 79.426600 1 1.000000 1 -3.000000
360 2 502.795000 -868.985000 80.162400 1 1.000000 1 -3.000000
361 2 497.277000 -860.894000 81.553400 1 1.000000 1 -3.000000
362 2 490.390000 -853.782000 82.261700 1 1.000000 1 -3.000000
363 2 483.655000 -846.556000 83.092300 1 1.000000 1 -3.000000
364 2 476.608000 -840.015000 85.483000 1 1.000000 1 -3.000000
365 2 469.850000 -832.948000 87.123200 1 1.000000 1 -3.000000
366 2 462.212000 -826.683000 87.680100 1 1.000000 1 -3.000000
367 2 454.336000 -820.900000 88.851500 1 1.000000 1 -3.000000
368 2 447.382000 -813.889000 89.820200 1 1.000000 1 -3.000000
369 2 438.064000 -810.998000 91.360500 1 1.000000 1 -3.000000
370 2 428.902000 -809.616000 94.850500 1 1.000000 1 -3.000000
371 2 420.246000 -807.379000 98.937600 1 1.000000 1 -3.000000
372 2 410.773000 -805.074000 101.091000 1 1.000000 15 -3.000000
373 1 412.125000 -828.232000 142.208000 1 1.000000 15 0.000000
374 3 445.522000 -828.749000 131.685000 1 1.000000 15 0.000000
375 2 433.572000 -854.573000 175.039000 1 1.000000 15 -3.000000
376 2 442.890000 -853.200000 171.945000 1 1.000000 1 -3.000000
377 2 452.046000 -850.947000 169.186000 1 1.000000 1 -3.000000
378 2 461.296000 -847.994000 167.136000 1 1.000000 1 -3.000000
379 2 470.436000 -844.655000 165.480000 1 1.000000 1 -3.000000
380 2 476.977000 -838.163000 161.681000 1 1.000000 1 -3.000000
381 2 483.552000 -832.691000 156.622000 1 1.000000 1 -3.000000
382 2 490.905000 -827.761000 152.197000 1 1.000000 1 -3.000000
383 2 498.133000 -822.758000 147.674000 1 1.000000 1 -3.000000
384 2 506.330000 -818.039000 144.595000 1 1.000000 1 -3.000000
385 2 513.548000 -813.190000 139.846000 1 1.000000 1 -3.000000
386 2 520.263000 -807.362000 135.531000 1 1.000000 1 -3.000000
387 2 527.322000 -803.524000 129.748000 1 1.000000 1 -3.000000
388 2 534.448000 -799.657000 124.180000 1 1.000000 1 -3.000000
389 2 542.562000 -796.213000 119.606000 1 1.000000 1 -3.000000
390 2 550.746000 -792.142000 115.787000 1 1.000000 1 -3.000000
391 2 559.742000 -791.230000 111.999000 1 1.000000 1 -3.000000
392 2 568.700000 -788.786000 108.568000 1 1.000000 1 -3.000000
393 2 577.790000 -786.668000 105.200000 1 1.000000 1 -3.000000
394 2 586.764000 -784.274000 101.642000 1 1.000000 1 -3.000000
395 2 594.700000 -781.267000 96.612500 1 1.000000 1 -3.000000
396 2 599.610000 -776.403000 89.448800 1 1.000000 1 -3.000000
397 2 603.302000 -771.570000 81.612400 1 1.000000 1 -3.000000
398 2 607.392000 -765.560000 74.832300 1 1.000000 1 -3.000000
399 2 613.283000 -759.698000 69.400400 1 1.000000 16 -3.000000
400 1 577.987000 -761.304000 38.192700 1 1.000000 16 0.000000
401 3 561.867000 -766.711000 68.801100 1 1.000000 16 0.000000
402 2 533.231000 -769.325000 25.548800 1 1.000000 16 -3.000000
403 2 528.076000 -767.593000 33.832100 1 1.000000 1 -3.000000
404 2 523.788000 -763.189000 41.511700 1 1.000000 1 -3.000000
405 2 520.828000 -759.156000 50.066500 1 1.000000 1 -3.000000
406 2 519.956000 -756.471000 59.544600 1 1.000000 1 -3.000000
407 2 519.315000 -752.750000 68.703400 1 1.000000 1 -3.000000
408 2 521.152000 -751.444000 78.352600 1 1.000000 1 -3.000000
409 2 521.082000 -748.947000 87.897900 1 1.000000 1 -3.000000
410 2 520.532000 -746.580000 97.511600 1 1.000000 1 -3.000000
411 2 521.967000 -745.982000 107.248000 1 1.000000 1 -3.000000
412 2 524.226000 -746.495000 116.915000 1 1.000000 1 -3.000000
413 2 525.603000 -746.697000 126.721000 1 1.000000 1 -3.000000
414 2 525.501000 -747.529000 136.563000 1 1.000000 1 -3.000000
415 2 525.245000 -749.759000 146.224000 1 1.000000 1 -3.000000
416 2 525.991000 -750.887000 156.086000 1 1.000000 1 -3.000000
417 2 523.684000 -751.833000 165.578000 1 1.000000 1 -3.000000
418 2 520.165000 -750.801000 174.790000 1 1.000000 1 -3.000000
419 2 516.589000 -749.114000 183.897000 1 1.000000 1 -3.000000
420 2 513.187000 -750.856000 193.054000 1 1.000000 1 -3.000000
421 2 509.010000 -751.088000 201.999000 1 1.000000 1 -3.000000
422 2 505.320000 -749.825000 211.063000 1 1.000000 1 -3.000000
423 2 503.467000 -748.512000 220.757000 1 1.000000 1 -3.000000
424 2 503.158000 -747.192000 230.502000 1 1.000000 1 -3.000000
425 2 502.465000 -746.248000 240.371000 1 1.000000 1 -3.000000
426 2 500.827000 -747.428000 250.065000 1 1.000000 17 -3.000000
427 1 546.643000 -745.824000 261.084000 1 1.000000 17 0.000000
428 3 546.556000 -740.820000 226.511000 1 1.000000 17 0.000000
429 2 592.304000 -739.617000 251.033000 1 1.000000 17 -3.000000
430 2 591.477000 -737.427000 241.465000 1 1.000000 1 -3.000000
431 2 591.540000 -731.558000 233.439000 1 1.000000 1 -3.000000
432 2 589.104000 -725.416000 226.122000 1 1.000000 1 -3.000000
433 2 585.555000 -721.892000 217.605000 1 1.000000 1 -3.000000
434 2 581.179000 -719.611000 209.031000 1 1.000000 1 -3.000000
435 2 575.597000 -717.426000 201.197000 1 1.000000 1 -3.000000
436 2 570.067000 -716.304000 193.122000 1 1.000000 1 -3.000000
437 2 565.361000 -715.584000 184.451000 1 1.000000 1 -3.000000
438 2 559.971000 -713.710000 176.335000 1 1.000000 1 -3.000000
439 2 554.277000 -711.161000 168.569000 1 1.000000 1 -3.000000
440 2 549.409000 -708.819000 160.316000 1 1.000000 1 -3.000000
441 2 543.451000 -706.816000 152.706000 1 1.000000 1 -3.000000
442 2 535.112000 -704.465000 147.721000 1 1.000000 1 -3.000000
443 2 527.818000 -702.322000 141.454000 1 1.000000 1 -3.000000
444 2 519.995000 -704.066000 135.597000 1 1.000000 1 -3.000000
445 2 512.490000 -705.883000 129.364000 1 1.000000 1 -3.000000
446 2 504.799000 -707.047000 123.090000 1 1.000000 1 -3.000000
447 2 497.236000 -706.582000 116.812000 1 1.000000 1 -3.000000
448 2 489.966000 -707.407000 110.107000 1 1.000000 1 -3.000000
449 2 482.948000 -708.484000 103.221000 1 1.000000 1 -3.000000
450 2 474.272000 -709.123000 98.452400 1 1.000000 1 -3.000000
451 2 465.069000 -710.483000 95.065300 1 1.000000 1 -3.000000
452 2 456.335000 -714.748000 93.031700 1 1.000000 1 -3.000000
453 2 447.634000 -718.716000 90.451600 1 1.000000 18 -3.000000
454 1 441.089000 -752.427000 122.796000 1 1.000000 18 0.000000
455 3 466.093000 -732.489000 137.045000 1 1.000000 18 0.000000
456 2 449.923000 -773.757000 163.972000 1 1.000000 18 -3.000000
457 2 455.432000 -767.238000 168.819000 1 1.000000 1 -3.000000
458 2 460.634000 -760.206000 173.511000 1 1.000000 1 -3.000000
459 2 464.576000 -752.139000 177.902000 1 1.000000 1 -3.000000
460 2 467.736000 -743.305000 181.014000 1 1.000000 1 -3.000000
461 2 471.045000 -734.115000 182.388000 1 1.000000 1 -3.000000
462 2 473.823000 -724.621000 182.194000 1 1.000000 1 -3.000000
463 2 477.246000 -715.373000 180.398000 1 1.000000 1 -3.000000
464 2 480.153000 -705.979000 179.312000 1 1.000000 1 -3.000000
465 2 483.608000 -696.735000 178.420000 1 1.000000 1 -3.000000
466 2 484.485000 -686.927000 176.946000 1 1.000000 1 -3.000000
467 2 484.709000 -677.132000 175.707000 1 1.000000 1 -3.000000
468 2 485.421000 -667.211000 174.883000 1 1.000000 1 -3.000000
469 2 485.127000 -657.308000 174.030000 1 1.000000 1 -3.000000
470 2 484.460000 -647.451000 173.860000 1 1.000000 1 -3.000000
471 2 483.635000 -637.605000 174.628000 1 1.000000 1 -3.000000
472 2 485.599000 -629.035000 179.295000 1 1.000000 1 -3.000000
473 2 488.971000 -620.349000 182.473000 1 1.000000 1 -3.000000
474 2 494.105000 -611.971000 183.796000 1 1.000000 1 -3.000000
475 2 501.267000 -605.210000 184.600000 1 1.000000 1 -3.000000