LAMMPS data file

4067 atoms
4067 ellipsoids
4516 bonds
8882 angles
0 dihedrals

3 atom types
5 bond types
12 angle types
0 dihedral types

-4631.092947 4670.465898 xlo xhi
-4631.092947 4670.465898 ylo yhi
-4631.092947 4670.465898 zlo zhi

Masses

1 196016.000000
2 1950.000000
3 19500.000000

Atoms

1 2 -332.172000 -456.097000 459.719000 1 1.000000 1 -3.000000
2 2 -337.572000 -459.137000 451.914000 1 1.000000 1 -3.000000
3 2 -339.649000 -460.395000 442.343000 1 1.000000 1 -3.000000
4 2 -343.302000 -461.456000 433.244000 1 1.000000 1 -3.000000
5 2 -346.940000 -464.226000 424.480000 1 1.000000 1 -3.000000
6 2 -352.575000 -466.860000 416.828000 1 1.000000 1 -3.000000
7 2 -357.685000 -471.941000 409.961000 1 1.000000 1 -3.000000
8 2 -363.110000 -475.540000 402.409000 1 1.000000 1 -3.000000
9 2 -368.063000 -479.657000 394.925000 1 1.000000 1 -3.000000
10 2 -371.071000 -483.215000 386.199000 1 1.000000 1 -3.000000
11 2 -372.889000 -487.097000 377.376000 1 1.000000 1 -3.000000
12 2 -374.079000 -492.500000 369.181000 1 1.000000 1 -3.000000
13 2 -376.278000 -498.382000 361.473000 1 1.000000 1 -3.000000
14 2 -377.336000 -504.346000 353.595000 1 1.000000 1 -3.000000
15 2 -378.037000 -507.392000 344.234000 1 1.000000 1 -3.000000
16 2 -378.534000 -512.665000 335.790000 1 1.000000 1 -3.000000
17 2 -381.490000 -517.060000 327.419000 1 1.000000 1 -3.000000
18 2 -386.105000 -523.498000 321.449000 1 1.000000 1 -3.000000
19 2 -391.004000 -529.870000 315.638000 1 1.000000 1 -3.000000
20 2 -396.757000 -534.315000 309.011000 1 1.000000 1 -3.000000
21 2 -402.436000 -539.757000 303.064000 1 1.000000 2 -3.000000
22 1 -445.017000 -523.122000 314.820000 1 1.000000 2 0.000000
23 3 -423.141000 -502.436000 332.664000 1 1.000000 2 0.000000
24 2 -474.120000 -495.667000 339.774000 1 1.000000 2 -3.000000
25 2 -467.986000 -488.806000 343.443000 1 1.000000 1 -3.000000
26 2 -461.837000 -481.414000 345.697000 1 1.000000 1 -3.000000
27 2 -454.878000 -474.434000 347.177000 1 1.000000 1 -3.000000
28 2 -447.318000 -468.047000 348.353000 1 1.000000 1 -3.000000
29 2 -439.394000 -462.142000 348.709000 1 1.000000 1 -3.000000
30 2 -430.008000 -458.974000 348.235000 1 1.000000 1 -3.000000
31 2 -420.293000 -458.249000 346.937000 1 1.000000 1 -3.000000
32 2 -410.530000 -456.336000 345.926000 1 1.000000 1 -3.000000
33 2 -400.797000 -454.656000 345.365000 1 1.000000 1 -3.000000
34 2 -391.088000 -454.931000 347.399000 1 1.000000 1 -3.000000
35 2 -381.850000 -451.860000 349.083000 1 1.000000 1 -3.000000
36 2 -372.202000 -449.744000 350.381000 1 1.000000 1 -3.000000
37 2 -363.528000 -445.515000 352.506000 1 1.000000 1 -3.000000
38 2 -355.602000 -441.216000 356.586000 1 1.000000 1 -3.000000
39 2 -347.365000 -437.675000 360.905000 1 1.000000 1 -3.000000
40 2 -339.538000 -435.016000 366.318000 1 1.000000 1 -3.000000
41 2 -332.397000 -432.417000 372.699000 1 1.000000 1 -3.000000
42 2 -326.800000 -429.073000 380.082000 1 1.000000 1 -3.000000
43 2 -320.434000 -424.038000 385.831000 1 1.000000 1 -3.000000
44 2 -315.425000 -418.932000 392.651000 1 1.000000 1 -3.000000
45 2 -308.160000 -414.740000 397.921000 1 1.000000 1 -3.000000
46 2 -300.541000 -409.694000 401.750000 1 1.000000 1 -3.000000
47 2 -291.879000 -406.614000 405.350000 1 1.000000 1 -3.000000
48 2 -283.273000 -403.014000 408.696000 1 1.000000 3 -3.000000
49 1 -256.122000 -438.897000 394.564000 1 1.000000 3 0.000000
50 3 -281.566000 -438.271000 370.574000 1 1.000000 3 0.000000
51 2 -245.240000 -474.989000 366.229000 1 1.000000 3 -3.000000
52 2 -250.331000 -472.611000 358.137000 1 1.000000 1 -3.000000
53 2 -255.141000 -470.140000 349.814000 1 1.000000 1 -3.000000
54 2 -260.057000 -466.632000 341.986000 1 1.000000 1 -3.000000
55 2 -265.987000 -462.071000 335.602000 1 1.000000 1 -3.000000
56 2 -271.918000 -455.882000 330.709000 1 1.000000 1 -3.000000
57 2 -277.909000 -448.898000 327.018000 1 1.000000 1 -3.000000
58 2 -283.634000 -441.964000 322.748000 1 1.000000 1 -3.000000
59 2 -288.350000 -434.939000 317.692000 1 1.000000 1 -3.000000
60 2 -292.943000 -427.393000 313.142000 1 1.000000 1 -3.000000
61 2 -297.465000 -421.024000 307.083000 1 1.000000 1 -3.000000
62 2 -302.004000 -414.307000 301.454000 1 1.000000 1 -3.000000
63 2 -306.169000 -407.796000 295.347000 1 1.000000 1 -3.000000
64 2 -310.128000 -401.933000 288.481000 1 1.000000 1 -3.000000
65 2 -314.870000 -397.521000 280.959000 1 1.000000 1 -3.000000
66 2 -319.894000 -393.216000 273.694000 1 1.000000 1 -3.000000
67 2 -325.985000 -388.520000 267.510000 1 1.000000 1 -3.000000
68 2 -333.416000 -384.733000 262.056000 1 1.000000 1 -3.000000
69 2 -339.773000 -379.951000 256.167000 1 1.000000 1 -3.000000
70 2 -345.480000 -373.498000 251.322000 1 1.000000 1 -3.000000
71 2 -351.928000 -366.804000 248.015000 1 1.000000 1 -3.000000
72 2 -360.372000 -361.747000 247.683000 1 1.000000 1 -3.000000
73 2 -368.447000 -356.049000 246.513000 1 1.000000 1 -3.000000
74 2 -376.089000 -350.229000 248.838000 1 1.000000 1 -3.000000
75 2 -384.588000 -345.162000 249.453000 1 1.000000 4 -3.000000
76 1 -399.618000 -358.390000 292.187000 1 1.000000 4 0.000000
77 3 -367.445000 -372.136000 290.321000 1 1.000000 4 0.000000
78 2 -394.270000 -379.043000 334.286000 1 1.000000 4 -3.000000
79 2 -384.409000 -378.450000 333.975000 1 1.000000 1 -3.000000
80 2 -374.565000 -378.895000 333.629000 1 1.000000 1 -3.000000
81 2 -364.683000 -378.635000 333.762000 1 1.000000 1 -3.000000
82 2 -354.756000 -378.788000 333.183000 1 1.000000 1 -3.000000
83 2 -345.242000 -376.109000 332.419000 1 1.000000 1 -3.000000
84 2 -335.881000 -373.072000 332.177000 1 1.000000 1 -3.000000
85 2 -326.251000 -371.190000 331.123000 1 1.000000 1 -3.000000
86 2 -316.662000 -368.918000 329.872000 1 1.000000 1 -3.000000
87 2 -307.210000 -365.917000 330.045000 1 1.000000 1 -3.000000
88 2 -298.422000 -361.908000 328.084000 1 1.000000 1 -3.000000
89 2 -289.888000 -357.489000 325.975000 1 1.000000 1 -3.000000
90 2 -280.665000 -353.998000 325.986000 1 1.000000 1 -3.000000
91 2 -271.126000 -352.818000 323.739000 1 1.000000 1 -3.000000
92 2 -261.796000 -350.616000 321.316000 1 1.000000 1 -3.000000
93 2 -254.040000 -346.664000 316.670000 1 1.000000 1 -3.000000
94 2 -245.112000 -343.885000 313.330000 1 1.000000 1 -3.000000
95 2 -235.160000 -343.184000 313.213000 1 1.000000 1 -3.000000
96 2 -225.357000 -342.578000 313.769000 1 1.000000 1 -3.000000
97 2 -215.730000 -343.098000 315.937000 1 1.000000 1 -3.000000
98 2 -206.840000 -342.260000 320.251000 1 1.000000 1 -3.000000
99 2 -197.381000 -339.765000 321.408000 1 1.000000 1 -3.000000
100 2 -188.132000 -336.353000 321.823000 1 1.000000 1 -3.000000
101 2 -178.808000 -333.352000 320.838000 1 1.000000 1 -3.000000
102 2 -169.730000 -331.617000 317.347000 1 1.000000 5 -3.000000
103 1 -176.376000 -293.133000 290.793000 1 1.000000 5 0.000000
104 3 -208.847000 -302.214000 300.158000 1 1.000000 5 0.000000
105 2 -203.215000 -261.317000 268.650000 1 1.000000 5 -3.000000
106 2 -210.505000 -261.247000 275.317000 1 1.000000 1 -3.000000
107 2 -217.567000 -260.310000 282.122000 1 1.000000 1 -3.000000
108 2 -223.792000 -261.774000 289.679000 1 1.000000 1 -3.000000
109 2 -229.785000 -262.579000 297.549000 1 1.000000 1 -3.000000
110 2 -235.912000 -260.755000 305.132000 1 1.000000 1 -3.000000
111 2 -241.573000 -260.732000 313.224000 1 1.000000 1 -3.000000
112 2 -247.547000 -263.401000 320.657000 1 1.000000 1 -3.000000
113 2 -255.557000 -266.553000 325.521000 1 1.000000 1 -3.000000
114 2 -263.920000 -266.911000 330.854000 1 1.000000 1 -3.000000
115 2 -269.503000 -267.423000 338.980000 1 1.000000 1 -3.000000
116 2 -276.026000 -269.882000 346.050000 1 1.000000 1 -3.000000
117 2 -283.079000 -272.853000 352.222000 1 1.000000 1 -3.000000
118 2 -291.387000 -275.774000 356.862000 1 1.000000 1 -3.000000
119 2 -298.781000 -276.991000 363.438000 1 1.000000 1 -3.000000
120 2 -306.205000 -277.062000 370.040000 1 1.000000 1 -3.000000
121 2 -313.650000 -278.935000 376.279000 1 1.000000 1 -3.000000
122 2 -322.123000 -276.733000 380.863000 1 1.000000 1 -3.000000
123 2 -330.966000 -275.101000 384.922000 1 1.000000 1 -3.000000
124 2 -339.840000 -272.380000 388.379000 1 1.000000 1 -3.000000
125 2 -348.608000 -269.570000 392.082000 1 1.000000 1 -3.000000
126 2 -356.002000 -263.456000 394.714000 1 1.000000 1 -3.000000
127 2 -362.903000 -257.080000 397.775000 1 1.000000 1 -3.000000
128 2 -369.501000 -251.927000 402.987000 1 1.000000 1 -3.000000
129 2 -374.850000 -246.622000 409.464000 1 1.000000 6 -3.000000
130 1 -344.329000 -212.555000 421.094000 1 1.000000 6 0.000000
131 3 -327.394000 -230.362000 396.152000 1 1.000000 6 0.000000
132 2 -304.925000 -187.366000 414.719000 1 1.000000 6 -3.000000
133 2 -304.019000 -192.611000 406.331000 1 1.000000 1 -3.000000
134 2 -301.742000 -197.196000 397.952000 1 1.000000 1 -3.000000
135 2 -297.397000 -200.045000 389.468000 1 1.000000 1 -3.000000
136 2 -295.709000 -204.874000 381.036000 1 1.000000 1 -3.000000
137 2 -295.454000 -210.647000 372.989000 1 1.000000 1 -3.000000
138 2 -297.084000 -216.652000 365.271000 1 1.000000 1 -3.000000
139 2 -299.438000 -223.073000 358.180000 1 1.000000 1 -3.000000
140 2 -301.769000 -230.760000 352.591000 1 1.000000 1 -3.000000
141 2 -303.428000 -237.472000 345.500000 1 1.000000 1 -3.000000
142 2 -304.222000 -241.363000 336.511000 1 1.000000 1 -3.000000
143 2 -304.761000 -243.436000 326.840000 1 1.000000 1 -3.000000
144 2 -302.791000 -246.030000 317.444000 1 1.000000 1 -3.000000
145 2 -298.713000 -247.503000 308.507000 1 1.000000 1 -3.000000
146 2 -294.114000 -246.550000 299.784000 1 1.000000 1 -3.000000
147 2 -290.116000 -245.586000 290.858000 1 1.000000 1 -3.000000
148 2 -285.997000 -246.816000 281.905000 1 1.000000 1 -3.000000
149 2 -282.913000 -244.750000 272.656000 1 1.000000 1 -3.000000
150 2 -280.109000 -243.869000 263.193000 1 1.000000 1 -3.000000
151 2 -276.662000 -244.711000 253.923000 1 1.000000 1 -3.000000
152 2 -273.764000 -248.678000 245.306000 1 1.000000 1 -3.000000
153 2 -270.617000 -254.181000 237.624000 1 1.000000 1 -3.000000
154 2 -267.868000 -260.072000 230.117000 1 1.000000 1 -3.000000
155 2 -265.958000 -266.857000 223.123000 1 1.000000 1 -3.000000
156 2 -264.627000 -271.828000 214.687000 1 1.000000 7 -3.000000
157 1 -257.311000 -309.800000 241.724000 1 1.000000 7 0.000000
158 3 -278.167000 -289.823000 261.566000 1 1.000000 7 0.000000
159 2 -262.679000 -335.381000 280.963000 1 1.000000 7 -3.000000
160 2 -271.112000 -331.435000 284.597000 1 1.000000 1 -3.000000
161 2 -279.717000 -326.807000 285.972000 1 1.000000 1 -3.000000
162 2 -287.592000 -321.507000 288.684000 1 1.000000 1 -3.000000
163 2 -295.617000 -316.353000 291.237000 1 1.000000 1 -3.000000
164 2 -304.111000 -311.232000 290.845000 1 1.000000 1 -3.000000
165 2 -313.257000 -307.438000 290.333000 1 1.000000 1 -3.000000
166 2 -322.071000 -303.054000 288.964000 1 1.000000 1 -3.000000
167 2 -331.281000 -299.388000 288.929000 1 1.000000 1 -3.000000
168 2 -339.823000 -295.933000 292.650000 1 1.000000 1 -3.000000
169 2 -347.520000 -293.960000 298.541000 1 1.000000 1 -3.000000
170 2 -354.919000 -289.874000 303.738000 1 1.000000 1 -3.000000
171 2 -361.568000 -286.065000 310.101000 1 1.000000 1 -3.000000
172 2 -369.124000 -283.351000 315.881000 1 1.000000 1 -3.000000
173 2 -376.835000 -280.431000 321.448000 1 1.000000 1 -3.000000
174 2 -383.129000 -275.992000 327.620000 1 1.000000 1 -3.000000
175 2 -390.088000 -273.587000 334.297000 1 1.000000 1 -3.000000
176 2 -396.929000 -271.435000 341.041000 1 1.000000 1 -3.000000
177 2 -402.761000 -266.304000 347.251000 1 1.000000 1 -3.000000
178 2 -407.961000 -260.856000 353.766000 1 1.000000 1 -3.000000
179 2 -410.704000 -253.928000 360.341000 1 1.000000 1 -3.000000
180 2 -414.548000 -245.800000 364.325000 1 1.000000 1 -3.000000
181 2 -417.822000 -236.590000 365.963000 1 1.000000 1 -3.000000
182 2 -420.217000 -227.061000 367.371000 1 1.000000 1 -3.000000
183 2 -422.435000 -217.414000 367.104000 1 1.000000 8 -3.000000
184 1 -392.487000 -197.178000 336.838000 1 1.000000 8 0.000000
185 3 -394.310000 -230.113000 325.402000 1 1.000000 8 0.000000
186 2 -364.263000 -196.992000 299.031000 1 1.000000 8 -3.000000
187 2 -368.953000 -204.355000 294.360000 1 1.000000 1 -3.000000
188 2 -373.106000 -212.592000 290.772000 1 1.000000 1 -3.000000
189 2 -378.063000 -220.204000 286.986000 1 1.000000 1 -3.000000
190 2 -383.149000 -226.729000 281.640000 1 1.000000 1 -3.000000
191 2 -388.571000 -234.552000 278.672000 1 1.000000 1 -3.000000
192 2 -393.061000 -242.707000 275.293000 1 1.000000 1 -3.000000
193 2 -398.410000 -250.058000 271.374000 1 1.000000 1 -3.000000
194 2 -404.458000 -256.207000 266.306000 1 1.000000 1 -3.000000
195 2 -411.995000 -260.942000 261.985000 1 1.000000 1 -3.000000
196 2 -419.578000 -266.878000 259.687000 1 1.000000 1 -3.000000
197 2 -425.625000 -274.688000 258.451000 1 1.000000 1 -3.000000
198 2 -431.924000 -282.271000 257.955000 1 1.000000 1 -3.000000
199 2 -439.015000 -288.924000 259.685000 1 1.000000 1 -3.000000
200 2 -446.942000 -294.839000 260.466000 1 1.000000 1 -3.000000
201 2 -454.361000 -300.811000 263.436000 1 1.000000 1 -3.000000
202 2 -461.156000 -307.889000 264.739000 1 1.000000 1 -3.000000
203 2 -467.213000 -315.682000 265.732000 1 1.000000 1 -3.000000
204 2 -472.159000 -323.951000 267.643000 1 1.000000 1 -3.000000
205 2 -476.860000 -332.367000 269.514000 1 1.000000 1 -3.000000
206 2 -481.585000 -341.072000 269.908000 1 1.000000 1 -3.000000
207 2 -487.731000 -348.774000 269.248000 1 1.000000 1 -3.000000
208 2 -494.806000 -355.192000 266.784000 1 1.000000 1 -3.000000
209 2 -502.716000 -361.145000 267.357000 1 1.000000 1 -3.000000
210 2 -510.701000 -366.007000 270.507000 1 1.000000 9 -3.000000
211 1 -545.614000 -334.395000 267.506000 1 1.000000 9 0.000000
212 3 -516.929000 -315.154000 262.300000 1 1.000000 9 0.000000
213 2 -562.825000 -290.944000 261.266000 1 1.000000 9 -3.000000
214 2 -555.539000 -287.281000 255.696000 1 1.000000 1 -3.000000
215 2 -547.614000 -282.508000 252.274000 1 1.000000 1 -3.000000
216 2 -539.144000 -277.993000 249.775000 1 1.000000 1 -3.000000
217 2 -530.071000 -274.746000 247.554000 1 1.000000 1 -3.000000
218 2 -520.337000 -273.191000 246.303000 1 1.000000 1 -3.000000
219 2 -510.732000 -274.848000 244.702000 1 1.000000 1 -3.000000
220 2 -502.028000 -274.956000 240.120000 1 1.000000 1 -3.000000
221 2 -493.303000 -274.458000 235.434000 1 1.000000 1 -3.000000
222 2 -483.986000 -274.796000 232.334000 1 1.000000 1 -3.000000
223 2 -474.238000 -275.471000 230.767000 1 1.000000 1 -3.000000
224 2 -465.350000 -272.990000 227.507000 1 1.000000 1 -3.000000
225 2 -456.087000 -269.702000 226.031000 1 1.000000 1 -3.000000
226 2 -446.845000 -266.968000 223.865000 1 1.000000 1 -3.000000
227 2 -438.570000 -262.701000 220.577000 1 1.000000 1 -3.000000
228 2 -432.653000 -257.011000 215.074000 1 1.000000 1 -3.000000
229 2 -426.184000 -251.318000 210.199000 1 1.000000 1 -3.000000
230 2 -419.328000 -245.071000 206.639000 1 1.000000 1 -3.000000
231 2 -410.725000 -240.221000 206.002000 1 1.000000 1 -3.000000
232 2 -402.670000 -234.359000 205.458000 1 1.000000 1 -3.000000
233 2 -393.776000 -230.319000 204.438000 1 1.000000 1 -3.000000
234 2 -384.399000 -227.360000 204.056000 1 1.000000 1 -3.000000
235 2 -374.601000 -226.625000 202.929000 1 1.000000 1 -3.000000
236 2 -365.139000 -224.014000 202.873000 1 1.000000 1 -3.000000
237 2 -355.831000 -221.253000 204.462000 1 1.000000 10 -3.000000
238 1 -345.303000 -259.874000 229.538000 1 1.000000 10 0.000000
239 3 -375.051000 -268.609000 213.292000 1 1.000000 10 0.000000
240 2 -353.849000 -303.503000 245.327000 1 1.000000 10 -3.000000
241 2 -359.228000 -307.466000 237.956000 1 1.000000 1 -3.000000
242 2 -365.071000 -309.904000 230.272000 1 1.000000 1 -3.000000
243 2 -372.051000 -310.683000 223.333000 1 1.000000 1 -3.000000
244 2 -380.798000 -311.178000 218.588000 1 1.000000 1 -3.000000
245 2 -388.015000 -311.127000 211.762000 1 1.000000 1 -3.000000
246 2 -395.320000 -312.127000 205.163000 1 1.000000 1 -3.000000
247 2 -402.488000 -312.635000 198.360000 1 1.000000 1 -3.000000
248 2 -408.635000 -314.535000 190.834000 1 1.000000 1 -3.000000
249 2 -412.207000 -318.043000 182.294000 1 1.000000 1 -3.000000
250 2 -416.234000 -320.803000 173.697000 1 1.000000 1 -3.000000
251 2 -420.248000 -321.519000 164.775000 1 1.000000 1 -3.000000
252 2 -425.028000 -323.454000 156.260000 1 1.000000 1 -3.000000
253 2 -430.976000 -324.190000 148.364000 1 1.000000 1 -3.000000
254 2 -435.410000 -324.075000 139.499000 1 1.000000 1 -3.000000
255 2 -438.449000 -324.184000 130.079000 1 1.000000 1 -3.000000
256 2 -440.395000 -326.571000 120.719000 1 1.000000 1 -3.000000
257 2 -442.135000 -326.953000 110.987000 1 1.000000 1 -3.000000
258 2 -444.107000 -327.757000 101.314000 1 1.000000 1 -3.000000
259 2 -448.822000 -326.619000 92.693600 1 1.000000 1 -3.000000
260 2 -455.239000 -324.583000 85.394200 1 1.000000 1 -3.000000
261 2 -461.162000 -320.921000 78.456500 1 1.000000 1 -3.000000
262 2 -467.506000 -317.650000 71.572600 1 1.000000 1 -3.000000
263 2 -474.294000 -312.906000 66.048700 1 1.000000 1 -3.000000
264 2 -481.083000 -307.215000 61.798600 1 1.000000 11 -3.000000
265 1 -510.701000 -295.617000 96.671400 1 1.000000 11 0.000000
266 3 -480.644000 -301.762000 113.379000 1 1.000000 11 0.000000
267 2 -520.713000 -284.103000 141.369000 1 1.000000 11 -3.000000
268 2 -512.389000 -285.951000 146.353000 1 1.000000 1 -3.000000
269 2 -504.195000 -285.881000 151.796000 1 1.000000 1 -3.000000
270 2 -494.401000 -285.709000 153.052000 1 1.000000 1 -3.000000
271 2 -484.719000 -284.923000 154.765000 1 1.000000 1 -3.000000
272 2 -474.901000 -285.423000 154.647000 1 1.000000 1 -3.000000
273 2 -465.304000 -284.389000 152.105000 1 1.000000 1 -3.000000
274 2 -456.181000 -284.929000 148.282000 1 1.000000 1 -3.000000
275 2 -447.196000 -282.183000 145.332000 1 1.000000 1 -3.000000
276 2 -438.594000 -278.669000 141.864000 1 1.000000 1 -3.000000
277 2 -429.846000 -276.485000 137.778000 1 1.000000 1 -3.000000
278 2 -420.988000 -274.126000 134.016000 1 1.000000 1 -3.000000
279 2 -412.403000 -270.153000 130.975000 1 1.000000 1 -3.000000
280 2 -403.234000 -266.812000 129.407000 1 1.000000 1 -3.000000
281 2 -393.807000 -263.701000 129.657000 1 1.000000 1 -3.000000
282 2 -385.051000 -258.965000 130.024000 1 1.000000 1 -3.000000
283 2 -375.814000 -255.641000 128.083000 1 1.000000 1 -3.000000
284 2 -367.458000 -250.562000 126.935000 1 1.000000 1 -3.000000
285 2 -357.854000 -248.254000 125.736000 1 1.000000 1 -3.000000
286 2 -348.040000 -246.949000 124.677000 1 1.000000 1 -3.000000
287 2 -338.165000 -246.656000 123.888000 1 1.000000 1 -3.000000
288 2 -328.455000 -248.593000 123.234000 1 1.000000 1 -3.000000
289 2 -319.309000 -251.885000 121.493000 1 1.000000 1 -3.000000
290 2 -310.470000 -255.829000 119.229000 1 1.000000 1 -3.000000
291 2 -301.089000 -258.129000 116.817000 1 1.000000 12 -3.000000
292 1 -314.641000 -301.099000 102.812000 1 1.000000 12 0.000000
293 3 -343.171000 -281.583000 97.449400 1 1.000000 12 0.000000
294 2 -345.318000 -331.693000 84.137300 1 1.000000 12 -3.000000
295 2 -351.043000 -325.441000 78.838100 1 1.000000 1 -3.000000
296 2 -357.174000 -319.219000 74.152200 1 1.000000 1 -3.000000
297 2 -363.007000 -311.827000 71.305100 1 1.000000 1 -3.000000
298 2 -368.501000 -304.182000 68.400800 1 1.000000 1 -3.000000
299 2 -372.378000 -295.574000 65.308800 1 1.000000 1 -3.000000
300 2 -377.509000 -287.529000 62.421400 1 1.000000 1 -3.000000
301 2 -382.334000 -279.210000 60.180800 1 1.000000 1 -3.000000
302 2 -387.769000 -271.168000 58.351800 1 1.000000 1 -3.000000
303 2 -394.154000 -263.642000 57.364600 1 1.000000 1 -3.000000
304 2 -399.485000 -255.343000 56.065400 1 1.000000 1 -3.000000
305 2 -405.180000 -247.808000 52.998100 1 1.000000 1 -3.000000
306 2 -410.573000 -239.512000 52.444500 1 1.000000 1 -3.000000
307 2 -414.672000 -230.632000 51.146500 1 1.000000 1 -3.000000
308 2 -420.031000 -222.683000 48.612900 1 1.000000 1 -3.000000
309 2 -424.321000 -214.663000 44.569100 1 1.000000 1 -3.000000
310 2 -429.077000 -206.281000 42.123900 1 1.000000 1 -3.000000
311 2 -435.221000 -198.582000 41.206900 1 1.000000 1 -3.000000
312 2 -440.255000 -190.070000 39.747600 1 1.000000 1 -3.000000
313 2 -444.822000 -181.506000 37.659900 1 1.000000 1 -3.000000
314 2 -449.371000 -172.916000 35.837600 1 1.000000 1 -3.000000
315 2 -454.635000 -164.923000 33.718900 1 1.000000 1 -3.000000
316 2 -461.903000 -158.287000 34.088500 1 1.000000 1 -3.000000
317 2 -469.823000 -152.396000 32.932700 1 1.000000 1 -3.000000
318 2 -478.665000 -148.805000 30.439500 1 1.000000 13 -3.000000
319 1 -507.758000 -174.889000 56.898100 1 1.000000 13 0.000000
320 3 -476.107000 -183.816000 68.698800 1 1.000000 13 0.000000
321 2 -517.105000 -207.809000 89.310600 1 1.000000 13 -3.000000
322 2 -509.182000 -206.448000 94.949100 1 1.000000 1 -3.000000
323 2 -501.272000 -204.771000 100.675000 1 1.000000 1 -3.000000
324 2 -492.330000 -203.715000 104.797000 1 1.000000 1 -3.000000
325 2 -483.644000 -200.264000 108.062000 1 1.000000 1 -3.000000
326 2 -473.852000 -199.409000 109.461000 1 1.000000 1 -3.000000
327 2 -464.636000 -196.397000 110.980000 1 1.000000 1 -3.000000
328 2 -456.175000 -191.356000 111.936000 1 1.000000 1 -3.000000
329 2 -448.512000 -185.092000 111.554000 1 1.000000 1 -3.000000
330 2 -440.586000 -179.600000 109.227000 1 1.000000 1 -3.000000
331 2 -432.758000 -173.533000 109.254000 1 1.000000 1 -3.000000
332 2 -425.194000 -167.120000 109.964000 1 1.000000 1 -3.000000
333 2 -419.421000 -159.209000 109.362000 1 1.000000 1 -3.000000
334 2 -412.349000 -152.461000 110.570000 1 1.000000 1 -3.000000
335 2 -405.522000 -145.673000 113.120000 1 1.000000 1 -3.000000
336 2 -399.322000 -139.656000 117.933000 1 1.000000 1 -3.000000
337 2 -393.942000 -132.831000 122.693000 1 1.000000 1 -3.000000
338 2 -387.799000 -127.498000 128.334000 1 1.000000 1 -3.000000
339 2 -381.983000 -122.697000 134.755000 1 1.000000 1 -3.000000
340 2 -377.651000 -119.065000 142.910000 1 1.000000 1 -3.000000
341 2 -374.205000 -117.064000 151.970000 1 1.000000 1 -3.000000
342 2 -372.060000 -117.700000 161.547000 1 1.000000 1 -3.000000
343 2 -368.980000 -121.406000 170.221000 1 1.000000 1 -3.000000
344 2 -365.056000 -123.837000 178.988000 1 1.000000 1 -3.000000
345 2 -359.384000 -124.454000 187.108000 1 1.000000 14 -3.000000
346 1 -374.292000 -168.935000 192.276000 1 1.000000 14 0.000000
347 3 -379.182000 -162.675000 158.208000 1 1.000000 14 0.000000
348 2 -391.646000 -209.770000 176.314000 1 1.000000 14 -3.000000
349 2 -390.579000 -209.896000 166.466000 1 1.000000 1 -3.000000
350 2 -388.170000 -209.550000 156.897000 1 1.000000 1 -3.000000
351 2 -384.437000 -208.180000 147.806000 1 1.000000 1 -3.000000
352 2 -380.467000 -205.708000 139.135000 1 1.000000 1 -3.000000
353 2 -376.693000 -199.938000 131.902000 1 1.000000 1 -3.000000
354 2 -375.381000 -193.209000 124.718000 1 1.000000 1 -3.000000
355 2 -374.060000 -184.827000 119.618000 1 1.000000 1 -3.000000
356 2 -372.534000 -176.407000 114.489000 1 1.000000 1 -3.000000
357 2 -370.492000 -168.418000 109.177000 1 1.000000 1 -3.000000
358 2 -368.848000 -159.400000 105.327000 1 1.000000 1 -3.000000
359 2 -369.543000 -150.094000 102.077000 1 1.000000 1 -3.000000
360 2 -370.059000 -140.530000 99.748700 1 1.000000 1 -3.000000
361 2 -369.833000 -131.458000 95.826200 1 1.000000 1 -3.000000
362 2 -369.039000 -122.040000 92.966600 1 1.000000 1 -3.000000
363 2 -368.420000 -112.455000 90.405400 1 1.000000 1 -3.000000
364 2 -367.961000 -102.603000 88.839200 1 1.000000 1 -3.000000
365 2 -367.857000 -92.968800 86.546400 1 1.000000 1 -3.000000
366 2 -366.760000 -83.408100 84.300700 1 1.000000 1 -3.000000
367 2 -367.269000 -73.620100 82.923600 1 1.000000 1 -3.000000
368 2 -366.233000 -63.852400 81.375800 1 1.000000 1 -3.000000
369 2 -363.277000 -54.540200 81.595000 1 1.000000 1 -3.000000
370 2 -359.144000 -46.016000 84.486100 1 1.000000 1 -3.000000
371 2 -353.941000 -38.441100 88.237900 1 1.000000 1 -3.000000
372 2 -353.272000 -29.139900 91.355600 1 1.000000 15 -3.000000
373 1 -318.247000 -45.183300 118.531000 1 1.000000 15 0.000000
374 3 -326.051000 -72.835500 98.611300 1 1.000000 15 0.000000
375 2 -286.027000 -77.320300 131.349000 1 1.000000 15 -3.000000
376 2 -289.341000 -83.597800 124.356000 1 1.000000 1 -3.000000
377 2 -289.672000 -90.867400 117.664000 1 1.000000 1 -3.000000
378 2 -292.050000 -97.959800 111.279000 1 1.000000 1 -3.000000
379 2 -294.785000 -104.256000 104.122000 1 1.000000 1 -3.000000
380 2 -297.408000 -106.576000 94.771200 1 1.000000 1 -3.000000
381 2 -300.783000 -107.100000 85.463700 1 1.000000 1 -3.000000
382 2 -303.888000 -107.376000 76.063200 1 1.000000 1 -3.000000
383 2 -306.355000 -108.583000 66.534600 1 1.000000 1 -3.000000
384 2 -308.567000 -108.998000 56.877300 1 1.000000 1 -3.000000
385 2 -311.870000 -108.475000 47.524000 1 1.000000 1 -3.000000
386 2 -316.439000 -108.095000 38.759300 1 1.000000 1 -3.000000
387 2 -318.394000 -104.344000 29.864800 1 1.000000 1 -3.000000
388 2 -318.470000 -101.288000 20.523700 1 1.000000 1 -3.000000
389 2 -319.173000 -95.929900 12.265700 1 1.000000 1 -3.000000
390 2 -319.636000 -91.909300 3.193100 1 1.000000 1 -3.000000
391 2 -322.175000 -88.227200 -5.619970 1 1.000000 1 -3.000000
392 2 -325.380000 -84.951400 -14.370000 1 1.000000 1 -3.000000
393 2 -331.196000 -82.178800 -21.837000 1 1.000000 1 -3.000000
394 2 -338.260000 -78.196100 -27.520000 1 1.000000 1 -3.000000
395 2 -342.836000 -71.649900 -33.360200 1 1.000000 1 -3.000000
396 2 -346.722000 -63.144100 -36.527500 1 1.000000 1 -3.000000
397 2 -350.463000 -54.362600 -39.323200 1 1.000000 1 -3.000000
398 2 -353.673000 -44.980700 -40.236600 1 1.000000 1 -3.000000
399 2 -358.092000 -36.681400 -43.437800 1 1.000000 16 -3.000000
400 1 -332.562000 -10.861100 -13.292500 1 1.000000 16 0.000000
401 3 -314.403000 -40.792700 -15.544600 1 1.000000 16 0.000000
402 2 -294.135000 -2.205300 12.706600 1 1.000000 16 -3.000000
403 2 -288.505000 -9.191530 8.578470 1 1.000000 1 -3.000000
404 2 -281.528000 -15.117000 4.781430 1 1.000000 1 -3.000000
405 2 -277.786000 -23.140200 0.451026 1 1.000000 1 -3.000000
406 2 -273.793000 -30.425000 -4.883590 1 1.000000 1 -3.000000
407 2 -270.198000 -38.576000 -9.221330 1 1.000000 1 -3.000000
408 2 -266.505000 -46.044700 -14.494100 1 1.000000 1 -3.000000
409 2 -265.444000 -51.453500 -22.600700 1 1.000000 1 -3.000000
410 2 -264.501000 -56.359500 -31.152500 1 1.000000 1 -3.000000
411 2 -266.312000 -60.912900 -39.776200 1 1.000000 1 -3.000000
412 2 -266.895000 -65.313600 -48.693000 1 1.000000 1 -3.000000
413 2 -263.366000 -71.912600 -55.156300 1 1.000000 1 -3.000000
414 2 -257.627000 -76.759000 -61.550700 1 1.000000 1 -3.000000
415 2 -253.327000 -83.185800 -67.784400 1 1.000000 1 -3.000000
416 2 -247.624000 -88.946100 -73.534300 1 1.000000 1 -3.000000
417 2 -242.100000 -94.070800 -80.027700 1 1.000000 1 -3.000000
418 2 -236.857000 -98.084400 -87.482300 1 1.000000 1 -3.000000
419 2 -231.110000 -102.614000 -94.104400 1 1.000000 1 -3.000000
420 2 -225.249000 -107.023000 -100.800000 1 1.000000 1 -3.000000
421 2 -221.082000 -111.143000 -108.742000 1 1.000000 1 -3.000000
422 2 -218.384000 -115.109000 -117.452000 1 1.000000 1 -3.000000
423 2 -218.740000 -120.152000 -126.036000 1 1.000000 1 -3.000000
424 2 -221.023000 -124.980000 -134.295000 1 1.000000 1 -3.000000
425 2 -223.602000 -130.279000 -142.246000 1 1.000000 1 -3.000000
426 2 -226.174000 -135.465000 -150.145000 1 1.000000 17 -3.000000
427 1 -268.624000 -116.781000 -158.784000 1 1.000000 17 0.000000
428 3 -254.892000 -95.021400 -135.083000 1 1.000000 17 0.000000
429 2 -301.573000 -83.208300 -154.588000 1 1.000000 17 -3.000000
430 2 -297.247000 -78.152300 -147.242000 1 1.000000 1 -3.000000
431 2 -294.422000 -70.745600 -141.251000 1 1.000000 1 -3.000000
432 2 -290.012000 -65.367100 -134.154000 1 1.000000 1 -3.000000
433 2 -282.994000 -60.175300 -129.486000 1 1.000000 1 -3.000000
434 2 -274.262000 -56.460300 -126.651000 1 1.000000 1 -3.000000
435 2 -265.286000 -52.791300 -124.776000 1 1.000000 1 -3.000000
436 2 -255.624000 -50.692700 -124.787000 1 1.000000 1 -3.000000
437 2 -245.728000 -50.666700 -124.427000 1 1.000000 1 -3.000000
438 2 -235.841000 -50.662900 -123.925000 1 1.000000 1 -3.000000
439 2 -226.112000 -52.414500 -124.699000 1 1.000000 1 -3.000000
440 2 -216.916000 -55.913900 -125.159000 1 1.000000 1 -3.000000
441 2 -208.429000 -60.386000 -127.718000 1 1.000000 1 -3.000000
442 2 -199.588000 -63.731900 -130.514000 1 1.000000 1 -3.000000
443 2 -189.997000 -65.686700 -131.850000 1 1.000000 1 -3.000000
444 2 -180.765000 -68.562700 -133.891000 1 1.000000 1 -3.000000
445 2 -171.775000 -70.750500 -137.282000 1 1.000000 1 -3.000000
446 2 -162.657000 -74.082100 -139.084000 1 1.000000 1 -3.000000
447 2 -153.029000 -76.311300 -139.938000 1 1.000000 1 -3.000000
448 2 -144.067000 -79.669000 -142.368000 1 1.000000 1 -3.000000
449 2 -134.769000 -81.220500 -145.493000 1 1.000000 1 -3.000000
450 2 -125.568000 -79.115900 -148.493000 1 1.000000 1 -3.000000
451 2 -116.642000 -77.102200 -152.440000 1 1.000000 1 -3.000000
452 2 -107.036000 -75.596800 -154.447000 1 1.000000 1 -3.000000
453 2 -98.264800 -72.331200 -157.614000 1 1.000000 18 -3.000000
454 1 -100.601000 -25.382500 -153.377000 1 1.000000 18 0.000000
455 3 -131.818000 -36.046700 -141.862000 1 1.000000 18 0.000000
456 2 -123.030000 15.069000 -144.041000 1 1.000000 18 -3.000000
457 2 -129.661000 12.309800 -137.256000 1 1.000000 1 -3.000000
458 2 -136.468000 8.891820 -130.964000 1 1.000000 1 -3.000000
459 2 -143.394000 5.167430 -124.955000 1 1.000000 1 -3.000000
460 2 -149.443000 -0.311598 -119.383000 1 1.000000 1 -3.000000
461 2 -155.032000 -7.562430 -115.850000 1 1.000000 1 -3.000000
462 2 -159.925000 -15.769900 -112.981000 1 1.000000 1 -3.000000
463 2 -162.698000 -22.591200 -106.384000 1 1.000000 1 -3.000000
464 2 -164.417000 -31.809200 -103.025000 1 1.000000 1 -3.000000
465 2 -168.325000 -40.542800 -100.484000 1 1.000000 1 -3.000000
466 2 -172.756000 -48.570200 -96.649500 1 1.000000 1 -3.000000
467 2 -176.803000 -56.264600 -91.925700 1 1.000000 1 -3.000000