LAMMPS data file

4067 atoms
4067 ellipsoids
4516 bonds
8882 angles
0 dihedrals

3 atom types
5 bond types
12 angle types
0 dihedral types

-4631.092947 4670.465898 xlo xhi
-4631.092947 4670.465898 ylo yhi
-4631.092947 4670.465898 zlo zhi

Masses

1 196016.000000
2 1950.000000
3 19500.000000

Atoms

1 2 10.887600 -913.718000 -1.413520 1 1.000000 1 -3.000000
2 2 7.762230 -907.313000 5.319870 1 1.000000 1 -3.000000
3 2 3.470970 -901.818000 12.349300 1 1.000000 1 -3.000000
4 2 0.329170 -896.434000 20.151200 1 1.000000 1 -3.000000
5 2 -3.617530 -890.018000 26.497300 1 1.000000 1 -3.000000
6 2 -4.641430 -885.724000 35.347800 1 1.000000 1 -3.000000
7 2 -3.995580 -880.889000 44.052300 1 1.000000 1 -3.000000
8 2 -5.068770 -877.509000 53.281000 1 1.000000 1 -3.000000
9 2 -4.122560 -876.344000 62.990700 1 1.000000 1 -3.000000
10 2 -2.880870 -873.923000 72.460900 1 1.000000 1 -3.000000
11 2 -0.495408 -874.703000 82.011400 1 1.000000 1 -3.000000
12 2 2.236320 -875.050000 91.574100 1 1.000000 1 -3.000000
13 2 3.584210 -874.066000 101.349000 1 1.000000 1 -3.000000
14 2 3.853540 -872.217000 111.070000 1 1.000000 1 -3.000000
15 2 5.220240 -869.009000 120.376000 1 1.000000 1 -3.000000
16 2 8.718780 -865.570000 128.954000 1 1.000000 1 -3.000000
17 2 12.939700 -863.379000 137.683000 1 1.000000 1 -3.000000
18 2 17.723600 -865.117000 146.184000 1 1.000000 1 -3.000000
19 2 22.344200 -866.021000 154.904000 1 1.000000 1 -3.000000
20 2 26.706700 -870.226000 162.615000 1 1.000000 1 -3.000000
21 2 30.788400 -873.556000 170.942000 1 1.000000 2 -3.000000
22 1 46.852700 -915.008000 155.260000 1 1.000000 2 0.000000
23 3 38.436400 -897.977000 125.759000 1 1.000000 2 0.000000
24 2 59.477400 -945.361000 121.390000 1 1.000000 2 -3.000000
25 2 58.717300 -938.229000 114.457000 1 1.000000 1 -3.000000
26 2 60.177500 -932.076000 106.863000 1 1.000000 1 -3.000000
27 2 59.892300 -926.019000 99.043900 1 1.000000 1 -3.000000
28 2 58.013800 -918.753000 92.508700 1 1.000000 1 -3.000000
29 2 53.482900 -912.244000 86.698300 1 1.000000 1 -3.000000
30 2 46.981700 -905.858000 82.859700 1 1.000000 1 -3.000000
31 2 41.471600 -899.796000 77.360900 1 1.000000 1 -3.000000
32 2 38.675900 -891.813000 72.279300 1 1.000000 1 -3.000000
33 2 39.329500 -884.557000 65.567700 1 1.000000 1 -3.000000
34 2 39.609300 -876.786000 59.480200 1 1.000000 1 -3.000000
35 2 40.934800 -869.907000 52.487900 1 1.000000 1 -3.000000
36 2 42.597000 -862.559000 46.150500 1 1.000000 1 -3.000000
37 2 45.859800 -855.196000 40.483000 1 1.000000 1 -3.000000
38 2 48.749600 -849.576000 32.806200 1 1.000000 1 -3.000000
39 2 50.803900 -843.973000 24.821600 1 1.000000 1 -3.000000
40 2 52.241700 -839.177000 16.289500 1 1.000000 1 -3.000000
41 2 52.929200 -833.910000 7.952150 1 1.000000 1 -3.000000
42 2 55.272000 -828.725000 -0.153981 1 1.000000 1 -3.000000
43 2 56.992400 -824.114000 -8.694760 1 1.000000 1 -3.000000
44 2 58.055800 -817.911000 -16.333200 1 1.000000 1 -3.000000
45 2 60.366500 -812.325000 -24.197100 1 1.000000 1 -3.000000
46 2 60.769400 -806.995000 -32.425200 1 1.000000 1 -3.000000
47 2 59.731800 -802.312000 -41.103800 1 1.000000 1 -3.000000
48 2 59.602100 -798.512000 -50.269800 1 1.000000 3 -3.000000
49 1 13.856100 -805.343000 -59.716200 1 1.000000 3 0.000000
50 3 16.382700 -813.810000 -25.890200 1 1.000000 3 0.000000
51 2 -30.200200 -817.754000 -48.423800 1 1.000000 3 -3.000000
52 2 -28.211300 -818.582000 -38.818200 1 1.000000 1 -3.000000
53 2 -27.996900 -820.395000 -29.121800 1 1.000000 1 -3.000000
54 2 -25.732600 -823.367000 -19.919700 1 1.000000 1 -3.000000
55 2 -23.844000 -824.185000 -10.150600 1 1.000000 1 -3.000000
56 2 -19.017100 -823.512000 -1.544990 1 1.000000 1 -3.000000
57 2 -12.444700 -823.370000 5.795650 1 1.000000 1 -3.000000
58 2 -5.466830 -821.862000 12.559200 1 1.000000 1 -3.000000
59 2 0.581731 -821.228000 20.298900 1 1.000000 1 -3.000000
60 2 7.643600 -820.062000 27.054000 1 1.000000 1 -3.000000
61 2 12.505700 -819.020000 35.589800 1 1.000000 1 -3.000000
62 2 17.344200 -816.870000 43.990500 1 1.000000 1 -3.000000
63 2 22.958800 -816.247000 52.188200 1 1.000000 1 -3.000000
64 2 27.165800 -813.857000 60.859600 1 1.000000 1 -3.000000
65 2 31.199100 -809.128000 68.617500 1 1.000000 1 -3.000000
66 2 34.594200 -802.939000 75.699100 1 1.000000 1 -3.000000
67 2 38.852400 -797.575000 82.936200 1 1.000000 1 -3.000000
68 2 43.690200 -791.641000 89.208700 1 1.000000 1 -3.000000
69 2 48.631300 -788.200000 97.069000 1 1.000000 1 -3.000000
70 2 54.250800 -784.806000 104.491000 1 1.000000 1 -3.000000
71 2 60.896100 -782.776000 111.583000 1 1.000000 1 -3.000000
72 2 66.965600 -783.000000 119.339000 1 1.000000 1 -3.000000
73 2 68.759100 -785.073000 128.798000 1 1.000000 1 -3.000000
74 2 71.626400 -786.685000 138.199000 1 1.000000 1 -3.000000
75 2 75.643700 -787.788000 147.242000 1 1.000000 4 -3.000000
76 1 76.079900 -834.874000 144.913000 1 1.000000 4 0.000000
77 3 66.844400 -825.344000 112.603000 1 1.000000 4 0.000000
78 2 70.443700 -876.167000 122.779000 1 1.000000 4 -3.000000
79 2 70.039500 -873.048000 113.394000 1 1.000000 1 -3.000000
80 2 70.567300 -870.344000 103.896000 1 1.000000 1 -3.000000
81 2 71.225000 -866.311000 94.950500 1 1.000000 1 -3.000000
82 2 72.644400 -861.136000 86.492400 1 1.000000 1 -3.000000
83 2 76.365800 -853.946000 80.768700 1 1.000000 1 -3.000000
84 2 76.691400 -846.226000 74.464400 1 1.000000 1 -3.000000
85 2 74.758100 -837.951000 69.265400 1 1.000000 1 -3.000000
86 2 72.009800 -829.267000 65.401200 1 1.000000 1 -3.000000
87 2 70.364200 -819.948000 62.606200 1 1.000000 1 -3.000000
88 2 67.517100 -810.785000 60.145200 1 1.000000 1 -3.000000
89 2 65.878800 -801.077000 58.935700 1 1.000000 1 -3.000000
90 2 63.389900 -791.518000 57.510900 1 1.000000 1 -3.000000
91 2 60.283600 -782.437000 55.335900 1 1.000000 1 -3.000000
92 2 56.645000 -773.546000 52.882200 1 1.000000 1 -3.000000
93 2 51.947100 -765.529000 49.497700 1 1.000000 1 -3.000000
94 2 47.945700 -756.826000 46.973500 1 1.000000 1 -3.000000
95 2 42.666500 -749.763000 42.446800 1 1.000000 1 -3.000000
96 2 35.872600 -743.323000 39.426600 1 1.000000 1 -3.000000
97 2 28.711400 -737.121000 36.354100 1 1.000000 1 -3.000000
98 2 20.099200 -732.332000 36.380800 1 1.000000 1 -3.000000
99 2 11.696200 -727.361000 34.299600 1 1.000000 1 -3.000000
100 2 3.531460 -721.858000 33.532600 1 1.000000 1 -3.000000
101 2 -4.857610 -716.674000 33.662200 1 1.000000 1 -3.000000
102 2 -12.948900 -711.152000 32.874600 1 1.000000 5 -3.000000
103 1 -13.201200 -709.746000 80.011800 1 1.000000 5 0.000000
104 3 20.808300 -707.204000 72.173000 1 1.000000 5 0.000000
105 2 7.244280 -705.665000 122.263000 1 1.000000 5 -3.000000
106 2 15.718400 -700.838000 120.394000 1 1.000000 1 -3.000000
107 2 23.660100 -696.160000 116.974000 1 1.000000 1 -3.000000
108 2 31.829500 -691.630000 113.615000 1 1.000000 1 -3.000000
109 2 39.076400 -687.869000 108.076000 1 1.000000 1 -3.000000
110 2 46.253400 -685.842000 101.540000 1 1.000000 1 -3.000000
111 2 52.941400 -684.328000 94.426600 1 1.000000 1 -3.000000
112 2 59.779400 -685.121000 87.315400 1 1.000000 1 -3.000000
113 2 66.743700 -684.695000 80.310900 1 1.000000 1 -3.000000
114 2 73.766500 -683.934000 73.334800 1 1.000000 1 -3.000000
115 2 78.804500 -680.863000 65.457600 1 1.000000 1 -3.000000
116 2 82.411700 -675.753000 57.791200 1 1.000000 1 -3.000000
117 2 88.135400 -671.775000 50.800200 1 1.000000 1 -3.000000
118 2 93.167300 -665.634000 44.899700 1 1.000000 1 -3.000000
119 2 98.715100 -658.434000 41.084100 1 1.000000 1 -3.000000
120 2 103.551000 -651.720000 35.645800 1 1.000000 1 -3.000000
121 2 108.954000 -644.397000 31.672200 1 1.000000 1 -3.000000
122 2 113.053000 -636.476000 27.484900 1 1.000000 1 -3.000000
123 2 117.560000 -628.549000 23.484700 1 1.000000 1 -3.000000
124 2 124.570000 -621.811000 21.442600 1 1.000000 1 -3.000000
125 2 131.472000 -614.801000 20.462600 1 1.000000 1 -3.000000
126 2 136.497000 -606.448000 18.846100 1 1.000000 1 -3.000000
127 2 141.556000 -598.964000 14.875600 1 1.000000 1 -3.000000
128 2 144.163000 -591.237000 9.342590 1 1.000000 1 -3.000000
129 2 147.225000 -583.371000 4.179720 1 1.000000 6 -3.000000
130 1 110.026000 -569.749000 -21.482000 1 1.000000 6 0.000000
131 3 96.760500 -594.664000 -0.811278 1 1.000000 6 0.000000
132 2 65.459300 -573.637000 -36.439300 1 1.000000 6 -3.000000
133 2 62.641600 -580.120000 -29.501700 1 1.000000 1 -3.000000
134 2 59.175100 -584.548000 -21.362000 1 1.000000 1 -3.000000
135 2 55.602900 -587.427000 -12.525200 1 1.000000 1 -3.000000
136 2 52.598000 -589.608000 -3.347510 1 1.000000 1 -3.000000
137 2 50.525800 -588.520000 6.328280 1 1.000000 1 -3.000000
138 2 48.783200 -585.871000 15.730300 1 1.000000 1 -3.000000
139 2 46.219400 -585.331000 25.235200 1 1.000000 1 -3.000000
140 2 43.594200 -587.129000 34.587400 1 1.000000 1 -3.000000
141 2 40.838000 -588.502000 43.972300 1 1.000000 1 -3.000000
142 2 39.409600 -589.195000 53.724300 1 1.000000 1 -3.000000
143 2 40.428000 -590.144000 63.524600 1 1.000000 1 -3.000000
144 2 41.300400 -591.610000 73.272000 1 1.000000 1 -3.000000
145 2 40.838300 -595.494000 82.367800 1 1.000000 1 -3.000000
146 2 41.405200 -598.809000 91.695200 1 1.000000 1 -3.000000
147 2 43.732600 -601.746000 100.785000 1 1.000000 1 -3.000000
148 2 44.861700 -605.023000 110.144000 1 1.000000 1 -3.000000
149 2 47.871700 -606.957000 119.452000 1 1.000000 1 -3.000000
150 2 51.877500 -607.387000 128.544000 1 1.000000 1 -3.000000
151 2 55.902300 -605.246000 137.256000 1 1.000000 1 -3.000000
152 2 61.993100 -601.912000 144.209000 1 1.000000 1 -3.000000
153 2 67.954800 -597.968000 150.996000 1 1.000000 1 -3.000000
154 2 74.671500 -596.139000 158.045000 1 1.000000 1 -3.000000
155 2 81.987100 -596.911000 164.694000 1 1.000000 1 -3.000000
156 2 89.643600 -597.649000 171.019000 1 1.000000 7 -3.000000
157 1 118.316000 -630.753000 153.530000 1 1.000000 7 0.000000
158 3 93.722000 -627.480000 128.789000 1 1.000000 7 0.000000
159 2 132.044000 -661.673000 120.685000 1 1.000000 7 -3.000000
160 2 127.777000 -656.744000 113.243000 1 1.000000 1 -3.000000
161 2 124.099000 -651.726000 105.551000 1 1.000000 1 -3.000000
162 2 119.485000 -646.049000 98.942600 1 1.000000 1 -3.000000
163 2 114.092000 -641.116000 92.235700 1 1.000000 1 -3.000000
164 2 106.366000 -637.014000 87.512900 1 1.000000 1 -3.000000
165 2 99.194700 -631.323000 83.737100 1 1.000000 1 -3.000000
166 2 91.665500 -627.324000 78.806600 1 1.000000 1 -3.000000
167 2 83.611200 -625.517000 73.411800 1 1.000000 1 -3.000000
168 2 77.170700 -622.160000 66.585000 1 1.000000 1 -3.000000
169 2 70.113100 -620.938000 59.667800 1 1.000000 1 -3.000000
170 2 62.188500 -619.028000 54.096100 1 1.000000 1 -3.000000
171 2 53.629300 -618.021000 49.163900 1 1.000000 1 -3.000000
172 2 45.004900 -619.153000 44.487500 1 1.000000 1 -3.000000
173 2 37.288900 -621.105000 38.778900 1 1.000000 1 -3.000000
174 2 28.395400 -621.307000 34.502300 1 1.000000 1 -3.000000
175 2 20.832400 -617.757000 29.198600 1 1.000000 1 -3.000000
176 2 13.648400 -614.816000 23.120200 1 1.000000 1 -3.000000
177 2 8.576730 -612.206000 15.063700 1 1.000000 1 -3.000000
178 2 2.895070 -610.256000 7.174340 1 1.000000 1 -3.000000
179 2 -3.706050 -610.598000 -0.152922 1 1.000000 1 -3.000000
180 2 -10.533400 -613.233000 -6.820260 1 1.000000 1 -3.000000
181 2 -17.238700 -615.642000 -13.549600 1 1.000000 1 -3.000000
182 2 -24.784200 -619.898000 -18.568600 1 1.000000 1 -3.000000
183 2 -32.459500 -624.172000 -23.048700 1 1.000000 8 -3.000000
184 1 -40.128300 -663.071000 2.519780 1 1.000000 8 0.000000
185 3 -20.297500 -643.541000 23.511500 1 1.000000 8 0.000000
186 2 -34.472700 -690.346000 40.550500 1 1.000000 8 -3.000000
187 2 -32.922300 -682.499000 46.488500 1 1.000000 1 -3.000000
188 2 -30.813100 -675.236000 52.781500 1 1.000000 1 -3.000000
189 2 -29.650500 -667.622000 59.078500 1 1.000000 1 -3.000000
190 2 -28.932700 -659.194000 64.190600 1 1.000000 1 -3.000000
191 2 -24.660700 -650.898000 67.610000 1 1.000000 1 -3.000000
192 2 -20.632700 -641.932000 68.660500 1 1.000000 1 -3.000000
193 2 -16.804600 -632.788000 68.117600 1 1.000000 1 -3.000000
194 2 -11.077600 -624.728000 68.562400 1 1.000000 1 -3.000000
195 2 -5.638520 -616.514000 69.410700 1 1.000000 1 -3.000000
196 2 -1.134640 -607.788000 70.890300 1 1.000000 1 -3.000000
197 2 4.970840 -600.009000 71.208900 1 1.000000 1 -3.000000
198 2 9.074810 -591.066000 72.785000 1 1.000000 1 -3.000000
199 2 13.948300 -582.517000 73.074600 1 1.000000 1 -3.000000
200 2 19.743400 -574.635000 74.642500 1 1.000000 1 -3.000000
201 2 25.788000 -567.129000 76.456200 1 1.000000 1 -3.000000
202 2 32.640300 -560.016000 78.127200 1 1.000000 1 -3.000000
203 2 39.003500 -552.824000 80.746900 1 1.000000 1 -3.000000
204 2 44.840800 -545.701000 84.203200 1 1.000000 1 -3.000000
205 2 51.452400 -538.769000 86.940000 1 1.000000 1 -3.000000
206 2 58.270900 -532.268000 89.900600 1 1.000000 1 -3.000000
207 2 64.630200 -526.951000 95.444700 1 1.000000 1 -3.000000
208 2 69.660200 -523.961000 103.449000 1 1.000000 1 -3.000000
209 2 73.241400 -519.143000 111.274000 1 1.000000 1 -3.000000
210 2 78.270500 -515.093000 118.754000 1 1.000000 9 -3.000000
211 1 66.249400 -545.489000 152.778000 1 1.000000 9 0.000000
212 3 57.793400 -562.673000 123.398000 1 1.000000 9 0.000000
213 2 50.515600 -586.970000 168.702000 1 1.000000 9 -3.000000
214 2 43.917300 -588.785000 161.593000 1 1.000000 1 -3.000000
215 2 36.975100 -589.579000 154.611000 1 1.000000 1 -3.000000
216 2 29.999600 -587.345000 147.885000 1 1.000000 1 -3.000000
217 2 24.261800 -583.964000 140.604000 1 1.000000 1 -3.000000
218 2 21.253100 -578.709000 132.754000 1 1.000000 1 -3.000000
219 2 19.326000 -575.680000 123.459000 1 1.000000 1 -3.000000
220 2 18.119400 -570.390000 115.098000 1 1.000000 1 -3.000000
221 2 16.957400 -564.729000 107.042000 1 1.000000 1 -3.000000
222 2 16.474300 -559.775000 98.494400 1 1.000000 1 -3.000000
223 2 15.074600 -554.641000 90.088900 1 1.000000 1 -3.000000
224 2 11.864000 -550.804000 81.598800 1 1.000000 1 -3.000000
225 2 8.725190 -545.085000 74.117200 1 1.000000 1 -3.000000
226 2 4.677610 -539.320000 67.181300 1 1.000000 1 -3.000000
227 2 -0.969379 -533.637000 61.319600 1 1.000000 1 -3.000000
228 2 -7.066160 -527.690000 56.185500 1 1.000000 1 -3.000000
229 2 -12.492400 -521.846000 50.440000 1 1.000000 1 -3.000000
230 2 -17.106100 -514.617000 45.585300 1 1.000000 1 -3.000000
231 2 -19.787900 -506.915000 39.937200 1 1.000000 1 -3.000000
232 2 -20.152700 -501.141000 31.928000 1 1.000000 1 -3.000000
233 2 -19.717300 -495.117000 24.192000 1 1.000000 1 -3.000000
234 2 -20.453700 -489.266000 16.394100 1 1.000000 1 -3.000000
235 2 -21.491700 -484.994000 7.537070 1 1.000000 1 -3.000000
236 2 -24.631000 -482.172000 -1.444350 1 1.000000 1 -3.000000
237 2 -27.951800 -480.278000 -10.625600 1 1.000000 10 -3.000000
238 1 -69.181400 -503.105000 -12.969300 1 1.000000 10 0.000000
239 3 -60.292800 -506.081000 20.711200 1 1.000000 10 0.000000
240 2 -104.218000 -529.004000 5.096220 1 1.000000 10 -3.000000
241 2 -102.692000 -524.955000 13.986100 1 1.000000 1 -3.000000
242 2 -102.513000 -521.969000 23.450200 1 1.000000 1 -3.000000
243 2 -101.519000 -518.603000 32.631300 1 1.000000 1 -3.000000
244 2 -99.398900 -513.892000 41.043200 1 1.000000 1 -3.000000
245 2 -95.238000 -509.803000 49.108900 1 1.000000 1 -3.000000
246 2 -89.515000 -506.634000 56.575800 1 1.000000 1 -3.000000
247 2 -83.188500 -503.166000 63.368800 1 1.000000 1 -3.000000
248 2 -75.110500 -502.162000 68.929600 1 1.000000 1 -3.000000
249 2 -67.839200 -500.568000 75.461500 1 1.000000 1 -3.000000
250 2 -60.828800 -499.924000 82.457600 1 1.000000 1 -3.000000
251 2 -55.692000 -496.583000 90.273500 1 1.000000 1 -3.000000
252 2 -51.857300 -492.025000 98.142900 1 1.000000 1 -3.000000
253 2 -48.817300 -486.531000 105.779000 1 1.000000 1 -3.000000
254 2 -45.624500 -482.034000 113.976000 1 1.000000 1 -3.000000
255 2 -43.502900 -476.924000 122.171000 1 1.000000 1 -3.000000
256 2 -41.603400 -471.744000 130.325000 1 1.000000 1 -3.000000
257 2 -39.074200 -468.830000 139.475000 1 1.000000 1 -3.000000
258 2 -36.938600 -466.910000 148.945000 1 1.000000 1 -3.000000
259 2 -37.030100 -465.181000 158.681000 1 1.000000 1 -3.000000
260 2 -37.909200 -464.742000 168.557000 1 1.000000 1 -3.000000
261 2 -38.296700 -466.812000 178.223000 1 1.000000 1 -3.000000
262 2 -39.416800 -472.062000 186.545000 1 1.000000 1 -3.000000
263 2 -38.468600 -477.522000 194.782000 1 1.000000 1 -3.000000
264 2 -36.541100 -481.982000 203.391000 1 1.000000 11 -3.000000
265 1 -25.940900 -525.434000 188.312000 1 1.000000 11 0.000000
266 3 -15.965000 -505.079000 161.709000 1 1.000000 11 0.000000
267 2 -6.775330 -555.991000 157.951000 1 1.000000 11 -3.000000
268 2 -1.444370 -549.294000 153.081000 1 1.000000 1 -3.000000
269 2 3.479160 -542.805000 147.457000 1 1.000000 1 -3.000000
270 2 10.258800 -536.415000 144.190000 1 1.000000 1 -3.000000
271 2 14.460700 -528.433000 140.105000 1 1.000000 1 -3.000000
272 2 18.232200 -519.937000 136.573000 1 1.000000 1 -3.000000
273 2 21.599600 -510.647000 137.115000 1 1.000000 1 -3.000000
274 2 24.033100 -501.199000 135.440000 1 1.000000 1 -3.000000
275 2 27.123000 -491.890000 134.455000 1 1.000000 1 -3.000000
276 2 30.285800 -482.715000 132.271000 1 1.000000 1 -3.000000
277 2 31.698900 -473.052000 130.743000 1 1.000000 1 -3.000000
278 2 33.243800 -463.695000 133.314000 1 1.000000 1 -3.000000
279 2 34.578100 -453.960000 134.723000 1 1.000000 1 -3.000000
280 2 36.726700 -444.271000 134.320000 1 1.000000 1 -3.000000
281 2 39.714100 -434.784000 134.797000 1 1.000000 1 -3.000000
282 2 41.125900 -425.051000 134.985000 1 1.000000 1 -3.000000
283 2 41.482300 -415.265000 136.088000 1 1.000000 1 -3.000000
284 2 42.847800 -405.520000 135.140000 1 1.000000 1 -3.000000
285 2 45.885300 -396.273000 134.135000 1 1.000000 1 -3.000000
286 2 49.023500 -387.056000 132.993000 1 1.000000 1 -3.000000
287 2 52.200700 -377.947000 135.090000 1 1.000000 1 -3.000000
288 2 54.705900 -368.452000 133.924000 1 1.000000 1 -3.000000
289 2 56.939500 -359.500000 130.548000 1 1.000000 1 -3.000000
290 2 60.236700 -352.478000 124.311000 1 1.000000 1 -3.000000
291 2 63.849800 -346.074000 117.725000 1 1.000000 12 -3.000000
292 1 96.212000 -331.935000 149.057000 1 1.000000 12 0.000000
293 3 89.631000 -365.000000 158.694000 1 1.000000 12 0.000000
294 2 125.466000 -338.682000 185.453000 1 1.000000 12 -3.000000
295 2 125.290000 -348.494000 186.232000 1 1.000000 1 -3.000000
296 2 125.264000 -358.291000 187.231000 1 1.000000 1 -3.000000
297 2 124.177000 -368.185000 187.314000 1 1.000000 1 -3.000000
298 2 122.061000 -377.890000 187.725000 1 1.000000 1 -3.000000
299 2 117.990000 -386.851000 186.355000 1 1.000000 1 -3.000000
300 2 113.838000 -394.953000 182.542000 1 1.000000 1 -3.000000
301 2 108.059000 -401.866000 178.627000 1 1.000000 1 -3.000000
302 2 102.180000 -406.853000 172.577000 1 1.000000 1 -3.000000
303 2 95.822500 -411.199000 166.449000 1 1.000000 1 -3.000000
304 2 89.951800 -414.500000 159.105000 1 1.000000 1 -3.000000
305 2 85.470100 -417.798000 150.941000 1 1.000000 1 -3.000000
306 2 80.046200 -418.582000 142.632000 1 1.000000 1 -3.000000
307 2 76.191500 -421.417000 133.956000 1 1.000000 1 -3.000000
308 2 72.262100 -424.810000 125.529000 1 1.000000 1 -3.000000
309 2 71.149700 -426.724000 115.941000 1 1.000000 1 -3.000000
310 2 69.211200 -426.919000 106.243000 1 1.000000 1 -3.000000
311 2 67.642100 -425.263000 96.581400 1 1.000000 1 -3.000000
312 2 67.034000 -425.583000 86.688000 1 1.000000 1 -3.000000
313 2 67.000600 -421.806000 77.483000 1 1.000000 1 -3.000000
314 2 67.948500 -418.238000 68.282100 1 1.000000 1 -3.000000
315 2 69.784000 -412.167000 60.702900 1 1.000000 1 -3.000000
316 2 73.562900 -405.958000 53.973900 1 1.000000 1 -3.000000
317 2 77.558000 -398.759000 48.319800 1 1.000000 1 -3.000000
318 2 81.057400 -390.637000 44.037600 1 1.000000 13 -3.000000
319 1 61.310500 -354.958000 67.746800 1 1.000000 13 0.000000
320 3 60.839000 -381.188000 90.915700 1 1.000000 13 0.000000
321 2 41.940000 -335.268000 106.006000 1 1.000000 13 -3.000000
322 2 39.003200 -343.615000 110.435000 1 1.000000 1 -3.000000
323 2 34.282800 -350.874000 115.148000 1 1.000000 1 -3.000000
324 2 29.717400 -356.901000 121.407000 1 1.000000 1 -3.000000
325 2 24.081500 -363.499000 126.221000 1 1.000000 1 -3.000000
326 2 18.287100 -368.815000 132.243000 1 1.000000 1 -3.000000
327 2 12.431100 -373.522000 138.754000 1 1.000000 1 -3.000000
328 2 4.975250 -377.793000 143.637000 1 1.000000 1 -3.000000
329 2 -1.000710 -381.009000 150.829000 1 1.000000 1 -3.000000
330 2 -3.481850 -385.104000 159.545000 1 1.000000 1 -3.000000
331 2 -7.067810 -388.841000 167.969000 1 1.000000 1 -3.000000
332 2 -9.740260 -393.867000 176.008000 1 1.000000 1 -3.000000
333 2 -11.932500 -397.329000 185.047000 1 1.000000 1 -3.000000
334 2 -14.558600 -401.918000 193.374000 1 1.000000 1 -3.000000
335 2 -14.211200 -406.552000 202.069000 1 1.000000 1 -3.000000
336 2 -12.077300 -409.590000 211.213000 1 1.000000 1 -3.000000
337 2 -13.298700 -414.791000 219.586000 1 1.000000 1 -3.000000
338 2 -13.463800 -419.943000 227.967000 1 1.000000 1 -3.000000
339 2 -17.006200 -426.472000 234.559000 1 1.000000 1 -3.000000
340 2 -21.124300 -432.077000 241.617000 1 1.000000 1 -3.000000
341 2 -23.144200 -437.599000 249.569000 1 1.000000 1 -3.000000
342 2 -22.297800 -442.103000 258.347000 1 1.000000 1 -3.000000
343 2 -21.993500 -444.609000 267.904000 1 1.000000 1 -3.000000
344 2 -21.189500 -447.518000 277.329000 1 1.000000 1 -3.000000
345 2 -18.783100 -451.202000 286.143000 1 1.000000 14 -3.000000
346 1 15.199700 -420.972000 298.695000 1 1.000000 14 0.000000
347 3 1.721280 -406.458000 269.880000 1 1.000000 14 0.000000
348 2 39.257500 -380.611000 294.987000 1 1.000000 14 -3.000000
349 2 35.032200 -375.934000 287.435000 1 1.000000 1 -3.000000
350 2 31.364400 -371.764000 279.110000 1 1.000000 1 -3.000000
351 2 26.925100 -368.034000 271.110000 1 1.000000 1 -3.000000
352 2 20.995200 -366.735000 263.367000 1 1.000000 1 -3.000000
353 2 14.885800 -365.479000 255.747000 1 1.000000 1 -3.000000
354 2 9.116830 -366.195000 247.770000 1 1.000000 1 -3.000000
355 2 2.789080 -367.398000 240.332000 1 1.000000 1 -3.000000
356 2 -5.116250 -368.576000 234.431000 1 1.000000 1 -3.000000
357 2 -12.530300 -368.569000 227.827000 1 1.000000 1 -3.000000
358 2 -18.099500 -367.339000 219.769000 1 1.000000 1 -3.000000
359 2 -24.093200 -366.946000 212.013000 1 1.000000 1 -3.000000
360 2 -28.780300 -367.523000 203.399000 1 1.000000 1 -3.000000
361 2 -32.705100 -369.317000 194.496000 1 1.000000 1 -3.000000
362 2 -38.475500 -369.412000 186.415000 1 1.000000 1 -3.000000
363 2 -42.937000 -369.949000 177.576000 1 1.000000 1 -3.000000
364 2 -48.185400 -372.163000 169.380000 1 1.000000 1 -3.000000
365 2 -52.539500 -372.265000 160.399000 1 1.000000 1 -3.000000
366 2 -57.689400 -372.259000 152.025000 1 1.000000 1 -3.000000
367 2 -63.307000 -370.170000 144.196000 1 1.000000 1 -3.000000
368 2 -70.162500 -369.327000 137.168000 1 1.000000 1 -3.000000
369 2 -78.558300 -367.537000 132.215000 1 1.000000 1 -3.000000
370 2 -87.139200 -364.952000 127.901000 1 1.000000 1 -3.000000
371 2 -96.487200 -361.918000 126.326000 1 1.000000 1 -3.000000
372 2 -105.659000 -359.406000 123.456000 1 1.000000 15 -3.000000
373 1 -124.745000 -350.906000 165.766000 1 1.000000 15 0.000000
374 3 -90.400300 -348.897000 171.961000 1 1.000000 15 0.000000
375 2 -122.635000 -342.377000 212.084000 1 1.000000 15 -3.000000
376 2 -113.973000 -337.624000 212.224000 1 1.000000 1 -3.000000
377 2 -106.077000 -331.744000 211.397000 1 1.000000 1 -3.000000
378 2 -97.947600 -326.459000 209.290000 1 1.000000 1 -3.000000
379 2 -89.980400 -320.977000 206.947000 1 1.000000 1 -3.000000
380 2 -83.206600 -313.925000 205.615000 1 1.000000 1 -3.000000
381 2 -76.694600 -307.224000 202.558000 1 1.000000 1 -3.000000
382 2 -72.627400 -299.282000 198.044000 1 1.000000 1 -3.000000
383 2 -69.473100 -290.081000 196.092000 1 1.000000 1 -3.000000
384 2 -67.353700 -280.612000 194.073000 1 1.000000 1 -3.000000
385 2 -65.791900 -271.614000 190.175000 1 1.000000 1 -3.000000
386 2 -66.093800 -261.824000 188.735000 1 1.000000 1 -3.000000
387 2 -65.259700 -252.308000 185.924000 1 1.000000 1 -3.000000
388 2 -61.764300 -243.157000 184.723000 1 1.000000 1 -3.000000
389 2 -56.910300 -234.493000 185.084000 1 1.000000 1 -3.000000
390 2 -52.006600 -226.436000 188.002000 1 1.000000 1 -3.000000
391 2 -46.759100 -220.111000 193.572000 1 1.000000 1 -3.000000
392 2 -41.962800 -214.262000 199.963000 1 1.000000 1 -3.000000
393 2 -36.119100 -209.375000 206.289000 1 1.000000 1 -3.000000
394 2 -29.624200 -205.752000 212.785000 1 1.000000 1 -3.000000
395 2 -21.905000 -202.690000 218.029000 1 1.000000 1 -3.000000
396 2 -13.656700 -199.280000 222.231000 1 1.000000 1 -3.000000
397 2 -4.797870 -195.675000 224.635000 1 1.000000 1 -3.000000
398 2 4.679030 -194.540000 227.173000 1 1.000000 1 -3.000000
399 2 13.846200 -194.537000 230.801000 1 1.000000 16 -3.000000
400 1 35.317700 -218.258000 196.138000 1 1.000000 16 0.000000
401 3 2.568810 -214.627000 184.205000 1 1.000000 16 0.000000
402 2 36.628700 -239.529000 154.079000 1 1.000000 16 -3.000000
403 2 27.965200 -236.093000 150.632000 1 1.000000 1 -3.000000
404 2 19.273200 -233.194000 146.850000 1 1.000000 1 -3.000000
405 2 10.470800 -229.723000 143.928000 1 1.000000 1 -3.000000
406 2 1.893750 -225.772000 141.092000 1 1.000000 1 -3.000000
407 2 -6.473940 -220.489000 140.866000 1 1.000000 1 -3.000000
408 2 -14.733100 -215.550000 143.089000 1 1.000000 1 -3.000000
409 2 -22.035900 -210.388000 147.339000 1 1.000000 1 -3.000000
410 2 -28.448000 -203.769000 150.941000 1 1.000000 1 -3.000000
411 2 -36.431400 -198.099000 151.926000 1 1.000000 1 -3.000000
412 2 -45.558900 -194.883000 153.940000 1 1.000000 1 -3.000000
413 2 -54.113200 -190.203000 155.404000 1 1.000000 1 -3.000000
414 2 -61.989800 -184.176000 155.525000 1 1.000000 1 -3.000000
415 2 -68.750800 -176.863000 155.316000 1 1.000000 1 -3.000000
416 2 -75.031700 -169.238000 155.499000 1 1.000000 1 -3.000000
417 2 -80.823700 -161.264000 154.135000 1 1.000000 1 -3.000000
418 2 -86.460100 -153.506000 151.770000 1 1.000000 1 -3.000000
419 2 -90.856300 -145.758000 147.617000 1 1.000000 1 -3.000000
420 2 -94.164800 -136.894000 144.649000 1 1.000000 1 -3.000000
421 2 -94.707500 -127.691000 140.923000 1 1.000000 1 -3.000000
422 2 -95.022900 -119.720000 135.119000 1 1.000000 1 -3.000000
423 2 -95.418000 -112.246000 128.729000 1 1.000000 1 -3.000000
424 2 -94.724500 -104.989000 121.969000 1 1.000000 1 -3.000000
425 2 -94.511200 -100.456000 113.187000 1 1.000000 1 -3.000000
426 2 -91.845300 -95.459600 105.040000 1 1.000000 17 -3.000000
427 1 -77.486500 -129.349000 75.472800 1 1.000000 17 0.000000
428 3 -94.297100 -147.129000 100.555000 1 1.000000 17 0.000000
429 2 -75.934900 -173.881000 60.008100 1 1.000000 17 -3.000000
430 2 -83.768600 -175.983000 65.714300 1 1.000000 1 -3.000000
431 2 -91.904500 -179.098000 70.503900 1 1.000000 1 -3.000000
432 2 -98.383600 -183.711000 76.506300 1 1.000000 1 -3.000000
433 2 -103.879000 -186.717000 84.058300 1 1.000000 1 -3.000000
434 2 -110.773000 -188.045000 91.089900 1 1.000000 1 -3.000000
435 2 -118.589000 -187.166000 97.051600 1 1.000000 1 -3.000000
436 2 -122.949000 -182.523000 104.564000 1 1.000000 1 -3.000000
437 2 -127.207000 -178.641000 112.640000 1 1.000000 1 -3.000000
438 2 -132.456000 -171.956000 117.710000 1 1.000000 1 -3.000000
439 2 -137.482000 -164.820000 122.258000 1 1.000000 1 -3.000000
440 2 -140.865000 -157.320000 127.789000 1 1.000000 1 -3.000000
441 2 -144.464000 -151.263000 134.654000 1 1.000000 1 -3.000000
442 2 -149.111000 -145.261000 140.958000 1 1.000000 1 -3.000000
443 2 -153.227000 -137.761000 145.859000 1 1.000000 1 -3.000000
444 2 -155.452000 -131.402000 153.154000 1 1.000000 1 -3.000000
445 2 -156.299000 -124.405000 160.182000 1 1.000000 1 -3.000000
446 2 -158.918000 -117.994000 167.161000 1 1.000000 1 -3.000000
447 2 -160.740000 -110.508000 173.355000 1 1.000000 1 -3.000000
448 2 -162.822000 -103.170000 179.673000 1 1.000000 1 -3.000000
449 2 -167.090000 -95.651900 184.542000 1 1.000000 1 -3.000000
450 2 -170.921000 -87.613600 188.757000 1 1.000000 1 -3.000000
451 2 -176.299000 -79.418700 189.912000 1 1.000000 1 -3.000000
452 2 -180.907000 -70.689900 190.684000 1 1.000000 1 -3.000000
453 2 -183.801000 -61.268100 191.593000 1 1.000000 18 -3.000000
454 1 -159.485000 -42.218500 155.890000 1 1.000000 18 0.000000
455 3 -161.868000 -75.876800 146.866000 1 1.000000 18 0.000000
456 2 -135.201000 -44.427000 115.480000 1 1.000000 18 -3.000000
457 2 -138.512000 -53.110300 112.055000 1 1.000000 1 -3.000000
458 2 -142.932000 -61.259200 108.519000 1 1.000000 1 -3.000000
459 2 -148.155000 -69.119900 105.402000 1 1.000000 1 -3.000000
460 2 -153.113000 -77.554500 103.565000 1 1.000000 1 -3.000000
461 2 -160.378000 -84.326000 103.223000 1 1.000000 1 -3.000000
462 2 -168.760000 -89.634800 104.327000 1 1.000000 1 -3.000000
463 2 -177.253000 -94.410000 105.848000 1 1.000000 1 -3.000000
464 2 -183.458000 -101.439000 108.718000 1 1.000000 1 -3.000000
465 2 -188.789000 -109.695000 109.938000 1 1.000000 1 -3.000000
466 2 -195.212000 -117.181000 109.370000 1 1.000000 1 -3.000000
467 2 -202.055000 -124.370000 108.468000 1 1.000000 1 -3.000000
468 2 -209.520000 -130.934000 107.953000 1 1.000000 1 -3.000000
469 2 -216.993000 -137.384000 108.886000 1 1.000000 1 -3.000000
470 2 -224.756000 -142.087000 112.860000 1 1.000000 1 -3.000000
471 2 -233.114000 -147.341000 113.279000 1 1.000000 1 -3.000000
472 2 -241.618000 -152.290000 114.590000 1 1.000000 1 -3.000000
473 2 -248.986000 -157.902000 118.107000 1 1.000000 1 -3.000000
474 2 -256.743000 -162.021000 122.720000 1 1.000000 1 -3.000000
475 2 -265.510000 -165.203000 125.986000 1 1.000000 1 -3.000000
476 2 -275.071000 -165.516000 128.771000 1 1.000000 1 -3.000000
477 2 -284.571000 -164.984000 131.474000 1 1.000000 1 -3.000000
478 2 -293.641000 -163.293000 135.029000 1 1.000000 1 -3.000000
479 2 -302.780000 -161.506000 138.460000 1 1.000000 1 -3.000000
480 2 -310.934000 -159.809000 143.813000 1 1.000000 19 -3.000000