LAMMPS data file

4067 atoms
4067 ellipsoids
4516 bonds
8882 angles
0 dihedrals

3 atom types
5 bond types
12 angle types
0 dihedral types

-4631.092947 4670.465898 xlo xhi
-4631.092947 4670.465898 ylo yhi
-4631.092947 4670.465898 zlo zhi

Masses

1 196016.000000
2 1950.000000
3 19500.000000

Atoms

1 2 557.966000 -618.531000 -386.291000 1 1.000000 1 -3.000000
2 2 555.366000 -609.126000 -387.964000 1 1.000000 1 -3.000000
3 2 553.810000 -599.865000 -391.269000 1 1.000000 1 -3.000000
4 2 554.416000 -590.335000 -393.928000 1 1.000000 1 -3.000000
5 2 554.165000 -580.657000 -395.823000 1 1.000000 1 -3.000000
6 2 553.558000 -570.886000 -397.624000 1 1.000000 1 -3.000000
7 2 551.558000 -561.209000 -396.900000 1 1.000000 1 -3.000000
8 2 549.174000 -551.591000 -395.845000 1 1.000000 1 -3.000000
9 2 546.937000 -541.997000 -395.852000 1 1.000000 1 -3.000000
10 2 542.960000 -532.925000 -396.436000 1 1.000000 1 -3.000000
11 2 539.706000 -523.588000 -395.712000 1 1.000000 1 -3.000000
12 2 535.490000 -514.663000 -394.878000 1 1.000000 1 -3.000000
13 2 531.987000 -505.441000 -394.381000 1 1.000000 1 -3.000000
14 2 529.804000 -495.840000 -394.159000 1 1.000000 1 -3.000000
15 2 526.628000 -486.535000 -392.760000 1 1.000000 1 -3.000000
16 2 525.789000 -477.021000 -390.535000 1 1.000000 1 -3.000000
17 2 525.706000 -467.169000 -389.442000 1 1.000000 1 -3.000000
18 2 525.926000 -457.708000 -386.510000 1 1.000000 1 -3.000000
19 2 527.955000 -449.092000 -382.135000 1 1.000000 1 -3.000000
20 2 531.131000 -440.269000 -378.829000 1 1.000000 1 -3.000000
21 2 534.572000 -431.436000 -376.046000 1 1.000000 2 -3.000000
22 1 543.361000 -445.668000 -331.907000 1 1.000000 2 0.000000
23 3 544.503000 -475.475000 -350.305000 1 1.000000 2 0.000000
24 2 550.216000 -478.471000 -298.676000 1 1.000000 2 -3.000000
25 2 556.548000 -483.344000 -304.603000 1 1.000000 1 -3.000000
26 2 563.169000 -487.307000 -310.809000 1 1.000000 1 -3.000000
27 2 568.900000 -492.223000 -317.247000 1 1.000000 1 -3.000000
28 2 576.862000 -496.972000 -320.888000 1 1.000000 1 -3.000000
29 2 585.881000 -500.529000 -323.044000 1 1.000000 1 -3.000000
30 2 595.235000 -503.416000 -324.251000 1 1.000000 1 -3.000000
31 2 604.982000 -504.210000 -325.066000 1 1.000000 1 -3.000000
32 2 614.714000 -503.055000 -325.612000 1 1.000000 1 -3.000000
33 2 624.476000 -501.515000 -326.357000 1 1.000000 1 -3.000000
34 2 633.968000 -503.161000 -324.143000 1 1.000000 1 -3.000000
35 2 643.416000 -504.110000 -321.510000 1 1.000000 1 -3.000000
36 2 652.962000 -504.833000 -318.906000 1 1.000000 1 -3.000000
37 2 661.304000 -505.032000 -313.625000 1 1.000000 1 -3.000000
38 2 670.294000 -507.359000 -310.205000 1 1.000000 1 -3.000000
39 2 678.696000 -511.085000 -306.494000 1 1.000000 1 -3.000000
40 2 686.783000 -515.604000 -302.924000 1 1.000000 1 -3.000000
41 2 695.419000 -517.601000 -298.622000 1 1.000000 1 -3.000000
42 2 702.684000 -519.147000 -292.074000 1 1.000000 1 -3.000000
43 2 711.003000 -521.840000 -287.430000 1 1.000000 1 -3.000000
44 2 719.415000 -524.690000 -283.075000 1 1.000000 1 -3.000000
45 2 727.198000 -528.108000 -277.951000 1 1.000000 1 -3.000000
46 2 733.496000 -530.067000 -270.686000 1 1.000000 1 -3.000000
47 2 738.873000 -531.241000 -262.478000 1 1.000000 1 -3.000000
48 2 745.312000 -532.666000 -255.144000 1 1.000000 3 -3.000000
49 1 732.990000 -496.519000 -227.394000 1 1.000000 3 0.000000
50 3 706.268000 -498.870000 -249.822000 1 1.000000 3 0.000000
51 2 702.821000 -463.810000 -211.723000 1 1.000000 3 -3.000000
52 2 694.340000 -468.134000 -214.736000 1 1.000000 1 -3.000000
53 2 686.982000 -473.962000 -217.802000 1 1.000000 1 -3.000000
54 2 678.903000 -477.384000 -222.437000 1 1.000000 1 -3.000000
55 2 672.174000 -479.706000 -229.323000 1 1.000000 1 -3.000000
56 2 667.765000 -481.118000 -238.101000 1 1.000000 1 -3.000000
57 2 664.399000 -481.582000 -247.428000 1 1.000000 1 -3.000000
58 2 663.007000 -481.717000 -257.200000 1 1.000000 1 -3.000000
59 2 663.677000 -479.807000 -266.898000 1 1.000000 1 -3.000000
60 2 663.068000 -477.898000 -276.560000 1 1.000000 1 -3.000000
61 2 662.148000 -475.964000 -286.231000 1 1.000000 1 -3.000000
62 2 663.085000 -471.122000 -294.832000 1 1.000000 1 -3.000000
63 2 662.692000 -466.611000 -303.666000 1 1.000000 1 -3.000000
64 2 663.506000 -462.024000 -312.421000 1 1.000000 1 -3.000000
65 2 663.578000 -457.559000 -321.319000 1 1.000000 1 -3.000000
66 2 663.774000 -451.525000 -329.198000 1 1.000000 1 -3.000000
67 2 662.912000 -447.089000 -338.068000 1 1.000000 1 -3.000000
68 2 661.552000 -442.261000 -346.560000 1 1.000000 1 -3.000000
69 2 662.136000 -437.041000 -354.894000 1 1.000000 1 -3.000000
70 2 661.233000 -433.336000 -363.959000 1 1.000000 1 -3.000000
71 2 659.521000 -428.343000 -372.321000 1 1.000000 1 -3.000000
72 2 656.062000 -423.098000 -380.044000 1 1.000000 1 -3.000000
73 2 651.862000 -418.431000 -387.734000 1 1.000000 1 -3.000000
74 2 646.021000 -413.721000 -394.161000 1 1.000000 1 -3.000000
75 2 639.687000 -410.856000 -401.154000 1 1.000000 4 -3.000000
76 1 598.559000 -424.434000 -382.549000 1 1.000000 4 0.000000
77 3 619.982000 -423.797000 -354.877000 1 1.000000 4 0.000000
78 2 570.557000 -437.672000 -346.932000 1 1.000000 4 -3.000000
79 2 575.501000 -433.872000 -339.260000 1 1.000000 1 -3.000000
80 2 581.001000 -431.154000 -331.366000 1 1.000000 1 -3.000000
81 2 587.041000 -426.380000 -325.148000 1 1.000000 1 -3.000000
82 2 593.932000 -422.249000 -319.322000 1 1.000000 1 -3.000000
83 2 602.296000 -418.716000 -315.186000 1 1.000000 1 -3.000000
84 2 610.866000 -414.820000 -312.138000 1 1.000000 1 -3.000000
85 2 619.178000 -409.605000 -311.965000 1 1.000000 1 -3.000000
86 2 628.007000 -406.261000 -308.942000 1 1.000000 1 -3.000000
87 2 636.995000 -402.169000 -308.760000 1 1.000000 1 -3.000000
88 2 646.182000 -398.536000 -307.284000 1 1.000000 1 -3.000000
89 2 655.642000 -395.613000 -307.056000 1 1.000000 1 -3.000000
90 2 665.210000 -393.702000 -305.539000 1 1.000000 1 -3.000000
91 2 675.055000 -393.344000 -305.709000 1 1.000000 1 -3.000000
92 2 684.725000 -391.383000 -306.226000 1 1.000000 1 -3.000000
93 2 693.812000 -387.450000 -307.177000 1 1.000000 1 -3.000000
94 2 702.492000 -383.036000 -309.144000 1 1.000000 1 -3.000000
95 2 711.223000 -380.126000 -312.887000 1 1.000000 1 -3.000000
96 2 720.459000 -377.080000 -314.885000 1 1.000000 1 -3.000000
97 2 729.582000 -374.995000 -318.074000 1 1.000000 1 -3.000000
98 2 739.209000 -373.932000 -320.277000 1 1.000000 1 -3.000000
99 2 747.107000 -371.477000 -325.642000 1 1.000000 1 -3.000000
100 2 754.853000 -368.469000 -330.994000 1 1.000000 1 -3.000000
101 2 760.695000 -364.814000 -337.995000 1 1.000000 1 -3.000000
102 2 766.169000 -361.650000 -345.600000 1 1.000000 5 -3.000000
103 1 737.445000 -343.174000 -378.071000 1 1.000000 5 0.000000
104 3 716.606000 -346.810000 -350.097000 1 1.000000 5 0.000000
105 2 695.792000 -327.511000 -393.679000 1 1.000000 5 -3.000000
106 2 692.134000 -326.944000 -384.469000 1 1.000000 1 -3.000000
107 2 687.633000 -326.804000 -375.651000 1 1.000000 1 -3.000000
108 2 682.647000 -325.335000 -367.269000 1 1.000000 1 -3.000000
109 2 678.358000 -324.042000 -358.418000 1 1.000000 1 -3.000000
110 2 673.376000 -323.058000 -350.004000 1 1.000000 1 -3.000000
111 2 667.037000 -320.797000 -342.712000 1 1.000000 1 -3.000000
112 2 659.261000 -318.238000 -337.060000 1 1.000000 1 -3.000000
113 2 651.505000 -314.540000 -332.225000 1 1.000000 1 -3.000000
114 2 644.902000 -310.451000 -326.074000 1 1.000000 1 -3.000000
115 2 638.668000 -306.343000 -319.620000 1 1.000000 1 -3.000000
116 2 631.410000 -304.115000 -313.269000 1 1.000000 1 -3.000000
117 2 625.475000 -300.564000 -306.130000 1 1.000000 1 -3.000000
118 2 620.011000 -295.131000 -299.937000 1 1.000000 1 -3.000000
119 2 614.568000 -289.790000 -293.694000 1 1.000000 1 -3.000000
120 2 608.843000 -285.682000 -286.688000 1 1.000000 1 -3.000000
121 2 603.591000 -281.128000 -279.644000 1 1.000000 1 -3.000000
122 2 598.357000 -276.370000 -272.717000 1 1.000000 1 -3.000000
123 2 592.272000 -271.795000 -266.425000 1 1.000000 1 -3.000000
124 2 585.978000 -266.295000 -261.103000 1 1.000000 1 -3.000000
125 2 579.488000 -259.747000 -257.473000 1 1.000000 1 -3.000000
126 2 574.148000 -252.984000 -252.649000 1 1.000000 1 -3.000000
127 2 569.729000 -245.267000 -248.272000 1 1.000000 1 -3.000000
128 2 568.010000 -237.306000 -242.761000 1 1.000000 1 -3.000000
129 2 565.558000 -229.069000 -237.942000 1 1.000000 6 -3.000000
130 1 584.341000 -201.453000 -271.282000 1 1.000000 6 0.000000
131 3 578.635000 -231.649000 -288.125000 1 1.000000 6 0.000000
132 2 598.782000 -192.125000 -315.193000 1 1.000000 6 -3.000000
133 2 595.266000 -200.544000 -319.020000 1 1.000000 1 -3.000000
134 2 589.405000 -206.953000 -323.819000 1 1.000000 1 -3.000000
135 2 583.953000 -213.404000 -328.931000 1 1.000000 1 -3.000000
136 2 578.572000 -220.856000 -332.527000 1 1.000000 1 -3.000000
137 2 572.761000 -228.750000 -331.890000 1 1.000000 1 -3.000000
138 2 568.348000 -237.391000 -330.124000 1 1.000000 1 -3.000000
139 2 566.026000 -247.017000 -328.981000 1 1.000000 1 -3.000000
140 2 565.842000 -256.650000 -331.280000 1 1.000000 1 -3.000000
141 2 565.778000 -265.923000 -334.731000 1 1.000000 1 -3.000000
142 2 567.126000 -275.121000 -337.935000 1 1.000000 1 -3.000000
143 2 567.706000 -284.503000 -341.005000 1 1.000000 1 -3.000000
144 2 568.462000 -293.941000 -343.680000 1 1.000000 1 -3.000000
145 2 570.363000 -302.680000 -347.927000 1 1.000000 1 -3.000000
146 2 571.658000 -312.439000 -348.522000 1 1.000000 1 -3.000000
147 2 573.154000 -322.209000 -349.084000 1 1.000000 1 -3.000000
148 2 576.153000 -331.309000 -351.791000 1 1.000000 1 -3.000000
149 2 578.676000 -339.254000 -357.105000 1 1.000000 1 -3.000000
150 2 584.286000 -346.449000 -360.831000 1 1.000000 1 -3.000000
151 2 589.972000 -353.144000 -365.360000 1 1.000000 1 -3.000000
152 2 596.515000 -358.491000 -370.603000 1 1.000000 1 -3.000000
153 2 603.727000 -364.783000 -373.321000 1 1.000000 1 -3.000000
154 2 611.567000 -370.685000 -374.112000 1 1.000000 1 -3.000000
155 2 620.725000 -374.341000 -373.525000 1 1.000000 1 -3.000000
156 2 630.220000 -377.405000 -373.322000 1 1.000000 7 -3.000000
157 1 645.275000 -367.415000 -329.717000 1 1.000000 7 0.000000
158 3 610.826000 -361.809000 -327.803000 1 1.000000 7 0.000000
159 2 639.055000 -354.772000 -284.725000 1 1.000000 7 -3.000000
160 2 629.174000 -354.813000 -284.320000 1 1.000000 1 -3.000000
161 2 619.416000 -356.363000 -283.786000 1 1.000000 1 -3.000000
162 2 609.988000 -359.022000 -284.487000 1 1.000000 1 -3.000000
163 2 600.830000 -362.577000 -285.522000 1 1.000000 1 -3.000000
164 2 594.122000 -369.290000 -288.522000 1 1.000000 1 -3.000000
165 2 585.548000 -373.685000 -290.914000 1 1.000000 1 -3.000000
166 2 576.750000 -378.175000 -290.238000 1 1.000000 1 -3.000000
167 2 568.859000 -384.014000 -291.350000 1 1.000000 1 -3.000000
168 2 562.791000 -391.672000 -290.436000 1 1.000000 1 -3.000000
169 2 557.539000 -399.970000 -289.373000 1 1.000000 1 -3.000000
170 2 551.247000 -406.831000 -285.971000 1 1.000000 1 -3.000000
171 2 545.757000 -414.567000 -282.784000 1 1.000000 1 -3.000000
172 2 543.485000 -424.188000 -282.392000 1 1.000000 1 -3.000000
173 2 541.278000 -433.638000 -280.439000 1 1.000000 1 -3.000000
174 2 537.447000 -442.686000 -279.665000 1 1.000000 1 -3.000000
175 2 533.875000 -451.785000 -278.273000 1 1.000000 1 -3.000000
176 2 528.958000 -460.411000 -278.303000 1 1.000000 1 -3.000000
177 2 522.780000 -467.951000 -279.973000 1 1.000000 1 -3.000000
178 2 517.214000 -476.149000 -280.207000 1 1.000000 1 -3.000000
179 2 509.383000 -481.916000 -277.904000 1 1.000000 1 -3.000000
180 2 502.208000 -488.824000 -277.383000 1 1.000000 1 -3.000000
181 2 494.139000 -494.196000 -279.404000 1 1.000000 1 -3.000000
182 2 486.393000 -499.384000 -282.669000 1 1.000000 1 -3.000000
183 2 477.477000 -502.419000 -285.589000 1 1.000000 8 -3.000000
184 1 485.903000 -508.533000 -331.614000 1 1.000000 8 0.000000
185 3 517.454000 -500.826000 -318.634000 1 1.000000 8 0.000000
186 2 514.328000 -513.463000 -368.916000 1 1.000000 8 -3.000000
187 2 522.870000 -513.828000 -363.825000 1 1.000000 1 -3.000000
188 2 531.763000 -514.706000 -359.351000 1 1.000000 1 -3.000000
189 2 539.877000 -515.741000 -353.760000 1 1.000000 1 -3.000000
190 2 546.824000 -518.455000 -347.349000 1 1.000000 1 -3.000000
191 2 551.737000 -519.377000 -338.821000 1 1.000000 1 -3.000000
192 2 557.204000 -522.403000 -331.207000 1 1.000000 1 -3.000000
193 2 564.330000 -524.893000 -324.742000 1 1.000000 1 -3.000000
194 2 571.439000 -527.034000 -318.282000 1 1.000000 1 -3.000000
195 2 579.533000 -528.718000 -312.923000 1 1.000000 1 -3.000000
196 2 587.048000 -531.068000 -306.969000 1 1.000000 1 -3.000000
197 2 594.189000 -531.812000 -300.145000 1 1.000000 1 -3.000000
198 2 600.369000 -531.144000 -292.520000 1 1.000000 1 -3.000000
199 2 606.220000 -531.879000 -284.531000 1 1.000000 1 -3.000000
200 2 612.627000 -534.587000 -277.454000 1 1.000000 1 -3.000000
201 2 617.910000 -537.749000 -269.711000 1 1.000000 1 -3.000000
202 2 620.772000 -543.059000 -261.901000 1 1.000000 1 -3.000000
203 2 622.114000 -546.799000 -252.802000 1 1.000000 1 -3.000000
204 2 622.944000 -549.055000 -243.182000 1 1.000000 1 -3.000000
205 2 624.585000 -552.278000 -233.991000 1 1.000000 1 -3.000000
206 2 624.475000 -557.414000 -225.584000 1 1.000000 1 -3.000000
207 2 621.954000 -563.550000 -218.265000 1 1.000000 1 -3.000000
208 2 618.875000 -568.848000 -210.390000 1 1.000000 1 -3.000000
209 2 617.716000 -573.861000 -201.858000 1 1.000000 1 -3.000000
210 2 616.659000 -578.749000 -193.410000 1 1.000000 9 -3.000000
211 1 573.365000 -560.070000 -191.659000 1 1.000000 9 0.000000
212 3 576.479000 -569.897000 -225.167000 1 1.000000 9 0.000000
213 2 531.463000 -548.954000 -210.223000 1 1.000000 9 -3.000000
214 2 533.368000 -556.692000 -216.180000 1 1.000000 1 -3.000000
215 2 533.007000 -563.279000 -223.525000 1 1.000000 1 -3.000000
216 2 533.668000 -570.287000 -230.552000 1 1.000000 1 -3.000000
217 2 535.630000 -574.431000 -239.346000 1 1.000000 1 -3.000000
218 2 539.332000 -575.032000 -248.504000 1 1.000000 1 -3.000000
219 2 544.499000 -577.599000 -256.584000 1 1.000000 1 -3.000000
220 2 550.222000 -580.242000 -264.299000 1 1.000000 1 -3.000000
221 2 556.260000 -582.278000 -271.893000 1 1.000000 1 -3.000000
222 2 562.333000 -586.022000 -278.838000 1 1.000000 1 -3.000000
223 2 567.442000 -591.104000 -285.658000 1 1.000000 1 -3.000000
224 2 574.003000 -596.995000 -290.136000 1 1.000000 1 -3.000000
225 2 580.439000 -603.610000 -293.841000 1 1.000000 1 -3.000000
226 2 586.122000 -609.661000 -299.216000 1 1.000000 1 -3.000000
227 2 592.113000 -615.012000 -304.949000 1 1.000000 1 -3.000000
228 2 597.339000 -620.884000 -310.931000 1 1.000000 1 -3.000000
229 2 603.152000 -625.807000 -317.312000 1 1.000000 1 -3.000000
230 2 606.657000 -631.724000 -324.448000 1 1.000000 1 -3.000000
231 2 610.451000 -636.554000 -332.222000 1 1.000000 1 -3.000000
232 2 613.653000 -641.953000 -339.818000 1 1.000000 1 -3.000000
233 2 617.245000 -649.733000 -344.765000 1 1.000000 1 -3.000000
234 2 620.216000 -658.991000 -346.437000 1 1.000000 1 -3.000000
235 2 622.547000 -668.434000 -348.301000 1 1.000000 1 -3.000000
236 2 626.759000 -677.437000 -348.003000 1 1.000000 1 -3.000000
237 2 630.745000 -686.353000 -346.232000 1 1.000000 10 -3.000000
238 1 597.059000 -706.656000 -320.235000 1 1.000000 10 0.000000
239 3 586.947000 -673.238000 -321.588000 1 1.000000 10 0.000000
240 2 556.620000 -706.626000 -295.938000 1 1.000000 10 -3.000000
241 2 554.847000 -697.079000 -297.782000 1 1.000000 1 -3.000000
242 2 551.851000 -688.583000 -301.821000 1 1.000000 1 -3.000000
243 2 546.663000 -680.761000 -304.886000 1 1.000000 1 -3.000000
244 2 544.296000 -671.275000 -306.854000 1 1.000000 1 -3.000000
245 2 543.241000 -661.681000 -309.202000 1 1.000000 1 -3.000000
246 2 543.044000 -652.082000 -311.184000 1 1.000000 1 -3.000000
247 2 542.260000 -643.386000 -315.749000 1 1.000000 1 -3.000000
248 2 541.506000 -634.186000 -319.224000 1 1.000000 1 -3.000000
249 2 543.482000 -625.966000 -324.286000 1 1.000000 1 -3.000000
250 2 545.053000 -616.859000 -327.890000 1 1.000000 1 -3.000000
251 2 545.675000 -607.009000 -327.140000 1 1.000000 1 -3.000000
252 2 544.066000 -597.495000 -324.709000 1 1.000000 1 -3.000000
253 2 543.722000 -587.703000 -323.677000 1 1.000000 1 -3.000000
254 2 543.260000 -578.000000 -322.002000 1 1.000000 1 -3.000000
255 2 540.084000 -568.750000 -320.445000 1 1.000000 1 -3.000000
256 2 538.612000 -559.452000 -317.461000 1 1.000000 1 -3.000000
257 2 539.271000 -550.596000 -313.340000 1 1.000000 1 -3.000000
258 2 539.519000 -541.983000 -308.383000 1 1.000000 1 -3.000000
259 2 540.312000 -533.608000 -303.304000 1 1.000000 1 -3.000000
260 2 540.114000 -525.293000 -297.857000 1 1.000000 1 -3.000000
261 2 540.627000 -517.147000 -292.261000 1 1.000000 1 -3.000000
262 2 542.731000 -508.795000 -287.503000 1 1.000000 1 -3.000000
263 2 545.339000 -499.802000 -284.207000 1 1.000000 1 -3.000000
264 2 549.190000 -491.244000 -280.862000 1 1.000000 11 -3.000000
265 1 532.493000 -500.792000 -237.809000 1 1.000000 11 0.000000
266 3 531.016000 -531.793000 -254.047000 1 1.000000 11 0.000000
267 2 512.556000 -528.887000 -205.515000 1 1.000000 11 -3.000000
268 2 511.017000 -537.544000 -210.152000 1 1.000000 1 -3.000000
269 2 506.869000 -546.464000 -211.333000 1 1.000000 1 -3.000000
270 2 502.958000 -555.365000 -213.281000 1 1.000000 1 -3.000000
271 2 497.243000 -563.257000 -214.903000 1 1.000000 1 -3.000000
272 2 490.362000 -570.306000 -216.217000 1 1.000000 1 -3.000000
273 2 483.710000 -576.804000 -219.473000 1 1.000000 1 -3.000000
274 2 477.306000 -584.207000 -221.385000 1 1.000000 1 -3.000000
275 2 470.719000 -591.161000 -223.865000 1 1.000000 1 -3.000000
276 2 464.365000 -597.104000 -228.443000 1 1.000000 1 -3.000000
277 2 459.314000 -605.261000 -230.722000 1 1.000000 1 -3.000000
278 2 454.864000 -613.801000 -232.736000 1 1.000000 1 -3.000000
279 2 449.022000 -621.743000 -233.461000 1 1.000000 1 -3.000000
280 2 441.510000 -628.150000 -233.177000 1 1.000000 1 -3.000000
281 2 433.160000 -633.544000 -232.847000 1 1.000000 1 -3.000000
282 2 424.470000 -638.207000 -233.228000 1 1.000000 1 -3.000000
283 2 416.043000 -643.301000 -232.707000 1 1.000000 1 -3.000000
284 2 408.579000 -649.422000 -234.793000 1 1.000000 1 -3.000000
285 2 401.623000 -656.317000 -236.434000 1 1.000000 1 -3.000000
286 2 395.725000 -663.780000 -238.971000 1 1.000000 1 -3.000000
287 2 391.404000 -670.873000 -244.371000 1 1.000000 1 -3.000000
288 2 389.513000 -677.946000 -251.100000 1 1.000000 1 -3.000000
289 2 387.899000 -684.171000 -258.624000 1 1.000000 1 -3.000000
290 2 388.105000 -690.335000 -266.427000 1 1.000000 1 -3.000000
291 2 387.665000 -697.549000 -273.052000 1 1.000000 12 -3.000000
292 1 433.153000 -709.790000 -276.069000 1 1.000000 12 0.000000
293 3 432.412000 -688.331000 -248.408000 1 1.000000 12 0.000000
294 2 477.648000 -710.979000 -260.413000 1 1.000000 12 -3.000000
295 2 476.057000 -708.074000 -251.093000 1 1.000000 1 -3.000000
296 2 473.177000 -703.856000 -242.624000 1 1.000000 1 -3.000000
297 2 471.158000 -701.126000 -233.420000 1 1.000000 1 -3.000000
298 2 467.849000 -698.488000 -224.516000 1 1.000000 1 -3.000000
299 2 463.263000 -697.309000 -215.815000 1 1.000000 1 -3.000000
300 2 457.102000 -695.723000 -208.274000 1 1.000000 1 -3.000000
301 2 451.153000 -694.971000 -200.401000 1 1.000000 1 -3.000000
302 2 445.166000 -694.548000 -192.443000 1 1.000000 1 -3.000000
303 2 439.207000 -693.368000 -184.601000 1 1.000000 1 -3.000000
304 2 434.737000 -689.805000 -176.434000 1 1.000000 1 -3.000000
305 2 431.874000 -683.964000 -168.891000 1 1.000000 1 -3.000000
306 2 428.043000 -678.130000 -161.898000 1 1.000000 1 -3.000000
307 2 423.039000 -672.377000 -155.706000 1 1.000000 1 -3.000000
308 2 418.993000 -668.192000 -147.686000 1 1.000000 1 -3.000000
309 2 416.063000 -662.977000 -139.783000 1 1.000000 1 -3.000000
310 2 413.686000 -656.892000 -132.379000 1 1.000000 1 -3.000000
311 2 411.507000 -650.715000 -124.880000 1 1.000000 1 -3.000000
312 2 410.019000 -645.681000 -116.567000 1 1.000000 1 -3.000000
313 2 408.842000 -640.777000 -108.083000 1 1.000000 1 -3.000000
314 2 408.031000 -633.896000 -100.938000 1 1.000000 1 -3.000000
315 2 411.469000 -626.340000 -95.511100 1 1.000000 1 -3.000000
316 2 415.574000 -618.370000 -91.028200 1 1.000000 1 -3.000000
317 2 419.972000 -610.490000 -87.038200 1 1.000000 1 -3.000000
318 2 422.176000 -602.879000 -81.044000 1 1.000000 13 -3.000000
319 1 456.455000 -591.404000 -111.349000 1 1.000000 13 0.000000
320 3 434.608000 -610.359000 -130.940000 1 1.000000 13 0.000000
321 2 478.349000 -593.359000 -153.086000 1 1.000000 13 -3.000000
322 2 469.527000 -594.724000 -157.444000 1 1.000000 1 -3.000000
323 2 461.570000 -595.633000 -163.323000 1 1.000000 1 -3.000000
324 2 453.658000 -597.833000 -168.717000 1 1.000000 1 -3.000000
325 2 445.429000 -600.788000 -173.371000 1 1.000000 1 -3.000000
326 2 436.241000 -603.670000 -175.519000 1 1.000000 1 -3.000000
327 2 427.013000 -606.674000 -177.064000 1 1.000000 1 -3.000000
328 2 417.760000 -608.957000 -179.846000 1 1.000000 1 -3.000000
329 2 409.189000 -613.061000 -182.671000 1 1.000000 1 -3.000000
330 2 400.784000 -617.302000 -185.782000 1 1.000000 1 -3.000000
331 2 393.646000 -621.855000 -190.915000 1 1.000000 1 -3.000000
332 2 385.672000 -626.032000 -195.168000 1 1.000000 1 -3.000000
333 2 378.452000 -630.364000 -200.401000 1 1.000000 1 -3.000000
334 2 371.767000 -636.065000 -204.997000 1 1.000000 1 -3.000000
335 2 364.422000 -641.210000 -209.039000 1 1.000000 1 -3.000000
336 2 356.469000 -645.698000 -212.914000 1 1.000000 1 -3.000000
337 2 347.102000 -648.595000 -214.714000 1 1.000000 1 -3.000000
338 2 338.561000 -653.616000 -215.809000 1 1.000000 1 -3.000000
339 2 330.522000 -659.404000 -216.237000 1 1.000000 1 -3.000000
340 2 322.413000 -665.135000 -216.823000 1 1.000000 1 -3.000000
341 2 315.400000 -671.191000 -220.337000 1 1.000000 1 -3.000000
342 2 309.429000 -676.465000 -226.190000 1 1.000000 1 -3.000000
343 2 304.219000 -682.985000 -231.382000 1 1.000000 1 -3.000000
344 2 300.572000 -690.061000 -237.334000 1 1.000000 1 -3.000000
345 2 296.443000 -696.776000 -243.270000 1 1.000000 14 -3.000000
346 1 283.395000 -668.760000 -278.892000 1 1.000000 14 0.000000
347 3 279.765000 -648.156000 -250.851000 1 1.000000 14 0.000000
348 2 268.549000 -627.912000 -297.202000 1 1.000000 14 -3.000000
349 2 272.025000 -620.922000 -291.133000 1 1.000000 1 -3.000000
350 2 275.335000 -615.008000 -283.810000 1 1.000000 1 -3.000000
351 2 279.279000 -610.209000 -276.025000 1 1.000000 1 -3.000000
352 2 282.112000 -605.926000 -267.599000 1 1.000000 1 -3.000000
353 2 285.477000 -604.008000 -258.392000 1 1.000000 1 -3.000000
354 2 288.546000 -601.757000 -249.281000 1 1.000000 1 -3.000000
355 2 291.245000 -600.362000 -239.892000 1 1.000000 1 -3.000000
356 2 294.005000 -600.536000 -230.406000 1 1.000000 1 -3.000000
357 2 295.317000 -600.484000 -220.634000 1 1.000000 1 -3.000000
358 2 298.546000 -598.914000 -211.445000 1 1.000000 1 -3.000000
359 2 303.694000 -597.339000 -203.128000 1 1.000000 1 -3.000000
360 2 308.391000 -596.213000 -194.533000 1 1.000000 1 -3.000000
361 2 314.873000 -594.082000 -187.387000 1 1.000000 1 -3.000000
362 2 321.772000 -592.362000 -180.453000 1 1.000000 1 -3.000000
363 2 327.575000 -590.582000 -172.656000 1 1.000000 1 -3.000000
364 2 334.739000 -589.922000 -165.923000 1 1.000000 1 -3.000000
365 2 341.185000 -587.609000 -158.879000 1 1.000000 1 -3.000000
366 2 349.297000 -586.352000 -153.335000 1 1.000000 1 -3.000000
367 2 356.461000 -585.509000 -146.493000 1 1.000000 1 -3.000000
368 2 361.581000 -582.787000 -138.360000 1 1.000000 1 -3.000000
369 2 365.527000 -580.153000 -129.719000 1 1.000000 1 -3.000000
370 2 368.486000 -576.788000 -120.926000 1 1.000000 1 -3.000000
371 2 370.158000 -572.433000 -112.220000 1 1.000000 1 -3.000000
372 2 372.320000 -569.207000 -103.091000 1 1.000000 15 -3.000000
373 1 331.868000 -546.765000 -93.896700 1 1.000000 15 0.000000
374 3 323.182000 -568.687000 -119.771000 1 1.000000 15 0.000000
375 2 286.161000 -537.430000 -100.928000 1 1.000000 15 -3.000000
376 2 283.444000 -545.546000 -106.053000 1 1.000000 1 -3.000000
377 2 281.093000 -554.646000 -109.331000 1 1.000000 1 -3.000000
378 2 278.098000 -563.280000 -113.124000 1 1.000000 1 -3.000000
379 2 277.405000 -571.477000 -118.788000 1 1.000000 1 -3.000000
380 2 277.972000 -579.134000 -124.990000 1 1.000000 1 -3.000000
381 2 281.164000 -585.429000 -131.798000 1 1.000000 1 -3.000000
382 2 283.674000 -592.599000 -138.215000 1 1.000000 1 -3.000000
383 2 285.182000 -599.099000 -145.577000 1 1.000000 1 -3.000000
384 2 285.572000 -606.396000 -152.329000 1 1.000000 1 -3.000000
385 2 284.732000 -613.021000 -159.699000 1 1.000000 1 -3.000000
386 2 282.576000 -619.209000 -167.092000 1 1.000000 1 -3.000000
387 2 280.215000 -626.868000 -173.032000 1 1.000000 1 -3.000000
388 2 278.287000 -632.776000 -180.644000 1 1.000000 1 -3.000000
389 2 276.972000 -638.432000 -188.724000 1 1.000000 1 -3.000000
390 2 275.960000 -644.664000 -196.416000 1 1.000000 1 -3.000000
391 2 273.933000 -652.071000 -202.618000 1 1.000000 1 -3.000000
392 2 272.235000 -659.788000 -208.593000 1 1.000000 1 -3.000000
393 2 270.831000 -668.535000 -213.029000 1 1.000000 1 -3.000000
394 2 268.421000 -676.181000 -218.858000 1 1.000000 1 -3.000000
395 2 267.803000 -683.919000 -224.911000 1 1.000000 1 -3.000000
396 2 266.308000 -691.733000 -230.874000 1 1.000000 1 -3.000000
397 2 263.951000 -700.355000 -235.120000 1 1.000000 1 -3.000000
398 2 262.613000 -709.564000 -238.438000 1 1.000000 1 -3.000000
399 2 261.155000 -718.600000 -242.350000 1 1.000000 16 -3.000000
400 1 280.142000 -741.234000 -205.620000 1 1.000000 16 0.000000
401 3 270.137000 -710.610000 -191.974000 1 1.000000 16 0.000000
402 2 291.588000 -745.531000 -160.092000 1 1.000000 16 -3.000000
403 2 287.708000 -737.242000 -156.153000 1 1.000000 1 -3.000000
404 2 281.992000 -729.593000 -153.535000 1 1.000000 1 -3.000000
405 2 274.873000 -723.782000 -149.805000 1 1.000000 1 -3.000000
406 2 268.402000 -716.548000 -148.116000 1 1.000000 1 -3.000000
407 2 262.670000 -708.487000 -148.300000 1 1.000000 1 -3.000000
408 2 256.186000 -701.321000 -150.379000 1 1.000000 1 -3.000000
409 2 250.058000 -694.467000 -154.055000 1 1.000000 1 -3.000000
410 2 244.587000 -687.451000 -158.196000 1 1.000000 1 -3.000000
411 2 238.777000 -679.966000 -161.002000 1 1.000000 1 -3.000000
412 2 233.133000 -672.610000 -164.598000 1 1.000000 1 -3.000000
413 2 227.432000 -665.191000 -167.773000 1 1.000000 1 -3.000000
414 2 220.570000 -658.905000 -171.332000 1 1.000000 1 -3.000000
415 2 215.530000 -651.519000 -175.537000 1 1.000000 1 -3.000000
416 2 211.007000 -643.257000 -178.568000 1 1.000000 1 -3.000000
417 2 208.190000 -633.960000 -180.661000 1 1.000000 1 -3.000000
418 2 207.262000 -624.267000 -182.715000 1 1.000000 1 -3.000000
419 2 207.577000 -614.947000 -186.116000 1 1.000000 1 -3.000000
420 2 210.193000 -605.923000 -189.600000 1 1.000000 1 -3.000000
421 2 212.212000 -597.634000 -194.930000 1 1.000000 1 -3.000000
422 2 214.674000 -589.474000 -199.893000 1 1.000000 1 -3.000000
423 2 218.629000 -583.154000 -206.380000 1 1.000000 1 -3.000000
424 2 221.825000 -577.818000 -214.199000 1 1.000000 1 -3.000000
425 2 223.972000 -574.045000 -223.068000 1 1.000000 1 -3.000000
426 2 228.117000 -572.410000 -231.937000 1 1.000000 17 -3.000000
427 1 201.321000 -596.904000 -262.091000 1 1.000000 17 0.000000
428 3 189.068000 -606.584000 -230.721000 1 1.000000 17 0.000000
429 2 168.198000 -628.763000 -272.783000 1 1.000000 17 -3.000000
430 2 163.954000 -630.878000 -264.084000 1 1.000000 1 -3.000000
431 2 159.633000 -632.083000 -255.345000 1 1.000000 1 -3.000000
432 2 155.870000 -629.676000 -246.512000 1 1.000000 1 -3.000000
433 2 151.093000 -627.572000 -238.069000 1 1.000000 1 -3.000000
434 2 148.466000 -625.301000 -228.784000 1 1.000000 1 -3.000000
435 2 143.365000 -624.593000 -220.309000 1 1.000000 1 -3.000000
436 2 139.391000 -624.692000 -211.219000 1 1.000000 1 -3.000000
437 2 133.793000 -624.402000 -203.133000 1 1.000000 1 -3.000000
438 2 128.148000 -627.540000 -195.568000 1 1.000000 1 -3.000000
439 2 120.663000 -628.215000 -189.131000 1 1.000000 1 -3.000000
440 2 113.366000 -627.539000 -182.571000 1 1.000000 1 -3.000000
441 2 105.962000 -626.868000 -176.014000 1 1.000000 1 -3.000000
442 2 98.128600 -624.799000 -170.259000 1 1.000000 1 -3.000000
443 2 89.805400 -622.620000 -165.260000 1 1.000000 1 -3.000000
444 2 82.857500 -616.967000 -161.017000 1 1.000000 1 -3.000000
445 2 75.674400 -610.927000 -157.938000 1 1.000000 1 -3.000000
446 2 69.042900 -604.961000 -153.547000 1 1.000000 1 -3.000000
447 2 62.670200 -599.511000 -148.264000 1 1.000000 1 -3.000000
448 2 55.954800 -593.370000 -144.369000 1 1.000000 1 -3.000000
449 2 52.061200 -585.094000 -140.799000 1 1.000000 1 -3.000000
450 2 49.768200 -576.862000 -135.802000 1 1.000000 1 -3.000000
451 2 50.155700 -569.415000 -129.274000 1 1.000000 1 -3.000000
452 2 50.121300 -561.244000 -123.677000 1 1.000000 1 -3.000000
453 2 48.928200 -554.433000 -116.623000 1 1.000000 18 -3.000000
454 1 94.001300 -540.886000 -119.534000 1 1.000000 18 0.000000
455 3 92.204400 -567.062000 -142.549000 1 1.000000 18 0.000000
456 2 138.309000 -544.497000 -135.293000 1 1.000000 18 -3.000000
457 2 137.911000 -552.725000 -140.744000 1 1.000000 1 -3.000000
458 2 136.872000 -560.876000 -146.441000 1 1.000000 1 -3.000000
459 2 136.291000 -567.191000 -154.094000 1 1.000000 1 -3.000000
460 2 133.432000 -572.962000 -161.583000 1 1.000000 1 -3.000000
461 2 127.489000 -576.207000 -168.789000 1 1.000000 1 -3.000000
462 2 120.488000 -579.657000 -174.952000 1 1.000000 1 -3.000000
463 2 113.627000 -583.247000 -181.061000 1 1.000000 1 -3.000000
464 2 106.500000 -585.065000 -187.622000 1 1.000000 1 -3.000000
465 2 97.531100 -586.637000 -191.711000 1 1.000000 1 -3.000000
466 2 88.175700 -587.874000 -194.581000 1 1.000000 1 -3.000000