LAMMPS data file

4067 atoms
4067 ellipsoids
4516 bonds
8882 angles
0 dihedrals

3 atom types
5 bond types
12 angle types
0 dihedral types

-4631.092947 4670.465898 xlo xhi
-4631.092947 4670.465898 ylo yhi
-4631.092947 4670.465898 zlo zhi

Masses

1 196016.000000
2 1950.000000
3 19500.000000

Atoms

1 2 1047.520000 -990.204000 702.923000 1 1.000000 1 -3.000000
2 2 1048.980000 -982.784000 709.167000 1 1.000000 1 -3.000000
3 2 1050.030000 -974.961000 715.189000 1 1.000000 1 -3.000000
4 2 1051.060000 -967.182000 721.225000 1 1.000000 1 -3.000000
5 2 1049.510000 -961.124000 729.030000 1 1.000000 1 -3.000000
6 2 1048.530000 -955.516000 737.075000 1 1.000000 1 -3.000000
7 2 1046.690000 -948.594000 743.891000 1 1.000000 1 -3.000000
8 2 1043.700000 -941.557000 750.185000 1 1.000000 1 -3.000000
9 2 1040.230000 -935.891000 757.454000 1 1.000000 1 -3.000000
10 2 1034.720000 -930.229000 763.580000 1 1.000000 1 -3.000000
11 2 1028.680000 -928.347000 771.281000 1 1.000000 1 -3.000000
12 2 1023.240000 -927.748000 779.652000 1 1.000000 1 -3.000000
13 2 1016.610000 -928.247000 787.099000 1 1.000000 1 -3.000000
14 2 1010.540000 -928.758000 794.886000 1 1.000000 1 -3.000000
15 2 1004.460000 -930.305000 802.387000 1 1.000000 1 -3.000000
16 2 998.140000 -932.117000 809.789000 1 1.000000 1 -3.000000
17 2 992.538000 -931.333000 817.895000 1 1.000000 1 -3.000000
18 2 989.992000 -927.727000 826.807000 1 1.000000 1 -3.000000
19 2 986.000000 -924.208000 835.131000 1 1.000000 1 -3.000000
20 2 981.225000 -919.992000 842.683000 1 1.000000 1 -3.000000
21 2 977.814000 -917.116000 851.623000 1 1.000000 2 -3.000000
22 1 994.999000 -873.515000 845.983000 1 1.000000 2 0.000000
23 3 997.576000 -887.381000 814.012000 1 1.000000 2 0.000000
24 2 1011.680000 -837.769000 820.204000 1 1.000000 2 -3.000000
25 2 1010.240000 -843.338000 812.164000 1 1.000000 1 -3.000000
26 2 1007.690000 -846.998000 803.302000 1 1.000000 1 -3.000000
27 2 1003.860000 -848.663000 794.255000 1 1.000000 1 -3.000000
28 2 1000.270000 -847.798000 785.090000 1 1.000000 1 -3.000000
29 2 997.727000 -846.146000 775.619000 1 1.000000 1 -3.000000
30 2 995.884000 -841.932000 766.866000 1 1.000000 1 -3.000000
31 2 993.393000 -839.586000 757.585000 1 1.000000 1 -3.000000
32 2 992.647000 -840.018000 747.756000 1 1.000000 1 -3.000000
33 2 992.799000 -839.932000 737.884000 1 1.000000 1 -3.000000
34 2 993.825000 -840.770000 728.053000 1 1.000000 1 -3.000000
35 2 992.882000 -843.092000 718.478000 1 1.000000 1 -3.000000
36 2 993.766000 -842.916000 708.606000 1 1.000000 1 -3.000000
37 2 995.565000 -844.268000 698.976000 1 1.000000 1 -3.000000
38 2 999.080000 -846.833000 690.048000 1 1.000000 1 -3.000000
39 2 1003.160000 -848.990000 681.294000 1 1.000000 1 -3.000000
40 2 1006.530000 -852.710000 672.692000 1 1.000000 1 -3.000000
41 2 1008.110000 -856.345000 663.693000 1 1.000000 1 -3.000000
42 2 1008.630000 -861.823000 655.375000 1 1.000000 1 -3.000000
43 2 1008.490000 -868.190000 647.844000 1 1.000000 1 -3.000000
44 2 1009.090000 -874.207000 640.005000 1 1.000000 1 -3.000000
45 2 1009.430000 -880.480000 632.354000 1 1.000000 1 -3.000000
46 2 1008.480000 -888.311000 626.310000 1 1.000000 1 -3.000000
47 2 1008.180000 -896.971000 621.563000 1 1.000000 1 -3.000000
48 2 1006.240000 -905.896000 617.855000 1 1.000000 3 -3.000000
49 1 1017.820000 -935.539000 652.711000 1 1.000000 3 0.000000
50 3 1008.960000 -906.147000 669.570000 1 1.000000 3 0.000000
51 2 1023.600000 -947.234000 698.028000 1 1.000000 3 -3.000000
52 2 1027.630000 -938.547000 700.504000 1 1.000000 1 -3.000000
53 2 1031.090000 -929.339000 701.257000 1 1.000000 1 -3.000000
54 2 1036.030000 -920.972000 699.462000 1 1.000000 1 -3.000000
55 2 1038.670000 -911.397000 699.486000 1 1.000000 1 -3.000000
56 2 1039.500000 -901.545000 698.783000 1 1.000000 1 -3.000000
57 2 1039.530000 -891.821000 696.934000 1 1.000000 1 -3.000000
58 2 1039.390000 -882.385000 693.855000 1 1.000000 1 -3.000000
59 2 1040.920000 -872.807000 691.672000 1 1.000000 1 -3.000000
60 2 1044.520000 -863.936000 689.453000 1 1.000000 1 -3.000000
61 2 1046.430000 -854.341000 688.000000 1 1.000000 1 -3.000000
62 2 1051.660000 -845.873000 686.829000 1 1.000000 1 -3.000000
63 2 1055.260000 -836.593000 686.001000 1 1.000000 1 -3.000000
64 2 1058.670000 -827.298000 685.524000 1 1.000000 1 -3.000000
65 2 1059.410000 -817.447000 684.618000 1 1.000000 1 -3.000000
66 2 1059.870000 -807.566000 684.133000 1 1.000000 1 -3.000000
67 2 1059.570000 -797.758000 684.631000 1 1.000000 1 -3.000000
68 2 1057.910000 -787.965000 685.147000 1 1.000000 1 -3.000000
69 2 1057.930000 -778.045000 686.070000 1 1.000000 1 -3.000000
70 2 1059.400000 -768.351000 687.222000 1 1.000000 1 -3.000000
71 2 1063.810000 -759.932000 689.991000 1 1.000000 1 -3.000000
72 2 1068.400000 -751.321000 691.669000 1 1.000000 1 -3.000000
73 2 1074.260000 -743.747000 693.974000 1 1.000000 1 -3.000000
74 2 1081.930000 -737.965000 696.596000 1 1.000000 1 -3.000000
75 2 1089.650000 -732.218000 698.233000 1 1.000000 4 -3.000000
76 1 1121.690000 -764.390000 711.163000 1 1.000000 4 0.000000
77 3 1101.670000 -781.846000 688.376000 1 1.000000 4 0.000000
78 2 1139.430000 -808.097000 712.258000 1 1.000000 4 -3.000000
79 2 1135.960000 -813.982000 705.057000 1 1.000000 1 -3.000000
80 2 1132.260000 -817.822000 696.678000 1 1.000000 1 -3.000000
81 2 1128.120000 -820.005000 687.928000 1 1.000000 1 -3.000000
82 2 1124.170000 -820.679000 678.812000 1 1.000000 1 -3.000000
83 2 1120.420000 -819.268000 669.791000 1 1.000000 1 -3.000000
84 2 1116.450000 -814.790000 661.859000 1 1.000000 1 -3.000000
85 2 1112.830000 -809.827000 654.124000 1 1.000000 1 -3.000000
86 2 1109.200000 -804.427000 646.673000 1 1.000000 1 -3.000000
87 2 1106.330000 -797.080000 640.801000 1 1.000000 1 -3.000000
88 2 1103.170000 -790.291000 634.338000 1 1.000000 1 -3.000000
89 2 1097.820000 -783.758000 629.144000 1 1.000000 1 -3.000000
90 2 1095.740000 -776.164000 623.100000 1 1.000000 1 -3.000000
91 2 1094.300000 -767.570000 618.447000 1 1.000000 1 -3.000000
92 2 1091.880000 -760.255000 612.184000 1 1.000000 1 -3.000000
93 2 1092.460000 -753.457000 605.009000 1 1.000000 1 -3.000000
94 2 1091.560000 -746.160000 598.384000 1 1.000000 1 -3.000000
95 2 1091.590000 -740.546000 590.272000 1 1.000000 1 -3.000000
96 2 1091.390000 -734.765000 582.327000 1 1.000000 1 -3.000000
97 2 1088.280000 -728.263000 575.523000 1 1.000000 1 -3.000000
98 2 1087.240000 -723.652000 566.859000 1 1.000000 1 -3.000000
99 2 1085.970000 -719.974000 557.795000 1 1.000000 1 -3.000000
100 2 1082.740000 -716.583000 549.112000 1 1.000000 1 -3.000000
101 2 1080.850000 -712.691000 540.162000 1 1.000000 1 -3.000000
102 2 1079.090000 -710.130000 530.794000 1 1.000000 5 -3.000000
103 1 1114.070000 -734.942000 511.175000 1 1.000000 5 0.000000
104 3 1108.040000 -751.946000 541.167000 1 1.000000 5 0.000000
105 2 1145.940000 -769.771000 510.415000 1 1.000000 5 -3.000000
106 2 1140.100000 -775.679000 515.901000 1 1.000000 1 -3.000000
107 2 1134.950000 -781.503000 521.910000 1 1.000000 1 -3.000000
108 2 1130.820000 -787.464000 528.574000 1 1.000000 1 -3.000000
109 2 1124.420000 -792.262000 534.300000 1 1.000000 1 -3.000000
110 2 1118.460000 -795.392000 541.554000 1 1.000000 1 -3.000000
111 2 1112.090000 -796.075000 549.158000 1 1.000000 1 -3.000000
112 2 1106.450000 -794.823000 557.159000 1 1.000000 1 -3.000000
113 2 1101.790000 -791.256000 565.135000 1 1.000000 1 -3.000000
114 2 1096.940000 -787.311000 572.724000 1 1.000000 1 -3.000000
115 2 1089.820000 -783.306000 578.290000 1 1.000000 1 -3.000000
116 2 1082.610000 -781.166000 584.815000 1 1.000000 1 -3.000000
117 2 1075.830000 -777.641000 591.022000 1 1.000000 1 -3.000000
118 2 1067.920000 -773.787000 595.472000 1 1.000000 1 -3.000000
119 2 1059.410000 -770.685000 599.401000 1 1.000000 1 -3.000000
120 2 1050.450000 -770.193000 603.671000 1 1.000000 1 -3.000000
121 2 1040.760000 -770.178000 605.992000 1 1.000000 1 -3.000000
122 2 1031.080000 -768.760000 607.601000 1 1.000000 1 -3.000000
123 2 1021.760000 -765.734000 609.381000 1 1.000000 1 -3.000000
124 2 1012.810000 -761.570000 608.778000 1 1.000000 1 -3.000000
125 2 1004.430000 -756.636000 610.756000 1 1.000000 1 -3.000000
126 2 997.236000 -750.010000 611.672000 1 1.000000 1 -3.000000
127 2 990.905000 -742.487000 612.458000 1 1.000000 1 -3.000000
128 2 987.162000 -733.303000 611.855000 1 1.000000 1 -3.000000
129 2 983.604000 -724.077000 611.456000 1 1.000000 6 -3.000000
130 1 992.743000 -712.988000 566.481000 1 1.000000 6 0.000000
131 3 1003.440000 -746.228000 568.751000 1 1.000000 6 0.000000
132 2 1005.410000 -723.432000 522.197000 1 1.000000 6 -3.000000
133 2 1002.070000 -732.534000 524.085000 1 1.000000 1 -3.000000
134 2 999.776000 -742.003000 525.492000 1 1.000000 1 -3.000000
135 2 994.132000 -750.138000 525.789000 1 1.000000 1 -3.000000
136 2 989.996000 -759.115000 525.370000 1 1.000000 1 -3.000000
137 2 985.150000 -767.744000 524.622000 1 1.000000 1 -3.000000
138 2 979.508000 -775.833000 524.348000 1 1.000000 1 -3.000000
139 2 973.164000 -783.327000 523.257000 1 1.000000 1 -3.000000
140 2 965.918000 -790.023000 522.258000 1 1.000000 1 -3.000000
141 2 958.995000 -797.107000 523.149000 1 1.000000 1 -3.000000
142 2 951.692000 -803.591000 524.603000 1 1.000000 1 -3.000000
143 2 943.448000 -808.933000 525.378000 1 1.000000 1 -3.000000
144 2 935.802000 -815.105000 524.004000 1 1.000000 1 -3.000000
145 2 928.696000 -821.613000 521.780000 1 1.000000 1 -3.000000
146 2 921.110000 -827.907000 521.408000 1 1.000000 1 -3.000000
147 2 914.266000 -834.631000 518.667000 1 1.000000 1 -3.000000
148 2 905.505000 -839.031000 517.582000 1 1.000000 1 -3.000000
149 2 897.081000 -844.214000 516.302000 1 1.000000 1 -3.000000
150 2 887.481000 -845.929000 514.237000 1 1.000000 1 -3.000000
151 2 877.723000 -846.629000 513.249000 1 1.000000 1 -3.000000
152 2 868.361000 -849.791000 513.288000 1 1.000000 1 -3.000000
153 2 859.094000 -852.431000 515.732000 1 1.000000 1 -3.000000
154 2 849.945000 -855.550000 517.624000 1 1.000000 1 -3.000000
155 2 840.928000 -859.280000 519.652000 1 1.000000 1 -3.000000
156 2 833.494000 -863.054000 524.930000 1 1.000000 7 -3.000000
157 1 796.783000 -834.146000 531.633000 1 1.000000 7 0.000000
158 3 815.386000 -817.900000 506.857000 1 1.000000 7 0.000000
159 2 770.909000 -795.821000 522.060000 1 1.000000 7 -3.000000
160 2 774.200000 -794.792000 512.719000 1 1.000000 1 -3.000000
161 2 777.929000 -792.609000 503.902000 1 1.000000 1 -3.000000
162 2 781.188000 -791.905000 494.618000 1 1.000000 1 -3.000000
163 2 785.437000 -792.657000 485.715000 1 1.000000 1 -3.000000
164 2 791.006000 -795.453000 477.944000 1 1.000000 1 -3.000000
165 2 796.234000 -798.265000 470.031000 1 1.000000 1 -3.000000
166 2 797.806000 -801.458000 460.809000 1 1.000000 1 -3.000000
167 2 800.870000 -806.948000 453.082000 1 1.000000 1 -3.000000
168 2 805.361000 -814.058000 447.825000 1 1.000000 1 -3.000000
169 2 809.481000 -822.087000 443.675000 1 1.000000 1 -3.000000
170 2 814.872000 -829.086000 439.201000 1 1.000000 1 -3.000000
171 2 819.022000 -837.339000 435.557000 1 1.000000 1 -3.000000
172 2 821.963000 -846.708000 434.130000 1 1.000000 1 -3.000000
173 2 823.158000 -856.463000 433.190000 1 1.000000 1 -3.000000
174 2 823.167000 -866.363000 434.013000 1 1.000000 1 -3.000000
175 2 823.582000 -876.016000 435.938000 1 1.000000 1 -3.000000
176 2 825.419000 -884.749000 440.215000 1 1.000000 1 -3.000000
177 2 826.710000 -891.487000 447.400000 1 1.000000 1 -3.000000
178 2 826.315000 -895.722000 456.218000 1 1.000000 1 -3.000000
179 2 826.656000 -901.715000 464.133000 1 1.000000 1 -3.000000
180 2 829.233000 -908.821000 470.556000 1 1.000000 1 -3.000000
181 2 833.167000 -915.958000 476.108000 1 1.000000 1 -3.000000
182 2 836.045000 -923.710000 481.537000 1 1.000000 1 -3.000000
183 2 837.797000 -932.164000 486.413000 1 1.000000 8 -3.000000
184 1 863.705000 -952.182000 452.449000 1 1.000000 8 0.000000
185 3 861.735000 -918.734000 442.332000 1 1.000000 8 0.000000
186 2 889.423000 -951.461000 412.870000 1 1.000000 8 -3.000000
187 2 889.641000 -941.558000 411.948000 1 1.000000 1 -3.000000
188 2 890.655000 -931.760000 410.758000 1 1.000000 1 -3.000000
189 2 892.431000 -922.052000 410.642000 1 1.000000 1 -3.000000
190 2 893.984000 -912.161000 410.307000 1 1.000000 1 -3.000000
191 2 892.943000 -902.509000 412.206000 1 1.000000 1 -3.000000
192 2 892.437000 -894.365000 417.867000 1 1.000000 1 -3.000000
193 2 891.876000 -887.302000 424.772000 1 1.000000 1 -3.000000
194 2 891.721000 -879.087000 430.322000 1 1.000000 1 -3.000000
195 2 895.517000 -871.427000 435.222000 1 1.000000 1 -3.000000
196 2 899.055000 -863.207000 439.313000 1 1.000000 1 -3.000000
197 2 904.705000 -855.179000 440.218000 1 1.000000 1 -3.000000
198 2 911.632000 -848.182000 439.980000 1 1.000000 1 -3.000000
199 2 918.310000 -840.902000 440.470000 1 1.000000 1 -3.000000
200 2 924.969000 -834.032000 442.884000 1 1.000000 1 -3.000000
201 2 932.482000 -827.892000 445.103000 1 1.000000 1 -3.000000
202 2 937.660000 -819.444000 446.044000 1 1.000000 1 -3.000000
203 2 944.839000 -813.121000 448.592000 1 1.000000 1 -3.000000
204 2 952.752000 -807.666000 450.742000 1 1.000000 1 -3.000000
205 2 961.177000 -802.453000 450.194000 1 1.000000 1 -3.000000
206 2 968.899000 -796.159000 450.515000 1 1.000000 1 -3.000000
207 2 975.901000 -789.238000 449.461000 1 1.000000 1 -3.000000
208 2 980.961000 -781.173000 446.908000 1 1.000000 1 -3.000000
209 2 987.170000 -773.569000 445.619000 1 1.000000 1 -3.000000
210 2 990.642000 -764.440000 443.940000 1 1.000000 9 -3.000000
211 1 1005.140000 -756.782000 488.197000 1 1.000000 9 0.000000
212 3 992.687000 -789.396000 489.459000 1 1.000000 9 0.000000
213 2 1013.550000 -769.909000 532.745000 1 1.000000 9 -3.000000
214 2 1010.560000 -779.357000 532.052000 1 1.000000 1 -3.000000
215 2 1006.230000 -788.127000 533.007000 1 1.000000 1 -3.000000
216 2 1002.600000 -797.327000 533.028000 1 1.000000 1 -3.000000
217 2 998.714000 -806.060000 530.298000 1 1.000000 1 -3.000000
218 2 993.601000 -814.075000 527.568000 1 1.000000 1 -3.000000
219 2 988.331000 -820.475000 522.247000 1 1.000000 1 -3.000000
220 2 983.186000 -826.928000 516.926000 1 1.000000 1 -3.000000
221 2 979.034000 -834.178000 511.704000 1 1.000000 1 -3.000000
222 2 972.140000 -840.065000 507.729000 1 1.000000 1 -3.000000
223 2 966.443000 -846.305000 502.458000 1 1.000000 1 -3.000000
224 2 959.737000 -852.117000 498.115000 1 1.000000 1 -3.000000
225 2 954.526000 -860.063000 495.357000 1 1.000000 1 -3.000000
226 2 949.679000 -868.604000 495.034000 1 1.000000 1 -3.000000
227 2 943.587000 -876.492000 494.744000 1 1.000000 1 -3.000000
228 2 936.132000 -882.865000 495.818000 1 1.000000 1 -3.000000
229 2 929.474000 -890.048000 497.377000 1 1.000000 1 -3.000000
230 2 922.311000 -896.676000 498.854000 1 1.000000 1 -3.000000
231 2 915.482000 -902.815000 502.588000 1 1.000000 1 -3.000000
232 2 909.653000 -910.735000 502.903000 1 1.000000 1 -3.000000
233 2 903.192000 -918.290000 503.862000 1 1.000000 1 -3.000000
234 2 896.712000 -925.507000 505.557000 1 1.000000 1 -3.000000
235 2 889.233000 -931.915000 504.551000 1 1.000000 1 -3.000000
236 2 881.500000 -937.596000 501.982000 1 1.000000 1 -3.000000
237 2 873.295000 -942.534000 499.752000 1 1.000000 10 -3.000000
238 1 839.947000 -919.087000 523.537000 1 1.000000 10 0.000000
239 3 866.311000 -896.036000 521.894000 1 1.000000 10 0.000000
240 2 823.259000 -881.905000 547.249000 1 1.000000 10 -3.000000
241 2 831.791000 -877.686000 549.989000 1 1.000000 1 -3.000000
242 2 840.284000 -875.543000 554.552000 1 1.000000 1 -3.000000
243 2 848.448000 -876.696000 560.102000 1 1.000000 1 -3.000000
244 2 855.241000 -878.071000 567.154000 1 1.000000 1 -3.000000
245 2 861.535000 -879.349000 574.701000 1 1.000000 1 -3.000000
246 2 869.193000 -879.795000 580.967000 1 1.000000 1 -3.000000
247 2 875.830000 -881.316000 588.216000 1 1.000000 1 -3.000000
248 2 883.538000 -883.516000 594.033000 1 1.000000 1 -3.000000
249 2 892.475000 -885.658000 597.649000 1 1.000000 1 -3.000000
250 2 900.004000 -887.610000 603.717000 1 1.000000 1 -3.000000
251 2 908.351000 -889.121000 608.853000 1 1.000000 1 -3.000000
252 2 916.051000 -889.191000 615.026000 1 1.000000 1 -3.000000
253 2 922.523000 -890.540000 622.356000 1 1.000000 1 -3.000000
254 2 927.016000 -893.636000 630.686000 1 1.000000 1 -3.000000
255 2 931.780000 -896.901000 638.796000 1 1.000000 1 -3.000000
256 2 937.124000 -901.652000 645.592000 1 1.000000 1 -3.000000
257 2 944.086000 -904.950000 651.789000 1 1.000000 1 -3.000000
258 2 951.865000 -907.845000 657.070000 1 1.000000 1 -3.000000
259 2 959.376000 -910.832000 662.722000 1 1.000000 1 -3.000000
260 2 964.586000 -915.596000 669.665000 1 1.000000 1 -3.000000
261 2 968.866000 -922.794000 674.916000 1 1.000000 1 -3.000000
262 2 973.342000 -929.245000 680.986000 1 1.000000 1 -3.000000
263 2 977.311000 -933.925000 688.679000 1 1.000000 1 -3.000000
264 2 981.502000 -937.589000 696.864000 1 1.000000 11 -3.000000
265 1 944.023000 -936.285000 725.494000 1 1.000000 11 0.000000
266 3 930.292000 -928.801000 694.146000 1 1.000000 11 0.000000
267 2 898.097000 -931.119000 734.784000 1 1.000000 11 -3.000000
268 2 894.406000 -932.355000 725.677000 1 1.000000 1 -3.000000
269 2 890.320000 -934.285000 716.838000 1 1.000000 1 -3.000000
270 2 887.639000 -935.582000 707.440000 1 1.000000 1 -3.000000
271 2 886.622000 -935.290000 697.542000 1 1.000000 1 -3.000000
272 2 887.178000 -934.763000 687.649000 1 1.000000 1 -3.000000
273 2 887.835000 -933.762000 677.749000 1 1.000000 1 -3.000000
274 2 888.136000 -935.421000 667.957000 1 1.000000 1 -3.000000
275 2 888.202000 -935.049000 658.052000 1 1.000000 1 -3.000000
276 2 888.190000 -937.471000 648.465000 1 1.000000 1 -3.000000
277 2 889.700000 -941.650000 639.604000 1 1.000000 1 -3.000000
278 2 890.022000 -944.736000 630.263000 1 1.000000 1 -3.000000
279 2 890.855000 -949.096000 621.380000 1 1.000000 1 -3.000000
280 2 892.599000 -954.048000 612.892000 1 1.000000 1 -3.000000
281 2 894.353000 -960.033000 605.230000 1 1.000000 1 -3.000000
282 2 894.964000 -966.122000 597.448000 1 1.000000 1 -3.000000
283 2 895.099000 -972.000000 589.540000 1 1.000000 1 -3.000000
284 2 895.549000 -978.947000 582.501000 1 1.000000 1 -3.000000
285 2 896.706000 -986.048000 575.695000 1 1.000000 1 -3.000000
286 2 899.448000 -994.661000 571.430000 1 1.000000 1 -3.000000
287 2 901.851000 -1003.670000 568.040000 1 1.000000 1 -3.000000
288 2 902.447000 -1013.000000 564.675000 1 1.000000 1 -3.000000
289 2 900.108000 -1021.990000 561.122000 1 1.000000 1 -3.000000
290 2 900.671000 -1029.930000 555.313000 1 1.000000 1 -3.000000
291 2 900.413000 -1039.190000 551.764000 1 1.000000 12 -3.000000
292 1 858.047000 -1034.150000 531.584000 1 1.000000 12 0.000000
293 3 867.104000 -1001.410000 539.468000 1 1.000000 12 0.000000
294 2 821.128000 -1008.930000 516.721000 1 1.000000 12 -3.000000
295 2 824.768000 -999.874000 517.078000 1 1.000000 1 -3.000000
296 2 828.332000 -990.669000 516.466000 1 1.000000 1 -3.000000
297 2 833.885000 -982.503000 516.108000 1 1.000000 1 -3.000000
298 2 839.478000 -974.570000 517.876000 1 1.000000 1 -3.000000
299 2 844.998000 -966.416000 519.347000 1 1.000000 1 -3.000000
300 2 850.207000 -958.872000 523.070000 1 1.000000 1 -3.000000
301 2 855.275000 -951.230000 526.769000 1 1.000000 1 -3.000000
302 2 859.225000 -943.774000 532.129000 1 1.000000 1 -3.000000
303 2 862.312000 -936.713000 538.335000 1 1.000000 1 -3.000000
304 2 866.121000 -927.863000 540.824000 1 1.000000 1 -3.000000
305 2 870.386000 -918.941000 541.185000 1 1.000000 1 -3.000000
306 2 871.669000 -909.154000 541.950000 1 1.000000 1 -3.000000
307 2 873.244000 -899.498000 541.080000 1 1.000000 1 -3.000000
308 2 875.418000 -889.901000 540.200000 1 1.000000 1 -3.000000
309 2 876.577000 -880.003000 539.650000 1 1.000000 1 -3.000000
310 2 873.650000 -870.663000 537.727000 1 1.000000 1 -3.000000
311 2 870.249000 -861.482000 536.569000 1 1.000000 1 -3.000000
312 2 866.650000 -852.819000 533.425000 1 1.000000 1 -3.000000
313 2 862.753000 -844.533000 529.908000 1 1.000000 1 -3.000000
314 2 859.986000 -837.557000 523.485000 1 1.000000 1 -3.000000
315 2 859.054000 -831.805000 515.506000 1 1.000000 1 -3.000000
316 2 858.468000 -826.320000 507.261000 1 1.000000 1 -3.000000
317 2 858.926000 -820.310000 499.422000 1 1.000000 1 -3.000000
318 2 858.080000 -812.015000 494.188000 1 1.000000 13 -3.000000
319 1 860.924000 -833.457000 452.226000 1 1.000000 13 0.000000
320 3 845.349000 -857.472000 472.284000 1 1.000000 13 0.000000
321 2 852.892000 -868.949000 422.351000 1 1.000000 13 -3.000000
322 2 843.007000 -869.610000 422.266000 1 1.000000 1 -3.000000
323 2 833.795000 -872.565000 420.061000 1 1.000000 1 -3.000000
324 2 824.597000 -874.056000 416.657000 1 1.000000 1 -3.000000
325 2 816.327000 -876.087000 411.674000 1 1.000000 1 -3.000000
326 2 810.342000 -879.167000 404.406000 1 1.000000 1 -3.000000
327 2 806.702000 -883.424000 396.285000 1 1.000000 1 -3.000000
328 2 803.248000 -887.130000 387.826000 1 1.000000 1 -3.000000
329 2 799.797000 -890.994000 379.370000 1 1.000000 1 -3.000000
330 2 796.731000 -895.403000 371.004000 1 1.000000 1 -3.000000
331 2 791.773000 -898.703000 363.110000 1 1.000000 1 -3.000000
332 2 786.308000 -902.160000 355.497000 1 1.000000 1 -3.000000
333 2 782.170000 -906.383000 347.576000 1 1.000000 1 -3.000000
334 2 776.363000 -907.938000 339.647000 1 1.000000 1 -3.000000
335 2 772.153000 -908.643000 330.838000 1 1.000000 1 -3.000000
336 2 766.328000 -907.264000 322.914000 1 1.000000 1 -3.000000
337 2 761.872000 -907.082000 314.091000 1 1.000000 1 -3.000000
338 2 757.041000 -904.918000 305.777000 1 1.000000 1 -3.000000
339 2 752.037000 -906.039000 297.354000 1 1.000000 1 -3.000000
340 2 749.926000 -905.116000 287.705000 1 1.000000 1 -3.000000
341 2 747.761000 -904.162000 278.094000 1 1.000000 1 -3.000000
342 2 749.223000 -903.228000 268.352000 1 1.000000 1 -3.000000
343 2 748.858000 -904.127000 258.543000 1 1.000000 1 -3.000000
344 2 748.529000 -906.406000 248.936000 1 1.000000 1 -3.000000
345 2 747.805000 -906.532000 239.046000 1 1.000000 14 -3.000000
346 1 742.008000 -953.259000 241.990000 1 1.000000 14 0.000000
347 3 723.767000 -941.235000 269.445000 1 1.000000 14 0.000000
348 2 723.349000 -992.344000 260.688000 1 1.000000 14 -3.000000
349 2 720.335000 -988.103000 269.155000 1 1.000000 1 -3.000000
350 2 712.872000 -984.139000 274.383000 1 1.000000 1 -3.000000
351 2 704.939000 -979.804000 278.332000 1 1.000000 1 -3.000000
352 2 697.449000 -974.015000 281.426000 1 1.000000 1 -3.000000
353 2 689.707000 -968.079000 283.079000 1 1.000000 1 -3.000000
354 2 680.915000 -963.628000 283.912000 1 1.000000 1 -3.000000
355 2 672.657000 -958.212000 282.993000 1 1.000000 1 -3.000000
356 2 664.768000 -953.167000 279.852000 1 1.000000 1 -3.000000
357 2 657.500000 -946.802000 277.392000 1 1.000000 1 -3.000000
358 2 650.186000 -941.173000 273.841000 1 1.000000 1 -3.000000
359 2 643.604000 -935.323000 269.142000 1 1.000000 1 -3.000000
360 2 636.249000 -930.542000 264.524000 1 1.000000 1 -3.000000
361 2 628.412000 -926.884000 259.797000 1 1.000000 1 -3.000000
362 2 621.448000 -923.776000 253.412000 1 1.000000 1 -3.000000
363 2 614.608000 -922.105000 246.391000 1 1.000000 1 -3.000000
364 2 608.212000 -919.847000 239.273000 1 1.000000 1 -3.000000
365 2 605.489000 -917.356000 229.988000 1 1.000000 1 -3.000000
366 2 602.480000 -915.634000 220.684000 1 1.000000 1 -3.000000
367 2 598.949000 -915.574000 211.488000 1 1.000000 1 -3.000000
368 2 595.104000 -913.912000 202.565000 1 1.000000 1 -3.000000
369 2 589.377000 -911.458000 194.842000 1 1.000000 1 -3.000000
370 2 582.105000 -911.575000 188.005000 1 1.000000 1 -3.000000
371 2 574.432000 -912.283000 181.908000 1 1.000000 1 -3.000000
372 2 566.279000 -912.630000 176.324000 1 1.000000 15 -3.000000
373 1 549.381000 -954.954000 188.426000 1 1.000000 15 0.000000
374 3 567.472000 -945.243000 216.827000 1 1.000000 15 0.000000
375 2 545.127000 -992.077000 217.292000 1 1.000000 15 -3.000000
376 2 543.345000 -987.308000 225.733000 1 1.000000 1 -3.000000
377 2 544.199000 -982.487000 234.307000 1 1.000000 1 -3.000000
378 2 545.665000 -975.995000 241.633000 1 1.000000 1 -3.000000
379 2 547.714000 -969.163000 248.394000 1 1.000000 1 -3.000000
380 2 552.151000 -963.108000 254.866000 1 1.000000 1 -3.000000
381 2 556.343000 -955.311000 259.247000 1 1.000000 1 -3.000000
382 2 561.360000 -947.370000 262.170000 1 1.000000 1 -3.000000
383 2 566.690000 -939.129000 263.190000 1 1.000000 1 -3.000000
384 2 570.994000 -930.218000 262.839000 1 1.000000 1 -3.000000
385 2 574.832000 -921.074000 263.092000 1 1.000000 1 -3.000000
386 2 576.181000 -911.436000 264.729000 1 1.000000 1 -3.000000
387 2 577.636000 -901.621000 265.340000 1 1.000000 1 -3.000000
388 2 576.766000 -891.777000 264.179000 1 1.000000 1 -3.000000
389 2 576.397000 -882.194000 261.574000 1 1.000000 1 -3.000000
390 2 577.949000 -872.684000 259.305000 1 1.000000 1 -3.000000
391 2 577.731000 -863.103000 256.758000 1 1.000000 1 -3.000000
392 2 576.627000 -853.252000 256.309000 1 1.000000 1 -3.000000
393 2 572.999000 -844.265000 254.253000 1 1.000000 1 -3.000000
394 2 571.612000 -835.138000 250.565000 1 1.000000 1 -3.000000
395 2 570.499000 -826.886000 245.322000 1 1.000000 1 -3.000000
396 2 566.775000 -819.444000 239.940000 1 1.000000 1 -3.000000
397 2 562.422000 -812.189000 234.722000 1 1.000000 1 -3.000000
398 2 558.202000 -807.241000 227.269000 1 1.000000 1 -3.000000
399 2 554.238000 -803.587000 218.965000 1 1.000000 16 -3.000000
400 1 510.467000 -820.415000 224.438000 1 1.000000 16 0.000000
401 3 527.036000 -831.489000 253.258000 1 1.000000 16 0.000000
402 2 477.209000 -844.636000 247.600000 1 1.000000 16 -3.000000
403 2 480.718000 -849.005000 255.674000 1 1.000000 1 -3.000000
404 2 484.726000 -850.445000 264.636000 1 1.000000 1 -3.000000
405 2 490.318000 -849.717000 272.766000 1 1.000000 1 -3.000000
406 2 495.954000 -847.764000 280.660000 1 1.000000 1 -3.000000
407 2 502.221000 -843.940000 287.253000 1 1.000000 1 -3.000000
408 2 509.175000 -841.147000 293.691000 1 1.000000 1 -3.000000
409 2 516.467000 -836.174000 298.258000 1 1.000000 1 -3.000000
410 2 522.486000 -832.535000 305.142000 1 1.000000 1 -3.000000
411 2 530.112000 -829.525000 310.724000 1 1.000000 1 -3.000000
412 2 537.838000 -827.097000 316.358000 1 1.000000 1 -3.000000
413 2 545.734000 -825.461000 322.026000 1 1.000000 1 -3.000000
414 2 551.811000 -823.422000 329.550000 1 1.000000 1 -3.000000
415 2 555.234000 -823.504000 338.815000 1 1.000000 1 -3.000000
416 2 559.649000 -823.991000 347.703000 1 1.000000 1 -3.000000
417 2 563.890000 -823.846000 356.760000 1 1.000000 1 -3.000000
418 2 568.189000 -826.650000 365.275000 1 1.000000 1 -3.000000
419 2 573.146000 -829.983000 373.261000 1 1.000000 1 -3.000000
420 2 578.675000 -833.075000 380.926000 1 1.000000 1 -3.000000
421 2 584.472000 -840.133000 384.816000 1 1.000000 1 -3.000000
422 2 591.335000 -846.317000 388.459000 1 1.000000 1 -3.000000
423 2 597.999000 -850.629000 394.293000 1 1.000000 1 -3.000000
424 2 602.606000 -854.862000 401.984000 1 1.000000 1 -3.000000
425 2 608.013000 -857.918000 409.762000 1 1.000000 1 -3.000000
426 2 614.942000 -861.272000 415.985000 1 1.000000 17 -3.000000
427 1 641.973000 -822.828000 411.807000 1 1.000000 17 0.000000
428 3 609.661000 -810.277000 407.066000 1 1.000000 17 0.000000
429 2 648.976000 -776.465000 406.757000 1 1.000000 17 -3.000000
430 2 640.183000 -774.741000 410.892000 1 1.000000 1 -3.000000
431 2 630.865000 -773.011000 413.761000 1 1.000000 1 -3.000000
432 2 622.600000 -769.143000 417.702000 1 1.000000 1 -3.000000
433 2 614.007000 -768.145000 422.355000 1 1.000000 1 -3.000000
434 2 605.421000 -767.868000 427.440000 1 1.000000 1 -3.000000
435 2 598.429000 -767.734000 434.422000 1 1.000000 1 -3.000000
436 2 592.431000 -765.829000 442.079000 1 1.000000 1 -3.000000
437 2 586.222000 -763.427000 449.447000 1 1.000000 1 -3.000000
438 2 580.018000 -759.324000 455.876000 1 1.000000 1 -3.000000
439 2 573.621000 -755.069000 462.183000 1 1.000000 1 -3.000000
440 2 567.373000 -751.767000 469.076000 1 1.000000 1 -3.000000
441 2 560.471000 -747.524000 474.801000 1 1.000000 1 -3.000000
442 2 552.490000 -743.047000 478.720000 1 1.000000 1 -3.000000
443 2 545.402000 -738.480000 484.003000 1 1.000000 1 -3.000000
444 2 537.482000 -734.637000 488.572000 1 1.000000 1 -3.000000
445 2 530.742000 -730.769000 494.929000 1 1.000000 1 -3.000000
446 2 523.933000 -727.758000 501.461000 1 1.000000 1 -3.000000
447 2 515.404000 -724.240000 504.970000 1 1.000000 1 -3.000000
448 2 505.969000 -721.896000 506.639000 1 1.000000 1 -3.000000
449 2 496.305000 -720.443000 508.289000 1 1.000000 1 -3.000000
450 2 487.390000 -717.551000 511.244000 1 1.000000 1 -3.000000
451 2 478.251000 -715.852000 514.686000 1 1.000000 1 -3.000000
452 2 470.158000 -715.732000 520.240000 1 1.000000 1 -3.000000
453 2 462.223000 -716.087000 526.170000 1 1.000000 18 -3.000000
454 1 480.701000 -689.847000 560.687000 1 1.000000 18 0.000000
455 3 505.559000 -689.357000 536.198000 1 1.000000 18 0.000000
456 2 514.217000 -662.714000 579.869000 1 1.000000 18 -3.000000
457 2 518.692000 -660.580000 571.342000 1 1.000000 1 -3.000000
458 2 522.719000 -656.478000 563.321000 1 1.000000 1 -3.000000
459 2 527.211000 -654.032000 554.890000 1 1.000000 1 -3.000000
460 2 532.815000 -653.258000 546.863000 1 1.000000 1 -3.000000
461 2 537.882000 -651.214000 538.543000 1 1.000000 1 -3.000000
462 2 544.451000 -648.659000 531.622000 1 1.000000 1 -3.000000
463 2 550.613000 -643.138000 526.077000 1 1.000000 1 -3.000000
464 2 557.509000 -638.668000 520.417000 1 1.000000 1 -3.000000
465 2 565.406000 -635.168000 515.603000 1 1.000000 1 -3.000000
466 2 572.977000 -630.654000 511.129000 1 1.000000 1 -3.000000
467 2 580.740000 -627.719000 505.815000 1 1.000000 1 -3.000000
468 2 588.861000 -624.392000 501.111000 1 1.000000 1 -3.000000
469 2 597.220000 -621.782000 496.440000 1 1.000000 1 -3.000000
470 2 604.956000 -621.390000 490.311000 1 1.000000 1 -3.000000
471 2 613.567000 -621.182000 485.465000 1 1.000000 1 -3.000000