LAMMPS data file

4067 atoms
4067 ellipsoids
4516 bonds
8882 angles
0 dihedrals

3 atom types
5 bond types
12 angle types
0 dihedral types

-4631.092947 4670.465898 xlo xhi
-4631.092947 4670.465898 ylo yhi
-4631.092947 4670.465898 zlo zhi

Masses

1 196016.000000
2 1950.000000
3 19500.000000

Atoms

1 2 561.583000 -827.356000 719.628000 1 1.000000 1 -3.000000
2 2 561.855000 -821.911000 727.872000 1 1.000000 1 -3.000000
3 2 563.995000 -817.636000 736.567000 1 1.000000 1 -3.000000
4 2 568.199000 -815.796000 745.365000 1 1.000000 1 -3.000000
5 2 571.160000 -812.566000 754.317000 1 1.000000 1 -3.000000
6 2 571.633000 -808.050000 763.049000 1 1.000000 1 -3.000000
7 2 572.232000 -804.123000 772.065000 1 1.000000 1 -3.000000
8 2 571.717000 -800.969000 781.424000 1 1.000000 1 -3.000000
9 2 569.562000 -797.701000 790.606000 1 1.000000 1 -3.000000
10 2 567.097000 -793.745000 799.397000 1 1.000000 1 -3.000000
11 2 564.063000 -789.959000 808.073000 1 1.000000 1 -3.000000
12 2 561.742000 -788.630000 817.632000 1 1.000000 1 -3.000000
13 2 558.198000 -786.476000 826.627000 1 1.000000 1 -3.000000
14 2 553.909000 -784.667000 835.351000 1 1.000000 1 -3.000000
15 2 547.486000 -782.116000 842.564000 1 1.000000 1 -3.000000
16 2 540.658000 -780.753000 849.551000 1 1.000000 1 -3.000000
17 2 534.094000 -778.800000 856.586000 1 1.000000 1 -3.000000
18 2 528.255000 -779.341000 864.641000 1 1.000000 1 -3.000000
19 2 523.060000 -779.284000 873.138000 1 1.000000 1 -3.000000
20 2 516.749000 -781.118000 880.490000 1 1.000000 1 -3.000000
21 2 510.879000 -783.622000 888.023000 1 1.000000 2 -3.000000
22 1 539.824000 -763.816000 919.528000 1 1.000000 2 0.000000
23 3 556.881000 -759.763000 889.257000 1 1.000000 2 0.000000
24 2 579.583000 -741.978000 932.439000 1 1.000000 2 -3.000000
25 2 583.528000 -740.280000 923.536000 1 1.000000 1 -3.000000
26 2 587.997000 -739.925000 914.661000 1 1.000000 1 -3.000000
27 2 590.479000 -737.567000 905.365000 1 1.000000 1 -3.000000
28 2 591.700000 -734.846000 895.899000 1 1.000000 1 -3.000000
29 2 592.352000 -734.224000 885.988000 1 1.000000 1 -3.000000
30 2 590.395000 -733.964000 876.267000 1 1.000000 1 -3.000000
31 2 588.057000 -733.436000 866.668000 1 1.000000 1 -3.000000
32 2 586.705000 -731.632000 857.011000 1 1.000000 1 -3.000000
33 2 585.349000 -729.373000 847.473000 1 1.000000 1 -3.000000
34 2 586.234000 -724.793000 838.737000 1 1.000000 1 -3.000000
35 2 586.234000 -721.681000 829.324000 1 1.000000 1 -3.000000
36 2 584.163000 -720.621000 819.659000 1 1.000000 1 -3.000000
37 2 583.665000 -720.688000 809.749000 1 1.000000 1 -3.000000
38 2 581.329000 -718.759000 800.333000 1 1.000000 1 -3.000000
39 2 575.689000 -717.013000 792.409000 1 1.000000 1 -3.000000
40 2 567.696000 -714.792000 787.039000 1 1.000000 1 -3.000000
41 2 559.171000 -715.085000 782.030000 1 1.000000 1 -3.000000
42 2 550.406000 -716.997000 777.918000 1 1.000000 1 -3.000000
43 2 540.910000 -719.228000 775.895000 1 1.000000 1 -3.000000
44 2 530.999000 -720.136000 776.041000 1 1.000000 1 -3.000000
45 2 521.381000 -721.453000 777.942000 1 1.000000 1 -3.000000
46 2 512.938000 -724.306000 782.263000 1 1.000000 1 -3.000000
47 2 503.662000 -726.043000 785.037000 1 1.000000 1 -3.000000
48 2 494.455000 -726.948000 788.643000 1 1.000000 3 -3.000000
49 1 508.727000 -737.688000 832.333000 1 1.000000 3 0.000000
50 3 534.846000 -718.001000 819.983000 1 1.000000 3 0.000000
51 2 539.258000 -736.357000 868.294000 1 1.000000 3 -3.000000
52 2 543.918000 -728.387000 864.794000 1 1.000000 1 -3.000000
53 2 547.847000 -719.542000 862.387000 1 1.000000 1 -3.000000
54 2 552.273000 -710.856000 860.401000 1 1.000000 1 -3.000000
55 2 556.866000 -703.042000 856.508000 1 1.000000 1 -3.000000
56 2 558.885000 -695.152000 850.842000 1 1.000000 1 -3.000000
57 2 556.954000 -687.965000 844.391000 1 1.000000 1 -3.000000
58 2 556.604000 -680.018000 838.571000 1 1.000000 1 -3.000000
59 2 556.294000 -672.443000 832.189000 1 1.000000 1 -3.000000
60 2 556.468000 -665.416000 825.176000 1 1.000000 1 -3.000000
61 2 555.545000 -658.647000 817.936000 1 1.000000 1 -3.000000
62 2 551.592000 -653.325000 810.689000 1 1.000000 1 -3.000000
63 2 550.354000 -649.987000 801.492000 1 1.000000 1 -3.000000
64 2 546.331000 -646.591000 793.065000 1 1.000000 1 -3.000000
65 2 540.395000 -644.966000 785.372000 1 1.000000 1 -3.000000
66 2 534.469000 -646.540000 777.556000 1 1.000000 1 -3.000000
67 2 527.555000 -649.660000 771.135000 1 1.000000 1 -3.000000
68 2 520.443000 -651.240000 764.321000 1 1.000000 1 -3.000000
69 2 512.536000 -651.187000 758.287000 1 1.000000 1 -3.000000
70 2 503.593000 -650.439000 754.037000 1 1.000000 1 -3.000000
71 2 494.842000 -647.914000 750.246000 1 1.000000 1 -3.000000
72 2 486.050000 -645.462000 746.499000 1 1.000000 1 -3.000000
73 2 476.245000 -643.757000 746.439000 1 1.000000 1 -3.000000
74 2 466.440000 -644.273000 746.871000 1 1.000000 1 -3.000000
75 2 456.593000 -644.432000 747.193000 1 1.000000 4 -3.000000
76 1 449.518000 -684.496000 771.131000 1 1.000000 4 0.000000
77 3 480.707000 -673.724000 782.581000 1 1.000000 4 0.000000
78 2 462.942000 -719.393000 799.884000 1 1.000000 4 -3.000000
79 2 471.129000 -714.794000 802.929000 1 1.000000 1 -3.000000
80 2 478.372000 -711.207000 808.672000 1 1.000000 1 -3.000000
81 2 483.478000 -704.161000 813.446000 1 1.000000 1 -3.000000
82 2 488.196000 -697.115000 818.475000 1 1.000000 1 -3.000000
83 2 494.033000 -689.349000 820.206000 1 1.000000 1 -3.000000
84 2 500.056000 -681.764000 822.219000 1 1.000000 1 -3.000000
85 2 506.077000 -674.819000 826.132000 1 1.000000 1 -3.000000
86 2 510.313000 -666.757000 829.974000 1 1.000000 1 -3.000000
87 2 514.094000 -658.258000 833.215000 1 1.000000 1 -3.000000
88 2 517.797000 -649.527000 836.049000 1 1.000000 1 -3.000000
89 2 520.044000 -640.624000 839.826000 1 1.000000 1 -3.000000
90 2 521.744000 -631.417000 842.683000 1 1.000000 1 -3.000000
91 2 524.371000 -621.999000 844.322000 1 1.000000 1 -3.000000
92 2 526.892000 -612.517000 843.111000 1 1.000000 1 -3.000000
93 2 529.261000 -602.887000 842.232000 1 1.000000 1 -3.000000
94 2 527.656000 -593.400000 839.789000 1 1.000000 1 -3.000000
95 2 525.905000 -583.799000 837.647000 1 1.000000 1 -3.000000
96 2 524.101000 -574.550000 834.607000 1 1.000000 1 -3.000000
97 2 523.538000 -564.633000 834.460000 1 1.000000 1 -3.000000
98 2 521.061000 -555.108000 833.526000 1 1.000000 1 -3.000000
99 2 518.348000 -545.771000 831.708000 1 1.000000 1 -3.000000
100 2 514.600000 -537.157000 828.744000 1 1.000000 1 -3.000000
101 2 511.819000 -528.545000 824.688000 1 1.000000 1 -3.000000
102 2 508.294000 -520.376000 820.243000 1 1.000000 5 -3.000000
103 1 474.166000 -538.978000 793.455000 1 1.000000 5 0.000000
104 3 483.734000 -565.779000 813.832000 1 1.000000 5 0.000000
105 2 444.365000 -573.403000 781.014000 1 1.000000 5 -3.000000
106 2 446.860000 -580.393000 787.557000 1 1.000000 1 -3.000000
107 2 450.279000 -586.947000 794.253000 1 1.000000 1 -3.000000
108 2 453.339000 -594.811000 799.490000 1 1.000000 1 -3.000000
109 2 457.785000 -599.900000 806.629000 1 1.000000 1 -3.000000
110 2 462.631000 -603.402000 814.435000 1 1.000000 1 -3.000000
111 2 464.810000 -604.320000 823.993000 1 1.000000 1 -3.000000
112 2 468.417000 -602.489000 832.956000 1 1.000000 1 -3.000000
113 2 471.004000 -599.521000 842.056000 1 1.000000 1 -3.000000
114 2 472.179000 -597.236000 851.707000 1 1.000000 1 -3.000000
115 2 474.300000 -593.017000 860.385000 1 1.000000 1 -3.000000
116 2 475.056000 -587.180000 868.393000 1 1.000000 1 -3.000000
117 2 474.393000 -583.134000 877.391000 1 1.000000 1 -3.000000
118 2 472.435000 -578.434000 885.968000 1 1.000000 1 -3.000000
119 2 468.322000 -573.949000 893.725000 1 1.000000 1 -3.000000
120 2 463.725000 -567.913000 900.130000 1 1.000000 1 -3.000000
121 2 461.147000 -561.138000 906.917000 1 1.000000 1 -3.000000
122 2 460.174000 -554.226000 914.004000 1 1.000000 1 -3.000000
123 2 458.760000 -548.296000 921.868000 1 1.000000 1 -3.000000
124 2 456.108000 -542.591000 929.464000 1 1.000000 1 -3.000000
125 2 454.304000 -536.325000 936.902000 1 1.000000 1 -3.000000
126 2 454.301000 -529.198000 943.765000 1 1.000000 1 -3.000000
127 2 456.747000 -521.372000 949.290000 1 1.000000 1 -3.000000
128 2 461.668000 -513.857000 953.612000 1 1.000000 1 -3.000000
129 2 463.694000 -504.893000 957.151000 1 1.000000 6 -3.000000
130 1 505.988000 -498.889000 936.977000 1 1.000000 6 0.000000
131 3 490.137000 -521.889000 915.759000 1 1.000000 6 0.000000
132 2 539.245000 -509.042000 905.138000 1 1.000000 6 -3.000000
133 2 534.101000 -514.579000 898.783000 1 1.000000 1 -3.000000
134 2 527.770000 -518.425000 892.192000 1 1.000000 1 -3.000000
135 2 522.245000 -522.329000 885.029000 1 1.000000 1 -3.000000
136 2 514.871000 -524.807000 878.893000 1 1.000000 1 -3.000000
137 2 506.363000 -526.286000 874.110000 1 1.000000 1 -3.000000
138 2 496.903000 -527.537000 871.386000 1 1.000000 1 -3.000000
139 2 488.139000 -529.536000 867.320000 1 1.000000 1 -3.000000
140 2 479.549000 -532.007000 863.288000 1 1.000000 1 -3.000000
141 2 471.834000 -534.813000 857.695000 1 1.000000 1 -3.000000
142 2 464.663000 -539.063000 852.511000 1 1.000000 1 -3.000000
143 2 458.014000 -544.294000 847.341000 1 1.000000 1 -3.000000
144 2 452.592000 -549.834000 841.206000 1 1.000000 1 -3.000000
145 2 447.774000 -554.629000 833.980000 1 1.000000 1 -3.000000
146 2 442.813000 -558.217000 826.254000 1 1.000000 1 -3.000000
147 2 436.584000 -560.069000 818.732000 1 1.000000 1 -3.000000
148 2 432.172000 -563.209000 810.523000 1 1.000000 1 -3.000000
149 2 426.305000 -566.660000 803.312000 1 1.000000 1 -3.000000
150 2 418.598000 -569.420000 797.848000 1 1.000000 1 -3.000000
151 2 410.879000 -569.945000 791.723000 1 1.000000 1 -3.000000
152 2 402.340000 -570.227000 786.879000 1 1.000000 1 -3.000000
153 2 393.832000 -572.589000 782.193000 1 1.000000 1 -3.000000
154 2 386.324000 -575.429000 776.359000 1 1.000000 1 -3.000000
155 2 379.659000 -579.983000 770.613000 1 1.000000 1 -3.000000
156 2 372.963000 -584.475000 764.754000 1 1.000000 7 -3.000000
157 1 389.501000 -628.671000 765.695000 1 1.000000 7 0.000000
158 3 402.552000 -614.669000 794.875000 1 1.000000 7 0.000000
159 2 413.247000 -664.425000 785.228000 1 1.000000 7 -3.000000
160 2 411.279000 -662.183000 794.693000 1 1.000000 1 -3.000000
161 2 409.864000 -657.064000 803.021000 1 1.000000 1 -3.000000
162 2 408.341000 -651.348000 810.887000 1 1.000000 1 -3.000000
163 2 409.697000 -647.692000 819.981000 1 1.000000 1 -3.000000
164 2 411.836000 -644.195000 829.018000 1 1.000000 1 -3.000000
165 2 414.012000 -642.227000 838.525000 1 1.000000 1 -3.000000
166 2 416.545000 -639.357000 847.643000 1 1.000000 1 -3.000000
167 2 417.880000 -637.440000 857.315000 1 1.000000 1 -3.000000
168 2 418.142000 -634.633000 866.828000 1 1.000000 1 -3.000000
169 2 418.080000 -628.904000 874.944000 1 1.000000 1 -3.000000
170 2 417.316000 -621.636000 881.595000 1 1.000000 1 -3.000000
171 2 415.871000 -616.044000 889.661000 1 1.000000 1 -3.000000
172 2 412.588000 -611.077000 897.467000 1 1.000000 1 -3.000000
173 2 408.187000 -606.894000 905.294000 1 1.000000 1 -3.000000
174 2 404.421000 -603.743000 913.829000 1 1.000000 1 -3.000000
175 2 399.055000 -600.650000 921.577000 1 1.000000 1 -3.000000
176 2 392.592000 -598.964000 928.931000 1 1.000000 1 -3.000000
177 2 386.839000 -599.006000 936.915000 1 1.000000 1 -3.000000
178 2 379.407000 -597.102000 943.148000 1 1.000000 1 -3.000000
179 2 373.160000 -593.631000 950.030000 1 1.000000 1 -3.000000
180 2 367.621000 -588.174000 956.175000 1 1.000000 1 -3.000000
181 2 361.333000 -582.738000 961.632000 1 1.000000 1 -3.000000
182 2 356.393000 -576.219000 967.347000 1 1.000000 1 -3.000000
183 2 350.891000 -569.369000 971.910000 1 1.000000 8 -3.000000
184 1 364.597000 -529.241000 951.237000 1 1.000000 8 0.000000
185 3 376.334000 -553.949000 929.331000 1 1.000000 8 0.000000
186 2 386.532000 -504.474000 917.608000 1 1.000000 8 -3.000000
187 2 385.228000 -511.060000 910.355000 1 1.000000 1 -3.000000
188 2 385.142000 -517.020000 902.482000 1 1.000000 1 -3.000000
189 2 384.944000 -524.707000 896.124000 1 1.000000 1 -3.000000
190 2 383.421000 -532.520000 890.254000 1 1.000000 1 -3.000000
191 2 383.079000 -541.961000 887.379000 1 1.000000 1 -3.000000
192 2 380.694000 -551.338000 885.091000 1 1.000000 1 -3.000000
193 2 376.841000 -559.873000 881.950000 1 1.000000 1 -3.000000
194 2 369.792000 -566.178000 878.809000 1 1.000000 1 -3.000000
195 2 361.296000 -570.861000 876.658000 1 1.000000 1 -3.000000
196 2 353.458000 -575.492000 872.758000 1 1.000000 1 -3.000000
197 2 345.266000 -580.549000 870.557000 1 1.000000 1 -3.000000
198 2 338.703000 -585.066000 864.701000 1 1.000000 1 -3.000000
199 2 332.951000 -589.527000 857.996000 1 1.000000 1 -3.000000
200 2 331.451000 -596.244000 850.882000 1 1.000000 1 -3.000000
201 2 328.445000 -601.709000 843.170000 1 1.000000 1 -3.000000
202 2 325.414000 -607.342000 835.704000 1 1.000000 1 -3.000000
203 2 322.450000 -614.383000 829.384000 1 1.000000 1 -3.000000
204 2 319.102000 -619.056000 821.318000 1 1.000000 1 -3.000000
205 2 317.498000 -623.652000 812.727000 1 1.000000 1 -3.000000
206 2 313.285000 -628.994000 805.531000 1 1.000000 1 -3.000000
207 2 307.604000 -633.566000 798.770000 1 1.000000 1 -3.000000
208 2 300.150000 -636.299000 792.850000 1 1.000000 1 -3.000000
209 2 292.713000 -637.101000 786.430000 1 1.000000 1 -3.000000
210 2 287.729000 -641.157000 778.920000 1 1.000000 9 -3.000000
211 1 254.378000 -611.947000 795.166000 1 1.000000 9 0.000000
212 3 284.152000 -595.132000 802.584000 1 1.000000 9 0.000000
213 2 239.531000 -572.230000 815.890000 1 1.000000 9 -3.000000
214 2 246.913000 -565.744000 814.689000 1 1.000000 1 -3.000000
215 2 255.945000 -561.726000 814.868000 1 1.000000 1 -3.000000
216 2 265.406000 -558.585000 814.795000 1 1.000000 1 -3.000000
217 2 274.951000 -555.911000 815.103000 1 1.000000 1 -3.000000
218 2 284.568000 -553.389000 814.825000 1 1.000000 1 -3.000000
219 2 293.769000 -551.037000 812.292000 1 1.000000 1 -3.000000
220 2 303.014000 -549.551000 809.170000 1 1.000000 1 -3.000000
221 2 311.562000 -547.235000 804.836000 1 1.000000 1 -3.000000
222 2 319.731000 -544.621000 799.895000 1 1.000000 1 -3.000000
223 2 327.407000 -540.775000 795.024000 1 1.000000 1 -3.000000
224 2 335.833000 -538.514000 790.372000 1 1.000000 1 -3.000000
225 2 344.329000 -538.406000 785.094000 1 1.000000 1 -3.000000
226 2 353.430000 -537.794000 781.255000 1 1.000000 1 -3.000000
227 2 360.525000 -537.464000 774.445000 1 1.000000 1 -3.000000
228 2 368.845000 -537.355000 768.968000 1 1.000000 1 -3.000000
229 2 377.271000 -538.528000 763.880000 1 1.000000 1 -3.000000
230 2 385.179000 -542.391000 759.554000 1 1.000000 1 -3.000000
231 2 392.328000 -546.521000 753.995000 1 1.000000 1 -3.000000
232 2 398.401000 -550.598000 747.449000 1 1.000000 1 -3.000000
233 2 403.748000 -555.184000 740.540000 1 1.000000 1 -3.000000
234 2 408.567000 -559.975000 733.379000 1 1.000000 1 -3.000000
235 2 413.949000 -562.776000 725.620000 1 1.000000 1 -3.000000
236 2 419.022000 -566.272000 717.906000 1 1.000000 1 -3.000000
237 2 423.346000 -571.180000 710.479000 1 1.000000 10 -3.000000
238 1 384.464000 -577.000000 684.422000 1 1.000000 10 0.000000
239 3 373.765000 -555.604000 710.002000 1 1.000000 10 0.000000
240 2 338.846000 -570.447000 674.470000 1 1.000000 10 -3.000000
241 2 336.839000 -563.888000 681.680000 1 1.000000 1 -3.000000
242 2 334.262000 -556.531000 687.789000 1 1.000000 1 -3.000000
243 2 332.455000 -549.774000 694.814000 1 1.000000 1 -3.000000
244 2 331.946000 -542.651000 701.642000 1 1.000000 1 -3.000000
245 2 333.315000 -536.003000 708.865000 1 1.000000 1 -3.000000
246 2 338.208000 -528.820000 713.647000 1 1.000000 1 -3.000000
247 2 342.416000 -521.066000 717.937000 1 1.000000 1 -3.000000
248 2 347.664000 -513.079000 720.501000 1 1.000000 1 -3.000000
249 2 352.658000 -504.727000 722.517000 1 1.000000 1 -3.000000
250 2 358.009000 -496.679000 724.482000 1 1.000000 1 -3.000000
251 2 365.535000 -490.717000 726.821000 1 1.000000 1 -3.000000
252 2 373.048000 -485.623000 730.631000 1 1.000000 1 -3.000000
253 2 380.850000 -480.155000 733.123000 1 1.000000 1 -3.000000
254 2 387.835000 -473.379000 734.143000 1 1.000000 1 -3.000000
255 2 395.440000 -467.680000 736.842000 1 1.000000 1 -3.000000
256 2 403.659000 -462.152000 737.240000 1 1.000000 1 -3.000000
257 2 410.088000 -455.620000 740.962000 1 1.000000 1 -3.000000
258 2 416.784000 -449.722000 745.261000 1 1.000000 1 -3.000000
259 2 420.897000 -442.398000 750.599000 1 1.000000 1 -3.000000
260 2 425.055000 -435.037000 755.762000 1 1.000000 1 -3.000000
261 2 430.311000 -429.360000 761.951000 1 1.000000 1 -3.000000
262 2 432.916000 -423.870000 769.760000 1 1.000000 1 -3.000000
263 2 435.393000 -419.888000 778.419000 1 1.000000 1 -3.000000
264 2 435.659000 -414.825000 787.029000 1 1.000000 11 -3.000000
265 1 415.860000 -445.636000 816.826000 1 1.000000 11 0.000000
266 3 425.092000 -465.634000 789.608000 1 1.000000 11 0.000000
267 2 405.439000 -489.302000 831.406000 1 1.000000 11 -3.000000
268 2 409.484000 -495.706000 825.110000 1 1.000000 1 -3.000000
269 2 414.393000 -501.463000 818.731000 1 1.000000 1 -3.000000
270 2 420.651000 -506.531000 812.889000 1 1.000000 1 -3.000000
271 2 425.951000 -508.958000 804.919000 1 1.000000 1 -3.000000
272 2 429.590000 -509.445000 795.728000 1 1.000000 1 -3.000000
273 2 435.515000 -509.874000 787.800000 1 1.000000 1 -3.000000
274 2 441.785000 -507.210000 780.657000 1 1.000000 1 -3.000000
275 2 447.363000 -502.268000 774.194000 1 1.000000 1 -3.000000
276 2 451.926000 -495.245000 768.797000 1 1.000000 1 -3.000000
277 2 456.954000 -487.250000 766.067000 1 1.000000 1 -3.000000
278 2 460.956000 -478.686000 763.076000 1 1.000000 1 -3.000000
279 2 464.901000 -469.710000 761.966000 1 1.000000 1 -3.000000
280 2 469.335000 -460.928000 760.710000 1 1.000000 1 -3.000000
281 2 473.630000 -451.918000 760.460000 1 1.000000 1 -3.000000
282 2 477.668000 -443.007000 759.280000 1 1.000000 1 -3.000000
283 2 482.789000 -434.526000 758.860000 1 1.000000 1 -3.000000
284 2 490.102000 -427.980000 759.527000 1 1.000000 1 -3.000000
285 2 496.858000 -420.897000 761.365000 1 1.000000 1 -3.000000
286 2 502.799000 -413.413000 763.609000 1 1.000000 1 -3.000000
287 2 508.408000 -405.973000 766.928000 1 1.000000 1 -3.000000
288 2 514.747000 -398.915000 769.721000 1 1.000000 1 -3.000000
289 2 523.220000 -394.609000 772.514000 1 1.000000 1 -3.000000
290 2 531.877000 -390.977000 775.555000 1 1.000000 1 -3.000000
291 2 540.512000 -387.287000 778.770000 1 1.000000 12 -3.000000
292 1 553.204000 -424.777000 804.432000 1 1.000000 12 0.000000
293 3 537.488000 -439.083000 776.619000 1 1.000000 12 0.000000
294 2 558.031000 -471.097000 811.978000 1 1.000000 12 -3.000000
295 2 558.480000 -472.229000 802.181000 1 1.000000 1 -3.000000
296 2 559.216000 -476.013000 793.100000 1 1.000000 1 -3.000000
297 2 560.024000 -478.224000 783.500000 1 1.000000 1 -3.000000
298 2 559.131000 -478.612000 773.626000 1 1.000000 1 -3.000000
299 2 556.411000 -477.540000 764.150000 1 1.000000 1 -3.000000
300 2 553.624000 -474.364000 755.134000 1 1.000000 1 -3.000000
301 2 552.052000 -473.110000 745.436000 1 1.000000 1 -3.000000
302 2 548.385000 -469.812000 736.883000 1 1.000000 1 -3.000000
303 2 543.349000 -466.152000 729.169000 1 1.000000 1 -3.000000
304 2 537.887000 -461.667000 722.143000 1 1.000000 1 -3.000000
305 2 533.715000 -455.291000 715.840000 1 1.000000 1 -3.000000
306 2 528.935000 -451.288000 708.119000 1 1.000000 1 -3.000000
307 2 525.624000 -448.394000 699.190000 1 1.000000 1 -3.000000
308 2 524.124000 -445.292000 689.957000 1 1.000000 1 -3.000000
309 2 523.888000 -443.060000 680.318000 1 1.000000 1 -3.000000
310 2 526.708000 -439.770000 671.504000 1 1.000000 1 -3.000000
311 2 530.547000 -437.869000 662.638000 1 1.000000 1 -3.000000
312 2 532.897000 -437.244000 653.033000 1 1.000000 1 -3.000000
313 2 536.613000 -436.727000 643.872000 1 1.000000 1 -3.000000
314 2 540.610000 -435.004000 634.935000 1 1.000000 1 -3.000000
315 2 546.124000 -436.916000 627.014000 1 1.000000 1 -3.000000
316 2 550.390000 -438.904000 618.276000 1 1.000000 1 -3.000000
317 2 555.628000 -441.543000 610.292000 1 1.000000 1 -3.000000
318 2 561.856000 -444.691000 603.288000 1 1.000000 13 -3.000000
319 1 539.281000 -485.500000 595.847000 1 1.000000 13 0.000000
320 3 517.878000 -468.330000 617.561000 1 1.000000 13 0.000000
321 2 504.916000 -516.685000 604.101000 1 1.000000 13 -3.000000
322 2 498.895000 -510.747000 609.201000 1 1.000000 1 -3.000000
323 2 492.377000 -504.934000 613.748000 1 1.000000 1 -3.000000
324 2 485.734000 -500.383000 619.474000 1 1.000000 1 -3.000000
325 2 480.689000 -494.324000 625.478000 1 1.000000 1 -3.000000
326 2 479.509000 -486.895000 631.950000 1 1.000000 1 -3.000000
327 2 480.008000 -478.741000 637.670000 1 1.000000 1 -3.000000
328 2 480.291000 -470.359000 642.883000 1 1.000000 1 -3.000000
329 2 480.329000 -461.908000 648.081000 1 1.000000 1 -3.000000
330 2 480.408000 -452.924000 652.428000 1 1.000000 1 -3.000000
331 2 481.617000 -444.090000 656.663000 1 1.000000 1 -3.000000
332 2 483.126000 -435.612000 661.496000 1 1.000000 1 -3.000000
333 2 485.322000 -427.302000 666.502000 1 1.000000 1 -3.000000
334 2 487.061000 -419.127000 671.802000 1 1.000000 1 -3.000000
335 2 488.881000 -410.923000 677.241000 1 1.000000 1 -3.000000
336 2 489.850000 -402.542000 682.386000 1 1.000000 1 -3.000000
337 2 491.406000 -394.284000 687.519000 1 1.000000 1 -3.000000
338 2 490.178000 -386.276000 693.134000 1 1.000000 1 -3.000000
339 2 489.554000 -379.618000 700.437000 1 1.000000 1 -3.000000
340 2 491.494000 -374.284000 708.568000 1 1.000000 1 -3.000000
341 2 495.282000 -370.476000 716.822000 1 1.000000 1 -3.000000
342 2 500.815000 -367.620000 724.555000 1 1.000000 1 -3.000000
343 2 507.275000 -363.669000 730.942000 1 1.000000 1 -3.000000
344 2 512.847000 -357.574000 736.377000 1 1.000000 1 -3.000000
345 2 520.016000 -353.619000 742.033000 1 1.000000 14 -3.000000
346 1 557.128000 -380.951000 732.069000 1 1.000000 14 0.000000
347 3 534.489000 -388.662000 706.555000 1 1.000000 14 0.000000
348 2 580.025000 -413.777000 707.141000 1 1.000000 14 -3.000000
349 2 575.571000 -412.568000 698.361000 1 1.000000 1 -3.000000
350 2 570.807000 -410.613000 689.921000 1 1.000000 1 -3.000000
351 2 565.720000 -408.973000 681.569000 1 1.000000 1 -3.000000
352 2 559.683000 -407.057000 673.944000 1 1.000000 1 -3.000000
353 2 552.909000 -402.407000 668.411000 1 1.000000 1 -3.000000
354 2 545.619000 -397.664000 663.695000 1 1.000000 1 -3.000000
355 2 536.925000 -394.566000 660.122000 1 1.000000 1 -3.000000
356 2 528.819000 -391.107000 655.491000 1 1.000000 1 -3.000000
357 2 520.760000 -388.271000 650.472000 1 1.000000 1 -3.000000
358 2 514.893000 -384.365000 643.521000 1 1.000000 1 -3.000000
359 2 510.243000 -377.972000 637.577000 1 1.000000 1 -3.000000
360 2 503.825000 -371.561000 633.726000 1 1.000000 1 -3.000000
361 2 495.746000 -367.450000 629.777000 1 1.000000 1 -3.000000
362 2 487.979000 -363.002000 625.634000 1 1.000000 1 -3.000000
363 2 481.586000 -356.369000 621.919000 1 1.000000 1 -3.000000
364 2 477.073000 -348.658000 617.616000 1 1.000000 1 -3.000000
365 2 474.020000 -339.784000 614.280000 1 1.000000 1 -3.000000
366 2 470.252000 -332.668000 608.747000 1 1.000000 1 -3.000000
367 2 468.224000 -325.121000 602.544000 1 1.000000 1 -3.000000
368 2 468.294000 -317.409000 596.214000 1 1.000000 1 -3.000000
369 2 471.930000 -311.259000 589.305000 1 1.000000 1 -3.000000
370 2 476.584000 -304.794000 583.431000 1 1.000000 1 -3.000000
371 2 480.476000 -298.248000 576.981000 1 1.000000 1 -3.000000
372 2 484.034000 -290.808000 571.574000 1 1.000000 15 -3.000000
373 1 526.725000 -310.854000 572.612000 1 1.000000 15 0.000000
374 3 505.196000 -337.285000 580.581000 1 1.000000 15 0.000000
375 2 556.256000 -346.910000 580.195000 1 1.000000 15 -3.000000
376 2 549.551000 -354.089000 581.223000 1 1.000000 1 -3.000000
377 2 543.121000 -361.484000 579.797000 1 1.000000 1 -3.000000
378 2 536.856000 -369.138000 578.533000 1 1.000000 1 -3.000000
379 2 528.834000 -374.223000 575.685000 1 1.000000 1 -3.000000
380 2 520.036000 -377.746000 572.776000 1 1.000000 1 -3.000000
381 2 511.307000 -381.128000 569.512000 1 1.000000 1 -3.000000
382 2 503.745000 -385.349000 564.777000 1 1.000000 1 -3.000000
383 2 496.337000 -388.167000 558.849000 1 1.000000 1 -3.000000
384 2 489.748000 -391.544000 552.437000 1 1.000000 1 -3.000000
385 2 482.801000 -396.146000 547.216000 1 1.000000 1 -3.000000
386 2 474.842000 -400.279000 543.090000 1 1.000000 1 -3.000000
387 2 467.160000 -405.535000 540.010000 1 1.000000 1 -3.000000
388 2 459.808000 -411.756000 537.509000 1 1.000000 1 -3.000000
389 2 453.337000 -418.794000 534.846000 1 1.000000 1 -3.000000
390 2 446.646000 -425.779000 532.527000 1 1.000000 1 -3.000000
391 2 440.136000 -433.118000 531.342000 1 1.000000 1 -3.000000
392 2 432.783000 -439.435000 529.808000 1 1.000000 1 -3.000000
393 2 424.628000 -445.017000 530.837000 1 1.000000 1 -3.000000
394 2 415.495000 -448.695000 531.975000 1 1.000000 1 -3.000000
395 2 407.003000 -453.651000 532.953000 1 1.000000 1 -3.000000
396 2 398.265000 -458.295000 531.998000 1 1.000000 1 -3.000000
397 2 389.146000 -462.025000 530.685000 1 1.000000 1 -3.000000
398 2 379.486000 -462.957000 528.855000 1 1.000000 1 -3.000000
399 2 370.062000 -465.964000 528.417000 1 1.000000 16 -3.000000
400 1 358.680000 -430.254000 499.742000 1 1.000000 16 0.000000
401 3 393.585000 -428.923000 500.803000 1 1.000000 16 0.000000
402 2 368.775000 -392.336000 473.495000 1 1.000000 16 -3.000000
403 2 378.274000 -394.875000 473.199000 1 1.000000 1 -3.000000
404 2 387.826000 -396.779000 471.156000 1 1.000000 1 -3.000000
405 2 396.877000 -399.310000 468.009000 1 1.000000 1 -3.000000
406 2 405.966000 -403.165000 467.788000 1 1.000000 1 -3.000000
407 2 414.433000 -408.359000 467.690000 1 1.000000 1 -3.000000
408 2 423.455000 -412.055000 468.986000 1 1.000000 1 -3.000000
409 2 432.450000 -416.157000 469.972000 1 1.000000 1 -3.000000
410 2 440.951000 -420.991000 468.079000 1 1.000000 1 -3.000000
411 2 450.554000 -423.315000 467.417000 1 1.000000 1 -3.000000
412 2 460.080000 -425.600000 466.021000 1 1.000000 1 -3.000000
413 2 468.856000 -427.362000 461.809000 1 1.000000 1 -3.000000
414 2 478.081000 -429.458000 458.887000 1 1.000000 1 -3.000000
415 2 487.346000 -429.219000 455.532000 1 1.000000 1 -3.000000
416 2 496.281000 -427.735000 451.492000 1 1.000000 1 -3.000000
417 2 505.310000 -426.063000 447.718000 1 1.000000 1 -3.000000
418 2 514.078000 -425.298000 443.084000 1 1.000000 1 -3.000000
419 2 523.016000 -425.132000 438.904000 1 1.000000 1 -3.000000
420 2 531.732000 -426.314000 434.538000 1 1.000000 1 -3.000000
421 2 540.200000 -427.206000 429.436000 1 1.000000 1 -3.000000
422 2 549.419000 -428.626000 426.079000 1 1.000000 1 -3.000000
423 2 558.587000 -429.354000 422.351000 1 1.000000 1 -3.000000
424 2 567.794000 -427.092000 419.615000 1 1.000000 1 -3.000000
425 2 577.373000 -428.535000 417.423000 1 1.000000 1 -3.000000
426 2 587.099000 -430.464000 417.696000 1 1.000000 17 -3.000000
427 1 592.393000 -466.837000 447.296000 1 1.000000 17 0.000000
428 3 560.371000 -471.919000 433.922000 1 1.000000 17 0.000000
429 2 577.382000 -505.634000 469.596000 1 1.000000 17 -3.000000
430 2 570.592000 -508.423000 462.906000 1 1.000000 1 -3.000000
431 2 564.303000 -512.215000 456.350000 1 1.000000 1 -3.000000
432 2 557.798000 -515.037000 449.493000 1 1.000000 1 -3.000000
433 2 551.187000 -514.640000 442.109000 1 1.000000 1 -3.000000
434 2 543.002000 -512.495000 436.990000 1 1.000000 1 -3.000000
435 2 533.658000 -509.833000 435.106000 1 1.000000 1 -3.000000
436 2 524.131000 -507.151000 434.498000 1 1.000000 1 -3.000000
437 2 515.006000 -503.835000 432.919000 1 1.000000 1 -3.000000
438 2 506.675000 -498.961000 430.477000 1 1.000000 1 -3.000000
439 2 499.144000 -493.776000 426.607000 1 1.000000 1 -3.000000
440 2 493.437000 -487.777000 421.286000 1 1.000000 1 -3.000000
441 2 486.130000 -482.194000 417.848000 1 1.000000 1 -3.000000
442 2 478.231000 -478.041000 413.598000 1 1.000000 1 -3.000000
443 2 469.520000 -475.185000 410.042000 1 1.000000 1 -3.000000
444 2 461.056000 -472.233000 405.888000 1 1.000000 1 -3.000000
445 2 453.870000 -467.285000 401.193000 1 1.000000 1 -3.000000
446 2 446.405000 -463.805000 395.596000 1 1.000000 1 -3.000000
447 2 438.441000 -461.308000 390.349000 1 1.000000 1 -3.000000
448 2 430.446000 -458.481000 385.097000 1 1.000000 1 -3.000000
449 2 423.573000 -453.229000 380.117000 1 1.000000 1 -3.000000
450 2 418.274000 -445.023000 378.225000 1 1.000000 1 -3.000000
451 2 412.620000 -436.950000 376.752000 1 1.000000 1 -3.000000
452 2 408.019000 -428.234000 376.332000 1 1.000000 1 -3.000000
453 2 402.811000 -419.780000 375.990000 1 1.000000 18 -3.000000
454 1 427.994000 -392.921000 405.466000 1 1.000000 18 0.000000
455 3 449.233000 -420.025000 399.343000 1 1.000000 18 0.000000
456 2 466.926000 -381.452000 429.385000 1 1.000000 18 -3.000000
457 2 473.269000 -388.217000 425.999000 1 1.000000 1 -3.000000
458 2 479.841000 -394.488000 422.050000 1 1.000000 1 -3.000000
459 2 485.941000 -400.441000 416.947000 1 1.000000 1 -3.000000
460 2 492.277000 -407.093000 413.168000 1 1.000000 1 -3.000000
461 2 498.344000 -413.360000 408.559000 1 1.000000 1 -3.000000
462 2 505.658000 -418.548000 404.396000 1 1.000000 1 -3.000000
463 2 512.477000 -423.662000 399.382000 1 1.000000 1 -3.000000
464 2 517.696000 -428.869000 392.859000 1 1.000000 1 -3.000000
465 2 523.063000 -433.743000 386.087000 1 1.000000 1 -3.000000
466 2 526.119000 -439.050000 378.373000 1 1.000000 1 -3.000000
467 2 531.329000 -442.875000 370.919000 1 1.000000 1 -3.000000
468 2 536.819000 -446.596000 363.506000 1 1.000000 1 -3.000000
469 2 542.594000 -450.985000 356.782000 1 1.000000 1 -3.000000
470 2 549.171000 -454.644000 350.321000 1 1.000000 1 -3.000000
471 2 556.076000 -459.809000 345.638000 1 1.000000 1 -3.000000
472 2 562.006000 -463.830000 338.769000 1 1.000000 1 -3.000000
473 2 567.620000 -464.916000 330.698000 1 1.000000 1 -3.000000