LAMMPS data file

4067 atoms
4067 ellipsoids
4516 bonds
8882 angles
0 dihedrals

3 atom types
5 bond types
12 angle types
0 dihedral types

-4631.092947 4670.465898 xlo xhi
-4631.092947 4670.465898 ylo yhi
-4631.092947 4670.465898 zlo zhi

Masses

1 196016.000000
2 1950.000000
3 19500.000000

Atoms

1 2 -448.728000 -877.026000 385.621000 1 1.000000 1 -3.000000
2 2 -458.050000 -876.811000 382.141000 1 1.000000 1 -3.000000
3 2 -466.538000 -879.525000 377.639000 1 1.000000 1 -3.000000
4 2 -474.677000 -881.712000 372.415000 1 1.000000 1 -3.000000
5 2 -483.970000 -883.697000 369.888000 1 1.000000 1 -3.000000
6 2 -493.608000 -885.575000 369.488000 1 1.000000 1 -3.000000
7 2 -503.028000 -886.307000 366.695000 1 1.000000 1 -3.000000
8 2 -512.597000 -887.469000 364.215000 1 1.000000 1 -3.000000
9 2 -521.905000 -885.384000 361.709000 1 1.000000 1 -3.000000
10 2 -531.347000 -883.161000 359.476000 1 1.000000 1 -3.000000
11 2 -540.689000 -880.012000 358.314000 1 1.000000 1 -3.000000
12 2 -549.651000 -877.137000 355.101000 1 1.000000 1 -3.000000
13 2 -558.450000 -873.224000 352.556000 1 1.000000 1 -3.000000
14 2 -568.010000 -871.654000 350.466000 1 1.000000 1 -3.000000
15 2 -577.618000 -871.659000 348.287000 1 1.000000 1 -3.000000
16 2 -586.850000 -874.200000 346.008000 1 1.000000 1 -3.000000
17 2 -595.875000 -877.921000 344.381000 1 1.000000 1 -3.000000
18 2 -604.161000 -883.418000 344.091000 1 1.000000 1 -3.000000
19 2 -610.901000 -890.646000 345.011000 1 1.000000 1 -3.000000
20 2 -617.398000 -898.163000 345.097000 1 1.000000 1 -3.000000
21 2 -623.922000 -905.326000 342.902000 1 1.000000 2 -3.000000
22 1 -592.637000 -940.203000 337.978000 1 1.000000 2 0.000000
23 3 -574.879000 -916.107000 356.013000 1 1.000000 2 0.000000
24 2 -551.315000 -961.379000 346.190000 1 1.000000 2 -3.000000
25 2 -548.415000 -955.481000 353.590000 1 1.000000 1 -3.000000
26 2 -544.969000 -950.500000 361.483000 1 1.000000 1 -3.000000
27 2 -541.742000 -944.040000 368.285000 1 1.000000 1 -3.000000
28 2 -539.703000 -936.308000 374.187000 1 1.000000 1 -3.000000
29 2 -539.835000 -927.716000 379.068000 1 1.000000 1 -3.000000
30 2 -541.630000 -919.080000 383.724000 1 1.000000 1 -3.000000
31 2 -544.666000 -911.236000 388.728000 1 1.000000 1 -3.000000
32 2 -549.645000 -903.157000 391.774000 1 1.000000 1 -3.000000
33 2 -553.241000 -894.367000 394.558000 1 1.000000 1 -3.000000
34 2 -559.018000 -886.602000 396.518000 1 1.000000 1 -3.000000
35 2 -563.712000 -878.023000 397.931000 1 1.000000 1 -3.000000
36 2 -570.558000 -870.861000 397.772000 1 1.000000 1 -3.000000
37 2 -575.004000 -862.084000 396.608000 1 1.000000 1 -3.000000
38 2 -578.812000 -852.939000 397.365000 1 1.000000 1 -3.000000
39 2 -581.613000 -843.440000 398.211000 1 1.000000 1 -3.000000
40 2 -586.110000 -834.733000 399.272000 1 1.000000 1 -3.000000
41 2 -590.815000 -826.324000 401.308000 1 1.000000 1 -3.000000
42 2 -593.623000 -817.091000 403.723000 1 1.000000 1 -3.000000
43 2 -594.729000 -807.362000 405.282000 1 1.000000 1 -3.000000
44 2 -596.166000 -797.579000 405.847000 1 1.000000 1 -3.000000
45 2 -599.110000 -788.484000 403.167000 1 1.000000 1 -3.000000
46 2 -602.049000 -779.524000 400.025000 1 1.000000 1 -3.000000
47 2 -605.999000 -771.071000 396.725000 1 1.000000 1 -3.000000
48 2 -610.831000 -762.932000 393.642000 1 1.000000 3 -3.000000
49 1 -616.024000 -775.519000 348.505000 1 1.000000 3 0.000000
50 3 -614.275000 -806.148000 365.183000 1 1.000000 3 0.000000
51 2 -620.330000 -806.909000 313.601000 1 1.000000 3 -3.000000
52 2 -622.066000 -814.554000 319.669000 1 1.000000 1 -3.000000
53 2 -623.077000 -823.096000 324.472000 1 1.000000 1 -3.000000
54 2 -624.843000 -831.134000 329.987000 1 1.000000 1 -3.000000
55 2 -627.339000 -838.273000 336.354000 1 1.000000 1 -3.000000
56 2 -628.761000 -843.930000 344.458000 1 1.000000 1 -3.000000
57 2 -629.604000 -846.766000 353.908000 1 1.000000 1 -3.000000
58 2 -628.575000 -847.437000 363.830000 1 1.000000 1 -3.000000
59 2 -625.939000 -849.553000 373.139000 1 1.000000 1 -3.000000
60 2 -623.778000 -851.182000 382.690000 1 1.000000 1 -3.000000
61 2 -620.570000 -853.393000 391.783000 1 1.000000 1 -3.000000
62 2 -619.994000 -855.042000 401.470000 1 1.000000 1 -3.000000
63 2 -619.184000 -853.294000 411.149000 1 1.000000 1 -3.000000
64 2 -617.770000 -851.614000 420.718000 1 1.000000 1 -3.000000
65 2 -616.657000 -848.519000 430.025000 1 1.000000 1 -3.000000
66 2 -613.458000 -843.393000 437.790000 1 1.000000 1 -3.000000
67 2 -608.433000 -840.310000 445.783000 1 1.000000 1 -3.000000
68 2 -605.038000 -837.313000 454.511000 1 1.000000 1 -3.000000
69 2 -604.507000 -834.042000 463.885000 1 1.000000 1 -3.000000
70 2 -603.734000 -831.005000 473.270000 1 1.000000 1 -3.000000
71 2 -602.429000 -830.084000 482.982000 1 1.000000 1 -3.000000
72 2 -599.660000 -827.581000 492.082000 1 1.000000 1 -3.000000
73 2 -597.117000 -827.359000 501.594000 1 1.000000 1 -3.000000
74 2 -592.777000 -829.279000 510.254000 1 1.000000 1 -3.000000
75 2 -588.649000 -830.916000 519.105000 1 1.000000 4 -3.000000
76 1 -591.362000 -878.000000 520.802000 1 1.000000 4 0.000000
77 3 -591.260000 -871.206000 486.374000 1 1.000000 4 0.000000
78 2 -593.275000 -920.946000 501.263000 1 1.000000 4 -3.000000
79 2 -597.228000 -917.341000 492.955000 1 1.000000 1 -3.000000
80 2 -600.918000 -913.088000 484.828000 1 1.000000 1 -3.000000
81 2 -606.508000 -908.427000 478.137000 1 1.000000 1 -3.000000
82 2 -614.331000 -905.715000 472.634000 1 1.000000 1 -3.000000
83 2 -622.548000 -906.192000 467.164000 1 1.000000 1 -3.000000
84 2 -631.512000 -906.706000 463.102000 1 1.000000 1 -3.000000
85 2 -638.327000 -905.707000 455.919000 1 1.000000 1 -3.000000
86 2 -645.345000 -904.487000 449.126000 1 1.000000 1 -3.000000
87 2 -651.641000 -902.975000 441.643000 1 1.000000 1 -3.000000
88 2 -657.717000 -899.797000 434.565000 1 1.000000 1 -3.000000
89 2 -662.104000 -897.639000 425.989000 1 1.000000 1 -3.000000
90 2 -666.667000 -894.740000 417.635000 1 1.000000 1 -3.000000
91 2 -671.040000 -894.471000 408.726000 1 1.000000 1 -3.000000
92 2 -674.378000 -894.497000 399.514000 1 1.000000 1 -3.000000
93 2 -680.262000 -893.953000 391.586000 1 1.000000 1 -3.000000
94 2 -684.123000 -894.506000 382.427000 1 1.000000 1 -3.000000
95 2 -685.851000 -896.206000 372.848000 1 1.000000 1 -3.000000
96 2 -690.529000 -896.746000 364.134000 1 1.000000 1 -3.000000
97 2 -693.929000 -899.178000 355.151000 1 1.000000 1 -3.000000
98 2 -698.755000 -902.590000 347.252000 1 1.000000 1 -3.000000
99 2 -705.619000 -907.038000 341.695000 1 1.000000 1 -3.000000
100 2 -711.438000 -913.232000 336.673000 1 1.000000 1 -3.000000
101 2 -716.624000 -919.480000 330.902000 1 1.000000 1 -3.000000
102 2 -722.861000 -926.024000 326.777000 1 1.000000 5 -3.000000
103 1 -722.984000 -960.120000 359.347000 1 1.000000 5 0.000000
104 3 -715.282000 -931.430000 377.864000 1 1.000000 5 0.000000
105 2 -721.073000 -976.157000 403.650000 1 1.000000 5 -3.000000
106 2 -719.079000 -967.578000 408.200000 1 1.000000 1 -3.000000
107 2 -718.000000 -958.308000 411.388000 1 1.000000 1 -3.000000
108 2 -718.376000 -949.427000 415.763000 1 1.000000 1 -3.000000
109 2 -720.818000 -941.044000 420.443000 1 1.000000 1 -3.000000
110 2 -722.663000 -932.229000 424.614000 1 1.000000 1 -3.000000
111 2 -725.933000 -923.913000 428.918000 1 1.000000 1 -3.000000
112 2 -729.428000 -915.349000 432.570000 1 1.000000 1 -3.000000
113 2 -731.825000 -907.149000 437.527000 1 1.000000 1 -3.000000
114 2 -733.529000 -899.144000 443.184000 1 1.000000 1 -3.000000
115 2 -734.124000 -890.625000 448.229000 1 1.000000 1 -3.000000
116 2 -732.013000 -882.870000 453.928000 1 1.000000 1 -3.000000
117 2 -730.964000 -875.898000 461.007000 1 1.000000 1 -3.000000
118 2 -728.451000 -868.764000 467.455000 1 1.000000 1 -3.000000
119 2 -725.865000 -862.890000 474.975000 1 1.000000 1 -3.000000
120 2 -725.189000 -855.786000 481.736000 1 1.000000 1 -3.000000
121 2 -727.220000 -848.484000 488.066000 1 1.000000 1 -3.000000
122 2 -729.585000 -840.193000 493.102000 1 1.000000 1 -3.000000
123 2 -732.779000 -831.519000 496.875000 1 1.000000 1 -3.000000
124 2 -734.364000 -823.854000 502.876000 1 1.000000 1 -3.000000
125 2 -736.209000 -815.691000 508.068000 1 1.000000 1 -3.000000
126 2 -739.728000 -808.648000 514.120000 1 1.000000 1 -3.000000
127 2 -743.821000 -802.261000 520.361000 1 1.000000 1 -3.000000
128 2 -748.954000 -796.271000 526.366000 1 1.000000 1 -3.000000
129 2 -753.963000 -789.745000 531.858000 1 1.000000 6 -3.000000
130 1 -795.869000 -810.688000 526.177000 1 1.000000 6 0.000000
131 3 -773.000000 -836.158000 518.829000 1 1.000000 6 0.000000
132 2 -823.604000 -847.324000 515.482000 1 1.000000 6 -3.000000
133 2 -816.608000 -853.922000 517.669000 1 1.000000 1 -3.000000
134 2 -810.333000 -861.521000 518.855000 1 1.000000 1 -3.000000
135 2 -804.408000 -869.215000 516.981000 1 1.000000 1 -3.000000
136 2 -796.381000 -874.418000 514.457000 1 1.000000 1 -3.000000
137 2 -787.510000 -878.593000 513.184000 1 1.000000 1 -3.000000
138 2 -778.160000 -881.437000 514.316000 1 1.000000 1 -3.000000
139 2 -768.289000 -882.454000 515.477000 1 1.000000 1 -3.000000
140 2 -759.901000 -887.519000 516.302000 1 1.000000 1 -3.000000
141 2 -750.776000 -891.272000 515.542000 1 1.000000 1 -3.000000
142 2 -741.720000 -894.924000 513.680000 1 1.000000 1 -3.000000
143 2 -732.893000 -899.019000 512.293000 1 1.000000 1 -3.000000
144 2 -724.288000 -903.015000 509.611000 1 1.000000 1 -3.000000
145 2 -715.301000 -906.268000 507.011000 1 1.000000 1 -3.000000
146 2 -706.493000 -908.541000 503.109000 1 1.000000 1 -3.000000
147 2 -698.851000 -911.912000 497.892000 1 1.000000 1 -3.000000
148 2 -692.123000 -914.222000 491.091000 1 1.000000 1 -3.000000
149 2 -685.902000 -915.276000 483.405000 1 1.000000 1 -3.000000
150 2 -680.865000 -918.467000 475.498000 1 1.000000 1 -3.000000
151 2 -677.720000 -922.124000 466.876000 1 1.000000 1 -3.000000
152 2 -673.946000 -924.845000 458.124000 1 1.000000 1 -3.000000
153 2 -672.587000 -927.266000 448.655000 1 1.000000 1 -3.000000
154 2 -671.881000 -928.947000 438.869000 1 1.000000 1 -3.000000
155 2 -673.242000 -926.960000 429.290000 1 1.000000 1 -3.000000
156 2 -677.220000 -925.024000 420.317000 1 1.000000 7 -3.000000
157 1 -642.777000 -942.612000 393.307000 1 1.000000 7 0.000000
158 3 -625.980000 -933.428000 422.613000 1 1.000000 7 0.000000
159 2 -597.720000 -952.746000 383.594000 1 1.000000 7 -3.000000
160 2 -594.150000 -951.881000 392.693000 1 1.000000 1 -3.000000
161 2 -590.890000 -953.095000 402.051000 1 1.000000 1 -3.000000
162 2 -587.421000 -952.001000 411.249000 1 1.000000 1 -3.000000
163 2 -585.793000 -949.587000 420.643000 1 1.000000 1 -3.000000
164 2 -584.682000 -947.077000 430.148000 1 1.000000 1 -3.000000
165 2 -586.109000 -946.035000 439.871000 1 1.000000 1 -3.000000
166 2 -587.478000 -946.510000 449.637000 1 1.000000 1 -3.000000
167 2 -587.358000 -946.598000 459.515000 1 1.000000 1 -3.000000
168 2 -585.534000 -947.796000 469.194000 1 1.000000 1 -3.000000
169 2 -584.638000 -949.917000 478.819000 1 1.000000 1 -3.000000
170 2 -580.957000 -949.012000 487.978000 1 1.000000 1 -3.000000
171 2 -574.488000 -948.513000 495.561000 1 1.000000 1 -3.000000
172 2 -567.960000 -947.634000 502.883000 1 1.000000 1 -3.000000
173 2 -560.306000 -948.120000 509.235000 1 1.000000 1 -3.000000
174 2 -553.245000 -951.444000 515.422000 1 1.000000 1 -3.000000
175 2 -546.647000 -955.830000 521.404000 1 1.000000 1 -3.000000
176 2 -540.211000 -960.091000 527.649000 1 1.000000 1 -3.000000
177 2 -533.666000 -960.193000 534.978000 1 1.000000 1 -3.000000
178 2 -526.273000 -960.783000 541.496000 1 1.000000 1 -3.000000
179 2 -521.165000 -963.942000 549.416000 1 1.000000 1 -3.000000
180 2 -517.767000 -969.229000 557.008000 1 1.000000 1 -3.000000
181 2 -515.940000 -972.855000 566.092000 1 1.000000 1 -3.000000
182 2 -514.251000 -975.798000 575.313000 1 1.000000 1 -3.000000
183 2 -511.662000 -980.330000 583.676000 1 1.000000 8 -3.000000
184 1 -555.508000 -989.181000 598.582000 1 1.000000 8 0.000000
185 3 -560.025000 -981.337000 564.792000 1 1.000000 8 0.000000
186 2 -602.062000 -993.891000 592.536000 1 1.000000 8 -3.000000
187 2 -603.639000 -991.867000 582.985000 1 1.000000 1 -3.000000
188 2 -604.372000 -991.966000 573.063000 1 1.000000 1 -3.000000
189 2 -603.943000 -991.640000 563.206000 1 1.000000 1 -3.000000
190 2 -601.963000 -991.281000 553.473000 1 1.000000 1 -3.000000
191 2 -598.162000 -992.559000 544.363000 1 1.000000 1 -3.000000
192 2 -592.229000 -992.610000 536.377000 1 1.000000 1 -3.000000
193 2 -586.187000 -991.260000 528.691000 1 1.000000 1 -3.000000
194 2 -581.143000 -987.946000 520.797000 1 1.000000 1 -3.000000
195 2 -575.773000 -983.716000 513.711000 1 1.000000 1 -3.000000
196 2 -570.042000 -980.209000 506.431000 1 1.000000 1 -3.000000
197 2 -564.220000 -977.046000 499.074000 1 1.000000 1 -3.000000
198 2 -557.495000 -975.108000 492.114000 1 1.000000 1 -3.000000
199 2 -551.689000 -972.452000 484.572000 1 1.000000 1 -3.000000
200 2 -546.248000 -967.631000 477.926000 1 1.000000 1 -3.000000
201 2 -541.921000 -961.330000 471.657000 1 1.000000 1 -3.000000
202 2 -538.653000 -954.003000 465.831000 1 1.000000 1 -3.000000
203 2 -534.610000 -947.337000 459.865000 1 1.000000 1 -3.000000
204 2 -531.519000 -939.246000 455.044000 1 1.000000 1 -3.000000
205 2 -526.648000 -931.019000 452.279000 1 1.000000 1 -3.000000
206 2 -521.617000 -922.551000 451.584000 1 1.000000 1 -3.000000
207 2 -516.834000 -914.074000 453.222000 1 1.000000 1 -3.000000
208 2 -512.643000 -906.452000 458.119000 1 1.000000 1 -3.000000
209 2 -509.785000 -898.200000 462.874000 1 1.000000 1 -3.000000
210 2 -508.824000 -889.301000 467.017000 1 1.000000 9 -3.000000
211 1 -503.063000 -905.311000 511.027000 1 1.000000 9 0.000000
212 3 -507.227000 -934.549000 492.394000 1 1.000000 9 0.000000
213 2 -500.212000 -939.270000 543.634000 1 1.000000 9 -3.000000
214 2 -498.208000 -947.040000 537.762000 1 1.000000 1 -3.000000
215 2 -497.439000 -955.141000 532.140000 1 1.000000 1 -3.000000
216 2 -496.350000 -962.705000 525.878000 1 1.000000 1 -3.000000
217 2 -495.974000 -969.133000 518.381000 1 1.000000 1 -3.000000
218 2 -496.469000 -973.992000 509.820000 1 1.000000 1 -3.000000
219 2 -497.683000 -978.889000 501.259000 1 1.000000 1 -3.000000
220 2 -496.610000 -981.332000 491.768000 1 1.000000 1 -3.000000
221 2 -495.833000 -984.254000 482.311000 1 1.000000 1 -3.000000
222 2 -494.513000 -990.031000 474.436000 1 1.000000 1 -3.000000
223 2 -495.123000 -995.131000 466.018000 1 1.000000 1 -3.000000
224 2 -495.513000 -999.335000 457.122000 1 1.000000 1 -3.000000
225 2 -493.962000 -1003.710000 448.340000 1 1.000000 1 -3.000000
226 2 -491.819000 -1011.190000 442.159000 1 1.000000 1 -3.000000
227 2 -491.350000 -1019.100000 436.364000 1 1.000000 1 -3.000000
228 2 -490.597000 -1027.030000 430.462000 1 1.000000 1 -3.000000
229 2 -491.426000 -1034.670000 424.148000 1 1.000000 1 -3.000000
230 2 -491.000000 -1041.430000 416.887000 1 1.000000 1 -3.000000
231 2 -490.358000 -1046.890000 408.674000 1 1.000000 1 -3.000000
232 2 -492.195000 -1052.540000 400.791000 1 1.000000 1 -3.000000
233 2 -493.535000 -1058.780000 393.307000 1 1.000000 1 -3.000000
234 2 -495.063000 -1065.590000 386.307000 1 1.000000 1 -3.000000
235 2 -496.322000 -1073.590000 380.795000 1 1.000000 1 -3.000000
236 2 -494.884000 -1081.770000 375.500000 1 1.000000 1 -3.000000
237 2 -492.538000 -1089.050000 369.251000 1 1.000000 10 -3.000000
238 1 -507.747000 -1117.870000 403.348000 1 1.000000 10 0.000000
239 3 -520.957000 -1086.910000 412.702000 1 1.000000 10 0.000000
240 2 -529.559000 -1127.320000 444.114000 1 1.000000 10 -3.000000
241 2 -537.122000 -1120.960000 445.052000 1 1.000000 1 -3.000000
242 2 -543.520000 -1113.400000 444.563000 1 1.000000 1 -3.000000
243 2 -549.358000 -1105.620000 442.384000 1 1.000000 1 -3.000000
244 2 -552.389000 -1096.460000 440.177000 1 1.000000 1 -3.000000
245 2 -556.428000 -1087.590000 438.290000 1 1.000000 1 -3.000000
246 2 -560.642000 -1078.990000 435.802000 1 1.000000 1 -3.000000
247 2 -566.025000 -1072.000000 431.241000 1 1.000000 1 -3.000000
248 2 -573.877000 -1068.240000 426.339000 1 1.000000 1 -3.000000
249 2 -583.465000 -1066.830000 424.212000 1 1.000000 1 -3.000000
250 2 -592.743000 -1064.720000 421.510000 1 1.000000 1 -3.000000
251 2 -602.662000 -1064.410000 421.020000 1 1.000000 1 -3.000000
252 2 -612.237000 -1062.000000 420.379000 1 1.000000 1 -3.000000
253 2 -621.647000 -1061.070000 417.554000 1 1.000000 1 -3.000000
254 2 -631.528000 -1060.760000 416.257000 1 1.000000 1 -3.000000
255 2 -641.298000 -1059.570000 414.929000 1 1.000000 1 -3.000000
256 2 -650.927000 -1057.260000 414.159000 1 1.000000 1 -3.000000
257 2 -660.815000 -1057.610000 415.309000 1 1.000000 1 -3.000000
258 2 -670.634000 -1058.970000 416.113000 1 1.000000 1 -3.000000
259 2 -680.303000 -1059.900000 418.324000 1 1.000000 1 -3.000000
260 2 -689.567000 -1060.920000 421.628000 1 1.000000 1 -3.000000
261 2 -698.582000 -1061.950000 425.689000 1 1.000000 1 -3.000000
262 2 -708.104000 -1061.890000 428.264000 1 1.000000 1 -3.000000
263 2 -716.929000 -1059.740000 431.991000 1 1.000000 1 -3.000000
264 2 -725.550000 -1058.890000 436.971000 1 1.000000 11 -3.000000
265 1 -718.599000 -1015.870000 455.143000 1 1.000000 11 0.000000
266 3 -693.111000 -1018.710000 431.329000 1 1.000000 11 0.000000
267 2 -697.133000 -973.993000 457.321000 1 1.000000 11 -3.000000
268 2 -691.955000 -975.438000 448.977000 1 1.000000 1 -3.000000
269 2 -686.478000 -975.269000 440.762000 1 1.000000 1 -3.000000
270 2 -682.251000 -977.626000 432.154000 1 1.000000 1 -3.000000
271 2 -679.063000 -979.898000 423.079000 1 1.000000 1 -3.000000
272 2 -675.604000 -983.034000 414.313000 1 1.000000 1 -3.000000
273 2 -672.613000 -988.379000 406.367000 1 1.000000 1 -3.000000
274 2 -671.013000 -994.099000 398.476000 1 1.000000 1 -3.000000
275 2 -667.436000 -1000.010000 391.400000 1 1.000000 1 -3.000000
276 2 -664.026000 -1006.900000 385.167000 1 1.000000 1 -3.000000
277 2 -661.015000 -1012.040000 377.315000 1 1.000000 1 -3.000000
278 2 -657.847000 -1016.770000 369.141000 1 1.000000 1 -3.000000
279 2 -654.586000 -1022.720000 362.021000 1 1.000000 1 -3.000000
280 2 -652.097000 -1026.760000 353.268000 1 1.000000 1 -3.000000
281 2 -651.248000 -1030.950000 344.324000 1 1.000000 1 -3.000000
282 2 -651.426000 -1033.870000 334.763000 1 1.000000 1 -3.000000
283 2 -651.466000 -1037.080000 325.420000 1 1.000000 1 -3.000000
284 2 -650.948000 -1040.060000 316.001000 1 1.000000 1 -3.000000
285 2 -652.220000 -1043.190000 306.707000 1 1.000000 1 -3.000000
286 2 -653.008000 -1045.930000 297.286000 1 1.000000 1 -3.000000
287 2 -654.010000 -1048.260000 287.642000 1 1.000000 1 -3.000000
288 2 -653.945000 -1052.480000 278.651000 1 1.000000 1 -3.000000
289 2 -652.166000 -1053.660000 269.000000 1 1.000000 1 -3.000000
290 2 -651.192000 -1051.360000 259.474000 1 1.000000 1 -3.000000
291 2 -647.834000 -1051.630000 250.092000 1 1.000000 12 -3.000000
292 1 -642.390000 -1005.510000 241.920000 1 1.000000 12 0.000000
293 3 -650.279000 -1006.630000 276.074000 1 1.000000 12 0.000000
294 2 -643.854000 -959.937000 254.283000 1 1.000000 12 -3.000000
295 2 -647.091000 -962.885000 263.180000 1 1.000000 1 -3.000000
296 2 -650.050000 -963.738000 272.560000 1 1.000000 1 -3.000000
297 2 -652.109000 -964.619000 282.105000 1 1.000000 1 -3.000000
298 2 -651.721000 -965.082000 291.928000 1 1.000000 1 -3.000000
299 2 -651.462000 -968.986000 300.976000 1 1.000000 1 -3.000000
300 2 -650.884000 -973.671000 309.632000 1 1.000000 1 -3.000000
301 2 -649.800000 -976.296000 319.122000 1 1.000000 1 -3.000000
302 2 -648.991000 -978.354000 328.764000 1 1.000000 1 -3.000000
303 2 -646.387000 -980.874000 337.923000 1 1.000000 1 -3.000000
304 2 -643.106000 -983.349000 346.946000 1 1.000000 1 -3.000000
305 2 -638.172000 -986.932000 354.785000 1 1.000000 1 -3.000000
306 2 -632.836000 -988.961000 362.805000 1 1.000000 1 -3.000000
307 2 -626.277000 -990.340000 370.103000 1 1.000000 1 -3.000000
308 2 -618.987000 -993.461000 376.043000 1 1.000000 1 -3.000000
309 2 -610.629000 -997.729000 379.560000 1 1.000000 1 -3.000000
310 2 -604.007000 -1004.440000 382.508000 1 1.000000 1 -3.000000
311 2 -598.535000 -1012.440000 384.423000 1 1.000000 1 -3.000000
312 2 -592.806000 -1020.200000 386.549000 1 1.000000 1 -3.000000
313 2 -585.412000 -1026.670000 387.323000 1 1.000000 1 -3.000000
314 2 -577.161000 -1031.310000 390.274000 1 1.000000 1 -3.000000
315 2 -568.390000 -1032.800000 394.538000 1 1.000000 1 -3.000000
316 2 -559.844000 -1033.530000 399.474000 1 1.000000 1 -3.000000
317 2 -552.374000 -1034.950000 405.757000 1 1.000000 1 -3.000000
318 2 -544.051000 -1035.460000 411.058000 1 1.000000 13 -3.000000
319 1 -532.937000 -989.790000 415.392000 1 1.000000 13 0.000000
320 3 -566.442000 -989.077000 405.618000 1 1.000000 13 0.000000
321 2 -543.474000 -943.829000 416.971000 1 1.000000 13 -3.000000
322 2 -549.651000 -944.593000 409.299000 1 1.000000 1 -3.000000
323 2 -554.141000 -945.051000 400.496000 1 1.000000 1 -3.000000
324 2 -558.462000 -946.007000 391.605000 1 1.000000 1 -3.000000
325 2 -560.535000 -945.523000 381.987000 1 1.000000 1 -3.000000
326 2 -561.517000 -947.152000 372.337000 1 1.000000 1 -3.000000
327 2 -564.505000 -948.084000 362.912000 1 1.000000 1 -3.000000
328 2 -564.456000 -947.397000 352.960000 1 1.000000 1 -3.000000
329 2 -562.635000 -946.244000 343.270000 1 1.000000 1 -3.000000
330 2 -560.174000 -944.614000 333.800000 1 1.000000 1 -3.000000
331 2 -555.254000 -945.022000 325.158000 1 1.000000 1 -3.000000
332 2 -549.571000 -946.518000 317.217000 1 1.000000 1 -3.000000
333 2 -542.173000 -945.725000 310.647000 1 1.000000 1 -3.000000
334 2 -536.617000 -945.704000 302.515000 1 1.000000 1 -3.000000
335 2 -528.902000 -943.489000 296.726000 1 1.000000 1 -3.000000
336 2 -522.146000 -939.290000 290.841000 1 1.000000 1 -3.000000
337 2 -514.480000 -935.719000 285.664000 1 1.000000 1 -3.000000
338 2 -506.231000 -932.551000 281.144000 1 1.000000 1 -3.000000
339 2 -497.946000 -927.414000 279.164000 1 1.000000 1 -3.000000
340 2 -490.481000 -920.870000 278.780000 1 1.000000 1 -3.000000
341 2 -483.233000 -914.073000 279.420000 1 1.000000 1 -3.000000
342 2 -475.500000 -908.684000 282.227000 1 1.000000 1 -3.000000
343 2 -466.907000 -904.281000 284.191000 1 1.000000 1 -3.000000
344 2 -457.591000 -901.018000 284.995000 1 1.000000 1 -3.000000
345 2 -448.507000 -897.277000 286.423000 1 1.000000 14 -3.000000
346 1 -426.942000 -938.671000 293.144000 1 1.000000 14 0.000000
347 3 -454.901000 -947.253000 273.916000 1 1.000000 14 0.000000
348 2 -421.361000 -984.966000 285.902000 1 1.000000 14 -3.000000
349 2 -424.747000 -983.523000 276.713000 1 1.000000 1 -3.000000
350 2 -428.926000 -984.362000 267.789000 1 1.000000 1 -3.000000
351 2 -433.761000 -983.854000 259.145000 1 1.000000 1 -3.000000
352 2 -436.530000 -982.853000 249.735000 1 1.000000 1 -3.000000
353 2 -437.983000 -983.931000 239.967000 1 1.000000 1 -3.000000
354 2 -438.225000 -985.234000 230.198000 1 1.000000 1 -3.000000
355 2 -438.581000 -988.418000 220.779000 1 1.000000 1 -3.000000
356 2 -439.347000 -990.915000 211.183000 1 1.000000 1 -3.000000
357 2 -439.556000 -996.114000 202.722000 1 1.000000 1 -3.000000
358 2 -440.340000 -999.920000 193.590000 1 1.000000 1 -3.000000
359 2 -442.521000 -1005.710000 185.764000 1 1.000000 1 -3.000000
360 2 -444.679000 -1012.390000 178.823000 1 1.000000 1 -3.000000
361 2 -446.481000 -1018.110000 170.886000 1 1.000000 1 -3.000000
362 2 -445.880000 -1020.620000 161.181000 1 1.000000 1 -3.000000
363 2 -445.535000 -1023.290000 151.761000 1 1.000000 1 -3.000000
364 2 -446.535000 -1024.900000 142.056000 1 1.000000 1 -3.000000
365 2 -447.223000 -1026.590000 132.333000 1 1.000000 1 -3.000000
366 2 -449.088000 -1027.260000 122.638000 1 1.000000 1 -3.000000
367 2 -450.870000 -1028.190000 113.021000 1 1.000000 1 -3.000000
368 2 -454.745000 -1028.130000 103.919000 1 1.000000 1 -3.000000
369 2 -456.994000 -1028.190000 94.245500 1 1.000000 1 -3.000000
370 2 -459.434000 -1027.370000 84.643800 1 1.000000 1 -3.000000
371 2 -460.898000 -1025.420000 75.103400 1 1.000000 1 -3.000000
372 2 -465.415000 -1023.490000 66.520500 1 1.000000 15 -3.000000
373 1 -445.165000 -981.180000 61.246300 1 1.000000 15 0.000000
374 3 -432.025000 -992.554000 91.514100 1 1.000000 15 0.000000
375 2 -415.479000 -946.696000 73.759900 1 1.000000 15 -3.000000
376 2 -408.927000 -952.185000 78.735800 1 1.000000 1 -3.000000
377 2 -402.577000 -958.064000 83.651100 1 1.000000 1 -3.000000
378 2 -397.073000 -965.120000 87.922700 1 1.000000 1 -3.000000
379 2 -392.213000 -972.099000 92.915000 1 1.000000 1 -3.000000
380 2 -388.116000 -979.990000 97.287500 1 1.000000 1 -3.000000
381 2 -384.341000 -988.222000 101.255000 1 1.000000 1 -3.000000
382 2 -379.635000 -995.631000 105.882000 1 1.000000 1 -3.000000
383 2 -372.984000 -999.193000 112.244000 1 1.000000 1 -3.000000
384 2 -365.854000 -1004.500000 116.713000 1 1.000000 1 -3.000000
385 2 -358.388000 -1008.640000 121.680000 1 1.000000 1 -3.000000
386 2 -350.275000 -1012.020000 126.154000 1 1.000000 1 -3.000000
387 2 -342.580000 -1015.860000 130.951000 1 1.000000 1 -3.000000
388 2 -334.658000 -1020.640000 134.512000 1 1.000000 1 -3.000000
389 2 -327.052000 -1025.240000 138.976000 1 1.000000 1 -3.000000
390 2 -320.443000 -1031.170000 143.334000 1 1.000000 1 -3.000000
391 2 -314.108000 -1036.760000 148.623000 1 1.000000 1 -3.000000
392 2 -306.878000 -1039.960000 154.602000 1 1.000000 1 -3.000000
393 2 -299.360000 -1043.640000 159.983000 1 1.000000 1 -3.000000
394 2 -290.501000 -1045.290000 164.090000 1 1.000000 1 -3.000000
395 2 -280.873000 -1047.160000 165.465000 1 1.000000 1 -3.000000
396 2 -271.350000 -1049.860000 164.892000 1 1.000000 1 -3.000000
397 2 -261.636000 -1050.860000 163.259000 1 1.000000 1 -3.000000
398 2 -252.417000 -1052.220000 160.127000 1 1.000000 1 -3.000000
399 2 -243.183000 -1054.600000 157.487000 1 1.000000 16 -3.000000
400 1 -251.368000 -1083.840000 121.310000 1 1.000000 16 0.000000
401 3 -281.648000 -1066.570000 124.654000 1 1.000000 16 0.000000
402 2 -277.043000 -1099.660000 85.017100 1 1.000000 16 -3.000000
403 2 -284.143000 -1093.650000 88.416300 1 1.000000 1 -3.000000
404 2 -292.579000 -1088.520000 89.925900 1 1.000000 1 -3.000000
405 2 -300.478000 -1082.660000 90.783000 1 1.000000 1 -3.000000
406 2 -307.015000 -1075.150000 90.822400 1 1.000000 1 -3.000000
407 2 -313.089000 -1067.530000 92.391300 1 1.000000 1 -3.000000
408 2 -317.889000 -1058.840000 92.949700 1 1.000000 1 -3.000000
409 2 -322.003000 -1049.870000 93.446300 1 1.000000 1 -3.000000
410 2 -325.233000 -1040.570000 91.941100 1 1.000000 1 -3.000000
411 2 -327.298000 -1031.000000 93.063000 1 1.000000 1 -3.000000
412 2 -331.305000 -1021.950000 92.767200 1 1.000000 1 -3.000000
413 2 -335.822000 -1013.300000 90.777600 1 1.000000 1 -3.000000
414 2 -340.876000 -1004.800000 89.962600 1 1.000000 1 -3.000000
415 2 -344.906000 -997.088000 85.257600 1 1.000000 1 -3.000000
416 2 -347.404000 -989.068000 80.087900 1 1.000000 1 -3.000000
417 2 -351.182000 -982.009000 74.239800 1 1.000000 1 -3.000000
418 2 -355.653000 -974.261000 70.120300 1 1.000000 1 -3.000000
419 2 -359.656000 -965.855000 66.764100 1 1.000000 1 -3.000000
420 2 -364.541000 -958.127000 62.971800 1 1.000000 1 -3.000000
421 2 -370.471000 -951.165000 59.255500 1 1.000000 1 -3.000000
422 2 -374.811000 -943.942000 54.014300 1 1.000000 1 -3.000000
423 2 -377.569000 -939.149000 45.863600 1 1.000000 1 -3.000000
424 2 -379.687000 -933.873000 37.640600 1 1.000000 1 -3.000000
425 2 -379.655000 -927.365000 30.117800 1 1.000000 1 -3.000000
426 2 -379.104000 -920.493000 23.032100 1 1.000000 17 -3.000000
427 1 -339.176000 -896.530000 30.523700 1 1.000000 17 0.000000
428 3 -334.829000 -925.464000 49.708300 1 1.000000 17 0.000000
429 2 -296.827000 -890.207000 50.312900 1 1.000000 17 -3.000000
430 2 -295.014000 -899.039000 54.372400 1 1.000000 1 -3.000000
431 2 -292.714000 -907.825000 58.091000 1 1.000000 1 -3.000000
432 2 -290.860000 -917.551000 59.398600 1 1.000000 1 -3.000000
433 2 -292.017000 -927.272000 60.917300 1 1.000000 1 -3.000000
434 2 -294.140000 -936.891000 61.512500 1 1.000000 1 -3.000000
435 2 -295.522000 -946.676000 62.541100 1 1.000000 1 -3.000000
436 2 -296.711000 -956.468000 61.809300 1 1.000000 1 -3.000000
437 2 -296.274000 -966.268000 61.220300 1 1.000000 1 -3.000000
438 2 -293.217000 -975.523000 59.556900 1 1.000000 1 -3.000000
439 2 -289.068000 -983.963000 56.627000 1 1.000000 1 -3.000000
440 2 -286.187000 -992.345000 52.047600 1 1.000000 1 -3.000000
441 2 -283.614000 -1000.850000 47.592300 1 1.000000 1 -3.000000
442 2 -281.128000 -1009.610000 43.844100 1 1.000000 1 -3.000000
443 2 -275.964000 -1017.090000 39.834600 1 1.000000 1 -3.000000
444 2 -271.276000 -1024.310000 34.869100 1 1.000000 1 -3.000000
445 2 -268.825000 -1032.230000 29.437600 1 1.000000 1 -3.000000
446 2 -265.940000 -1041.080000 26.057900 1 1.000000 1 -3.000000
447 2 -262.590000 -1049.900000 23.074400 1 1.000000 1 -3.000000
448 2 -258.338000 -1058.490000 20.581800 1 1.000000 1 -3.000000
449 2 -257.015000 -1067.670000 17.219900 1 1.000000 1 -3.000000
450 2 -254.606000 -1076.620000 13.717500 1 1.000000 1 -3.000000
451 2 -251.253000 -1085.340000 10.566100 1 1.000000 1 -3.000000
452 2 -248.740000 -1094.660000 8.207190 1 1.000000 1 -3.000000
453 2 -248.278000 -1103.950000 4.657370 1 1.000000 18 -3.000000
454 1 -204.058000 -1094.950000 -9.052440 1 1.000000 18 0.000000
455 3 -210.530000 -1069.500000 14.071000 1 1.000000 18 0.000000
456 2 -164.252000 -1069.640000 -9.275430 1 1.000000 18 -3.000000
457 2 -163.390000 -1064.620000 -0.819650 1 1.000000 1 -3.000000
458 2 -164.313000 -1061.570000 8.617320 1 1.000000 1 -3.000000
459 2 -166.061000 -1058.510000 17.810800 1 1.000000 1 -3.000000
460 2 -169.179000 -1054.380000 26.302200 1 1.000000 1 -3.000000
461 2 -173.585000 -1054.020000 35.221800 1 1.000000 1 -3.000000
462 2 -177.145000 -1053.400000 44.413900 1 1.000000 1 -3.000000
463 2 -179.330000 -1050.190000 53.423300 1 1.000000 1 -3.000000
464 2 -180.990000 -1044.520000 61.360600 1 1.000000 1 -3.000000