LAMMPS data file

4067 atoms
4067 ellipsoids
4516 bonds
8882 angles
0 dihedrals

3 atom types
5 bond types
12 angle types
0 dihedral types

-4631.092947 4670.465898 xlo xhi
-4631.092947 4670.465898 ylo yhi
-4631.092947 4670.465898 zlo zhi

Masses

1 196016.000000
2 1950.000000
3 19500.000000

Atoms

1 2 827.427000 -203.254000 196.343000 1 1.000000 1 -3.000000
2 2 836.978000 -205.430000 197.855000 1 1.000000 1 -3.000000
3 2 846.801000 -205.444000 199.021000 1 1.000000 1 -3.000000
4 2 856.634000 -205.733000 199.327000 1 1.000000 1 -3.000000
5 2 866.315000 -207.066000 197.681000 1 1.000000 1 -3.000000
6 2 875.940000 -208.308000 195.639000 1 1.000000 1 -3.000000
7 2 885.024000 -208.463000 191.730000 1 1.000000 1 -3.000000
8 2 894.432000 -209.376000 188.863000 1 1.000000 1 -3.000000
9 2 904.244000 -210.423000 188.615000 1 1.000000 1 -3.000000
10 2 914.049000 -211.122000 188.991000 1 1.000000 1 -3.000000
11 2 923.656000 -213.523000 188.993000 1 1.000000 1 -3.000000
12 2 933.194000 -215.875000 190.595000 1 1.000000 1 -3.000000
13 2 942.861000 -215.813000 193.000000 1 1.000000 1 -3.000000
14 2 952.575000 -215.876000 194.349000 1 1.000000 1 -3.000000
15 2 962.336000 -217.145000 194.760000 1 1.000000 1 -3.000000
16 2 972.059000 -218.707000 194.410000 1 1.000000 1 -3.000000
17 2 981.800000 -219.352000 192.600000 1 1.000000 1 -3.000000
18 2 991.029000 -219.780000 189.234000 1 1.000000 1 -3.000000
19 2 1000.060000 -219.610000 185.084000 1 1.000000 1 -3.000000
20 2 1007.660000 -218.974000 178.643000 1 1.000000 1 -3.000000
21 2 1015.860000 -219.438000 173.029000 1 1.000000 2 -3.000000
22 1 994.319000 -215.536000 131.219000 1 1.000000 2 0.000000
23 3 971.087000 -201.617000 153.402000 1 1.000000 2 0.000000
24 2 959.330000 -201.237000 102.965000 1 1.000000 2 -3.000000
25 2 954.097000 -194.225000 107.535000 1 1.000000 1 -3.000000
26 2 950.343000 -187.399000 113.736000 1 1.000000 1 -3.000000
27 2 945.988000 -181.346000 120.320000 1 1.000000 1 -3.000000
28 2 944.516000 -176.518000 128.796000 1 1.000000 1 -3.000000
29 2 941.271000 -172.377000 137.178000 1 1.000000 1 -3.000000
30 2 940.020000 -169.168000 146.545000 1 1.000000 1 -3.000000
31 2 938.876000 -163.685000 154.694000 1 1.000000 1 -3.000000
32 2 937.011000 -159.215000 163.279000 1 1.000000 1 -3.000000
33 2 934.810000 -153.766000 171.213000 1 1.000000 1 -3.000000
34 2 935.461000 -149.344000 180.108000 1 1.000000 1 -3.000000
35 2 933.925000 -145.098000 188.886000 1 1.000000 1 -3.000000
36 2 934.108000 -138.768000 196.458000 1 1.000000 1 -3.000000
37 2 934.475000 -131.512000 203.301000 1 1.000000 1 -3.000000
38 2 934.371000 -124.730000 210.470000 1 1.000000 1 -3.000000
39 2 935.097000 -118.342000 217.929000 1 1.000000 1 -3.000000
40 2 934.992000 -112.311000 225.792000 1 1.000000 1 -3.000000
41 2 935.049000 -106.596000 233.835000 1 1.000000 1 -3.000000
42 2 933.111000 -102.329000 242.579000 1 1.000000 1 -3.000000
43 2 931.476000 -99.465800 251.923000 1 1.000000 1 -3.000000
44 2 931.584000 -97.203200 261.583000 1 1.000000 1 -3.000000
45 2 932.640000 -94.872200 271.244000 1 1.000000 1 -3.000000
46 2 934.578000 -91.313300 280.345000 1 1.000000 1 -3.000000
47 2 936.071000 -85.612100 288.355000 1 1.000000 1 -3.000000
48 2 936.224000 -78.408400 295.147000 1 1.000000 3 -3.000000
49 1 933.379000 -35.942800 274.798000 1 1.000000 3 0.000000
50 3 915.285000 -56.491000 253.053000 1 1.000000 3 0.000000
51 2 917.433000 -5.909820 242.028000 1 1.000000 3 -3.000000
52 2 910.522000 -12.344500 238.749000 1 1.000000 1 -3.000000
53 2 902.450000 -17.055800 235.464000 1 1.000000 1 -3.000000
54 2 893.700000 -21.647600 234.418000 1 1.000000 1 -3.000000
55 2 886.994000 -28.710200 232.397000 1 1.000000 1 -3.000000
56 2 883.054000 -37.110100 229.017000 1 1.000000 1 -3.000000
57 2 879.148000 -46.010800 227.703000 1 1.000000 1 -3.000000
58 2 877.605000 -55.687700 226.383000 1 1.000000 1 -3.000000
59 2 875.053000 -64.867100 223.812000 1 1.000000 1 -3.000000
60 2 871.753000 -72.935100 219.140000 1 1.000000 1 -3.000000
61 2 869.063000 -79.098400 211.878000 1 1.000000 1 -3.000000
62 2 863.503000 -83.962700 205.211000 1 1.000000 1 -3.000000
63 2 859.161000 -86.735100 196.920000 1 1.000000 1 -3.000000
64 2 855.345000 -86.528400 187.760000 1 1.000000 1 -3.000000
65 2 853.638000 -85.672500 177.978000 1 1.000000 1 -3.000000
66 2 854.339000 -82.231800 168.716000 1 1.000000 1 -3.000000
67 2 856.325000 -78.064200 160.041000 1 1.000000 1 -3.000000
68 2 858.057000 -72.460900 152.066000 1 1.000000 1 -3.000000
69 2 858.968000 -65.342800 145.319000 1 1.000000 1 -3.000000
70 2 862.422000 -56.890000 141.348000 1 1.000000 1 -3.000000
71 2 865.764000 -47.980500 138.761000 1 1.000000 1 -3.000000
72 2 871.518000 -40.033300 139.363000 1 1.000000 1 -3.000000
73 2 875.889000 -31.268100 140.400000 1 1.000000 1 -3.000000
74 2 877.838000 -21.761900 142.659000 1 1.000000 1 -3.000000
75 2 880.844000 -12.463200 144.649000 1 1.000000 4 -3.000000
76 1 866.562000 -9.484090 189.496000 1 1.000000 4 0.000000
77 3 869.167000 -43.954300 184.234000 1 1.000000 4 0.000000
78 2 854.741000 -27.664000 231.367000 1 1.000000 4 -3.000000
79 2 852.449000 -37.101600 229.320000 1 1.000000 1 -3.000000
80 2 847.499000 -44.782700 225.603000 1 1.000000 1 -3.000000
81 2 842.894000 -52.832900 222.063000 1 1.000000 1 -3.000000
82 2 838.721000 -61.291300 219.052000 1 1.000000 1 -3.000000
83 2 834.069000 -69.573600 216.147000 1 1.000000 1 -3.000000
84 2 828.721000 -77.431800 213.473000 1 1.000000 1 -3.000000
85 2 824.243000 -86.118200 211.496000 1 1.000000 1 -3.000000
86 2 819.018000 -94.423000 209.767000 1 1.000000 1 -3.000000
87 2 815.741000 -103.575000 208.242000 1 1.000000 1 -3.000000
88 2 812.083000 -112.254000 205.249000 1 1.000000 1 -3.000000
89 2 808.892000 -120.793000 201.319000 1 1.000000 1 -3.000000
90 2 804.110000 -129.253000 199.639000 1 1.000000 1 -3.000000
91 2 798.291000 -137.117000 198.423000 1 1.000000 1 -3.000000
92 2 791.731000 -144.160000 196.212000 1 1.000000 1 -3.000000
93 2 783.296000 -149.010000 194.019000 1 1.000000 1 -3.000000
94 2 774.373000 -152.659000 191.579000 1 1.000000 1 -3.000000
95 2 765.604000 -156.444000 189.085000 1 1.000000 1 -3.000000
96 2 756.609000 -159.733000 186.786000 1 1.000000 1 -3.000000
97 2 747.946000 -161.760000 182.552000 1 1.000000 1 -3.000000
98 2 738.627000 -164.194000 180.120000 1 1.000000 1 -3.000000
99 2 729.715000 -168.048000 178.307000 1 1.000000 1 -3.000000
100 2 720.572000 -170.999000 175.615000 1 1.000000 1 -3.000000
101 2 712.486000 -176.224000 173.446000 1 1.000000 1 -3.000000
102 2 704.152000 -180.411000 170.262000 1 1.000000 5 -3.000000
103 1 689.603000 -188.805000 214.375000 1 1.000000 5 0.000000
104 3 716.082000 -166.434000 218.926000 1 1.000000 5 0.000000
105 2 689.335000 -181.049000 260.871000 1 1.000000 5 -3.000000
106 2 697.171000 -175.282000 262.988000 1 1.000000 1 -3.000000
107 2 703.790000 -167.874000 262.501000 1 1.000000 1 -3.000000
108 2 710.587000 -160.782000 262.261000 1 1.000000 1 -3.000000
109 2 717.397000 -153.744000 261.368000 1 1.000000 1 -3.000000
110 2 725.538000 -148.534000 259.594000 1 1.000000 1 -3.000000
111 2 734.331000 -144.159000 257.466000 1 1.000000 1 -3.000000
112 2 743.645000 -141.480000 255.147000 1 1.000000 1 -3.000000
113 2 753.399000 -140.551000 253.805000 1 1.000000 1 -3.000000
114 2 763.215000 -139.272000 253.570000 1 1.000000 1 -3.000000
115 2 772.947000 -137.413000 253.559000 1 1.000000 1 -3.000000
116 2 782.431000 -134.611000 253.912000 1 1.000000 1 -3.000000
117 2 792.238000 -133.992000 255.079000 1 1.000000 1 -3.000000
118 2 801.982000 -133.832000 253.944000 1 1.000000 1 -3.000000
119 2 811.237000 -131.742000 251.112000 1 1.000000 1 -3.000000
120 2 821.027000 -130.396000 249.973000 1 1.000000 1 -3.000000
121 2 830.366000 -127.378000 248.134000 1 1.000000 1 -3.000000
122 2 839.394000 -123.566000 247.220000 1 1.000000 1 -3.000000
123 2 847.897000 -118.536000 246.659000 1 1.000000 1 -3.000000
124 2 855.585000 -112.370000 246.687000 1 1.000000 1 -3.000000
125 2 863.788000 -108.268000 250.339000 1 1.000000 1 -3.000000
126 2 871.702000 -104.880000 255.352000 1 1.000000 1 -3.000000
127 2 879.351000 -101.412000 260.419000 1 1.000000 1 -3.000000
128 2 886.790000 -98.485000 266.383000 1 1.000000 1 -3.000000
129 2 894.371000 -95.039800 271.818000 1 1.000000 6 -3.000000
130 1 883.505000 -118.919000 310.994000 1 1.000000 6 0.000000
131 3 861.545000 -132.116000 287.222000 1 1.000000 6 0.000000
132 2 859.917000 -151.773000 335.262000 1 1.000000 6 -3.000000
133 2 856.203000 -156.735000 327.496000 1 1.000000 1 -3.000000
134 2 852.886000 -161.765000 319.639000 1 1.000000 1 -3.000000
135 2 851.507000 -167.127000 311.378000 1 1.000000 1 -3.000000
136 2 850.148000 -172.110000 302.850000 1 1.000000 1 -3.000000
137 2 848.236000 -176.579000 294.245000 1 1.000000 1 -3.000000
138 2 846.648000 -182.733000 286.588000 1 1.000000 1 -3.000000
139 2 847.051000 -189.794000 279.575000 1 1.000000 1 -3.000000
140 2 847.160000 -198.154000 274.299000 1 1.000000 1 -3.000000
141 2 847.362000 -206.865000 269.648000 1 1.000000 1 -3.000000
142 2 847.044000 -215.929000 265.676000 1 1.000000 1 -3.000000
143 2 847.826000 -225.163000 262.389000 1 1.000000 1 -3.000000
144 2 848.727000 -233.903000 257.788000 1 1.000000 1 -3.000000
145 2 852.011000 -242.009000 253.129000 1 1.000000 1 -3.000000
146 2 854.981000 -250.171000 248.260000 1 1.000000 1 -3.000000
147 2 855.670000 -258.076000 242.444000 1 1.000000 1 -3.000000
148 2 855.005000 -266.325000 237.077000 1 1.000000 1 -3.000000
149 2 852.537000 -274.315000 231.736000 1 1.000000 1 -3.000000
150 2 850.638000 -282.872000 227.037000 1 1.000000 1 -3.000000
151 2 847.933000 -291.104000 222.339000 1 1.000000 1 -3.000000
152 2 844.454000 -299.417000 218.125000 1 1.000000 1 -3.000000
153 2 842.673000 -308.187000 213.834000 1 1.000000 1 -3.000000
154 2 841.579000 -317.186000 210.045000 1 1.000000 1 -3.000000
155 2 841.682000 -326.598000 206.900000 1 1.000000 1 -3.000000
156 2 843.619000 -335.645000 203.288000 1 1.000000 7 -3.000000
157 1 888.436000 -332.635000 188.827000 1 1.000000 7 0.000000
158 3 887.411000 -311.081000 216.336000 1 1.000000 7 0.000000
159 2 932.015000 -314.549000 189.862000 1 1.000000 7 -3.000000
160 2 931.739000 -312.534000 199.418000 1 1.000000 1 -3.000000
161 2 931.722000 -311.156000 209.174000 1 1.000000 1 -3.000000
162 2 931.734000 -310.178000 218.964000 1 1.000000 1 -3.000000
163 2 929.649000 -309.369000 228.667000 1 1.000000 1 -3.000000
164 2 925.319000 -307.393000 237.462000 1 1.000000 1 -3.000000
165 2 920.448000 -304.803000 245.736000 1 1.000000 1 -3.000000
166 2 914.921000 -299.815000 252.256000 1 1.000000 1 -3.000000
167 2 911.190000 -294.452000 259.669000 1 1.000000 1 -3.000000
168 2 906.374000 -290.639000 267.424000 1 1.000000 1 -3.000000
169 2 899.614000 -286.008000 273.148000 1 1.000000 1 -3.000000
170 2 895.490000 -281.813000 281.013000 1 1.000000 1 -3.000000
171 2 892.995000 -278.296000 290.063000 1 1.000000 1 -3.000000
172 2 889.145000 -274.056000 298.054000 1 1.000000 1 -3.000000
173 2 885.505000 -270.560000 306.598000 1 1.000000 1 -3.000000
174 2 880.874000 -268.139000 315.078000 1 1.000000 1 -3.000000
175 2 875.638000 -263.861000 322.281000 1 1.000000 1 -3.000000
176 2 869.814000 -257.420000 326.931000 1 1.000000 1 -3.000000
177 2 863.120000 -250.680000 329.773000 1 1.000000 1 -3.000000
178 2 855.924000 -245.066000 333.609000 1 1.000000 1 -3.000000
179 2 850.451000 -237.396000 336.851000 1 1.000000 1 -3.000000
180 2 845.291000 -229.573000 339.658000 1 1.000000 1 -3.000000
181 2 841.202000 -221.535000 343.777000 1 1.000000 1 -3.000000
182 2 837.345000 -213.536000 348.058000 1 1.000000 1 -3.000000
183 2 833.558000 -205.439000 352.377000 1 1.000000 8 -3.000000
184 1 844.846000 -215.839000 396.955000 1 1.000000 8 0.000000
185 3 862.153000 -239.950000 378.498000 1 1.000000 8 0.000000
186 2 867.938000 -240.146000 430.134000 1 1.000000 8 -3.000000
187 2 875.270000 -244.551000 425.029000 1 1.000000 1 -3.000000
188 2 882.501000 -248.202000 419.340000 1 1.000000 1 -3.000000
189 2 888.785000 -252.129000 412.867000 1 1.000000 1 -3.000000
190 2 894.360000 -256.249000 405.922000 1 1.000000 1 -3.000000
191 2 898.711000 -260.667000 398.216000 1 1.000000 1 -3.000000
192 2 902.543000 -263.380000 389.394000 1 1.000000 1 -3.000000
193 2 904.920000 -265.573000 380.050000 1 1.000000 1 -3.000000
194 2 906.229000 -266.240000 370.233000 1 1.000000 1 -3.000000
195 2 907.254000 -264.601000 360.527000 1 1.000000 1 -3.000000
196 2 909.928000 -264.532000 351.020000 1 1.000000 1 -3.000000
197 2 912.109000 -264.953000 341.418000 1 1.000000 1 -3.000000
198 2 916.936000 -263.723000 332.927000 1 1.000000 1 -3.000000
199 2 921.482000 -263.591000 324.057000 1 1.000000 1 -3.000000
200 2 925.845000 -264.235000 315.197000 1 1.000000 1 -3.000000
201 2 929.662000 -265.507000 306.191000 1 1.000000 1 -3.000000
202 2 934.744000 -266.891000 297.875000 1 1.000000 1 -3.000000
203 2 938.588000 -267.825000 288.760000 1 1.000000 1 -3.000000
204 2 944.031000 -267.807000 280.439000 1 1.000000 1 -3.000000
205 2 950.261000 -267.807000 272.697000 1 1.000000 1 -3.000000
206 2 958.462000 -267.812000 267.043000 1 1.000000 1 -3.000000
207 2 966.590000 -265.602000 261.955000 1 1.000000 1 -3.000000
208 2 975.228000 -264.931000 257.059000 1 1.000000 1 -3.000000
209 2 984.206000 -265.543000 253.100000 1 1.000000 1 -3.000000
210 2 993.618000 -264.699000 250.134000 1 1.000000 9 -3.000000
211 1 1009.140000 -236.967000 285.104000 1 1.000000 9 0.000000
212 3 983.320000 -255.286000 300.207000 1 1.000000 9 0.000000
213 2 1007.650000 -219.576000 328.929000 1 1.000000 9 -3.000000
214 2 1003.500000 -227.021000 333.979000 1 1.000000 1 -3.000000
215 2 1000.320000 -234.807000 339.102000 1 1.000000 1 -3.000000
216 2 996.063000 -243.226000 341.904000 1 1.000000 1 -3.000000
217 2 989.968000 -250.898000 343.196000 1 1.000000 1 -3.000000
218 2 981.544000 -256.199000 344.132000 1 1.000000 1 -3.000000
219 2 972.746000 -260.447000 345.854000 1 1.000000 1 -3.000000
220 2 964.543000 -265.906000 347.118000 1 1.000000 1 -3.000000
221 2 957.044000 -271.693000 350.184000 1 1.000000 1 -3.000000
222 2 949.671000 -278.232000 349.602000 1 1.000000 1 -3.000000
223 2 942.437000 -284.856000 348.390000 1 1.000000 1 -3.000000
224 2 934.571000 -290.427000 346.309000 1 1.000000 1 -3.000000
225 2 927.613000 -297.088000 344.449000 1 1.000000 1 -3.000000
226 2 920.601000 -303.971000 342.908000 1 1.000000 1 -3.000000
227 2 913.812000 -310.843000 341.125000 1 1.000000 1 -3.000000
228 2 906.638000 -317.790000 340.162000 1 1.000000 1 -3.000000
229 2 900.152000 -325.178000 338.930000 1 1.000000 1 -3.000000
230 2 894.170000 -333.008000 338.055000 1 1.000000 1 -3.000000
231 2 888.917000 -341.205000 336.530000 1 1.000000 1 -3.000000
232 2 882.710000 -348.564000 334.167000 1 1.000000 1 -3.000000
233 2 878.034000 -355.393000 328.703000 1 1.000000 1 -3.000000
234 2 873.691000 -362.369000 323.212000 1 1.000000 1 -3.000000
235 2 868.290000 -369.454000 318.942000 1 1.000000 1 -3.000000
236 2 864.288000 -378.066000 316.350000 1 1.000000 1 -3.000000
237 2 860.567000 -386.715000 313.262000 1 1.000000 10 -3.000000
238 1 900.485000 -399.325000 291.422000 1 1.000000 10 0.000000
239 3 911.861000 -382.045000 319.646000 1 1.000000 10 0.000000
240 2 947.373000 -403.293000 288.335000 1 1.000000 10 -3.000000
241 2 949.798000 -400.387000 297.476000 1 1.000000 1 -3.000000
242 2 951.745000 -397.900000 306.847000 1 1.000000 1 -3.000000
243 2 954.222000 -396.128000 316.260000 1 1.000000 1 -3.000000
244 2 953.442000 -395.768000 326.095000 1 1.000000 1 -3.000000
245 2 951.838000 -392.884000 335.470000 1 1.000000 1 -3.000000
246 2 949.430000 -388.684000 344.165000 1 1.000000 1 -3.000000
247 2 946.820000 -382.889000 351.800000 1 1.000000 1 -3.000000
248 2 944.411000 -375.682000 358.090000 1 1.000000 1 -3.000000
249 2 943.852000 -367.278000 363.180000 1 1.000000 1 -3.000000
250 2 941.534000 -358.993000 368.028000 1 1.000000 1 -3.000000
251 2 938.432000 -351.159000 373.224000 1 1.000000 1 -3.000000
252 2 934.193000 -343.578000 377.730000 1 1.000000 1 -3.000000
253 2 930.094000 -337.021000 383.786000 1 1.000000 1 -3.000000
254 2 926.405000 -331.770000 391.267000 1 1.000000 1 -3.000000
255 2 921.589000 -326.491000 398.138000 1 1.000000 1 -3.000000
256 2 915.837000 -323.302000 405.576000 1 1.000000 1 -3.000000
257 2 910.430000 -318.777000 412.514000 1 1.000000 1 -3.000000
258 2 905.550000 -314.273000 419.770000 1 1.000000 1 -3.000000
259 2 900.089000 -309.157000 426.190000 1 1.000000 1 -3.000000
260 2 893.916000 -302.835000 430.661000 1 1.000000 1 -3.000000
261 2 887.267000 -297.235000 435.443000 1 1.000000 1 -3.000000
262 2 881.402000 -290.823000 440.187000 1 1.000000 1 -3.000000
263 2 874.591000 -284.780000 444.068000 1 1.000000 1 -3.000000
264 2 868.238000 -278.434000 448.316000 1 1.000000 11 -3.000000
265 1 833.476000 -302.654000 427.587000 1 1.000000 11 0.000000
266 3 857.230000 -327.369000 434.843000 1 1.000000 11 0.000000
267 2 811.899000 -342.511000 414.407000 1 1.000000 11 -3.000000
268 2 817.463000 -349.428000 418.794000 1 1.000000 1 -3.000000
269 2 823.313000 -356.560000 422.491000 1 1.000000 1 -3.000000
270 2 829.262000 -362.774000 427.445000 1 1.000000 1 -3.000000
271 2 836.903000 -367.067000 431.993000 1 1.000000 1 -3.000000
272 2 844.386000 -370.282000 437.717000 1 1.000000 1 -3.000000
273 2 852.621000 -373.667000 442.210000 1 1.000000 1 -3.000000
274 2 860.843000 -376.503000 446.820000 1 1.000000 1 -3.000000
275 2 867.779000 -378.762000 453.568000 1 1.000000 1 -3.000000
276 2 873.844000 -380.575000 461.231000 1 1.000000 1 -3.000000
277 2 878.963000 -385.065000 468.491000 1 1.000000 1 -3.000000
278 2 881.907000 -387.026000 477.846000 1 1.000000 1 -3.000000
279 2 885.435000 -387.857000 486.964000 1 1.000000 1 -3.000000
280 2 888.841000 -387.956000 496.297000 1 1.000000 1 -3.000000
281 2 894.157000 -386.209000 504.510000 1 1.000000 1 -3.000000
282 2 897.278000 -384.523000 513.677000 1 1.000000 1 -3.000000
283 2 898.492000 -382.138000 523.204000 1 1.000000 1 -3.000000
284 2 901.135000 -379.559000 532.332000 1 1.000000 1 -3.000000
285 2 903.935000 -379.048000 541.840000 1 1.000000 1 -3.000000
286 2 906.732000 -378.096000 551.295000 1 1.000000 1 -3.000000
287 2 910.675000 -376.445000 560.265000 1 1.000000 1 -3.000000
288 2 914.166000 -377.967000 569.325000 1 1.000000 1 -3.000000
289 2 919.072000 -379.434000 577.767000 1 1.000000 1 -3.000000
290 2 923.750000 -378.788000 586.404000 1 1.000000 1 -3.000000
291 2 927.589000 -378.945000 595.482000 1 1.000000 12 -3.000000
292 1 901.577000 -415.076000 611.239000 1 1.000000 12 0.000000
293 3 879.411000 -397.734000 590.474000 1 1.000000 12 0.000000
294 2 862.129000 -440.855000 613.226000 1 1.000000 12 -3.000000
295 2 858.931000 -437.880000 604.295000 1 1.000000 1 -3.000000
296 2 855.790000 -434.170000 595.703000 1 1.000000 1 -3.000000
297 2 850.961000 -430.992000 587.798000 1 1.000000 1 -3.000000
298 2 848.002000 -428.397000 578.700000 1 1.000000 1 -3.000000
299 2 847.349000 -422.895000 570.476000 1 1.000000 1 -3.000000
300 2 847.197000 -414.418000 565.387000 1 1.000000 1 -3.000000
301 2 848.181000 -406.098000 560.159000 1 1.000000 1 -3.000000
302 2 849.835000 -397.129000 556.226000 1 1.000000 1 -3.000000
303 2 853.749000 -388.306000 553.956000 1 1.000000 1 -3.000000
304 2 855.950000 -378.717000 553.367000 1 1.000000 1 -3.000000
305 2 858.951000 -369.220000 552.986000 1 1.000000 1 -3.000000
306 2 862.560000 -360.132000 551.202000 1 1.000000 1 -3.000000
307 2 867.868000 -351.988000 549.203000 1 1.000000 1 -3.000000
308 2 871.546000 -342.834000 548.090000 1 1.000000 1 -3.000000
309 2 875.239000 -333.652000 549.178000 1 1.000000 1 -3.000000
310 2 877.329000 -324.001000 550.714000 1 1.000000 1 -3.000000
311 2 882.287000 -315.533000 552.100000 1 1.000000 1 -3.000000
312 2 889.119000 -308.381000 552.653000 1 1.000000 1 -3.000000
313 2 896.212000 -301.557000 553.157000 1 1.000000 1 -3.000000
314 2 904.392000 -296.289000 554.914000 1 1.000000 1 -3.000000
315 2 913.633000 -293.203000 556.926000 1 1.000000 1 -3.000000
316 2 922.926000 -290.481000 558.997000 1 1.000000 1 -3.000000
317 2 932.788000 -289.618000 559.762000 1 1.000000 1 -3.000000
318 2 942.516000 -288.284000 560.847000 1 1.000000 13 -3.000000
319 1 952.743000 -325.363000 588.250000 1 1.000000 13 0.000000
320 3 921.087000 -333.285000 575.437000 1 1.000000 13 0.000000
321 2 944.763000 -368.543000 605.372000 1 1.000000 13 -3.000000
322 2 934.916000 -368.064000 604.246000 1 1.000000 1 -3.000000
323 2 925.095000 -366.806000 603.192000 1 1.000000 1 -3.000000
324 2 915.733000 -364.696000 600.794000 1 1.000000 1 -3.000000
325 2 906.774000 -361.593000 597.931000 1 1.000000 1 -3.000000
326 2 898.987000 -357.059000 593.938000 1 1.000000 1 -3.000000
327 2 890.592000 -353.967000 589.501000 1 1.000000 1 -3.000000
328 2 881.875000 -353.012000 584.978000 1 1.000000 1 -3.000000
329 2 872.522000 -354.737000 582.282000 1 1.000000 1 -3.000000
330 2 862.861000 -356.054000 580.092000 1 1.000000 1 -3.000000
331 2 853.001000 -355.678000 579.039000 1 1.000000 1 -3.000000
332 2 843.237000 -356.807000 579.455000 1 1.000000 1 -3.000000
333 2 833.434000 -357.984000 578.750000 1 1.000000 1 -3.000000
334 2 823.937000 -356.413000 576.552000 1 1.000000 1 -3.000000
335 2 814.264000 -356.747000 574.716000 1 1.000000 1 -3.000000
336 2 804.528000 -358.555000 573.672000 1 1.000000 1 -3.000000
337 2 794.746000 -359.570000 572.776000 1 1.000000 1 -3.000000
338 2 785.198000 -361.918000 572.786000 1 1.000000 1 -3.000000
339 2 776.157000 -365.978000 573.014000 1 1.000000 1 -3.000000
340 2 766.487000 -367.948000 573.075000 1 1.000000 1 -3.000000
341 2 757.315000 -369.213000 576.625000 1 1.000000 1 -3.000000
342 2 748.330000 -370.281000 580.707000 1 1.000000 1 -3.000000
343 2 739.187000 -370.295000 584.584000 1 1.000000 1 -3.000000
344 2 729.695000 -370.732000 587.641000 1 1.000000 1 -3.000000
345 2 720.545000 -370.437000 591.274000 1 1.000000 14 -3.000000
346 1 706.223000 -337.410000 560.777000 1 1.000000 14 0.000000
347 3 734.668000 -350.613000 545.422000 1 1.000000 14 0.000000
348 2 709.516000 -312.638000 520.720000 1 1.000000 14 -3.000000
349 2 717.822000 -317.270000 517.730000 1 1.000000 1 -3.000000
350 2 725.588000 -321.922000 513.897000 1 1.000000 1 -3.000000
351 2 732.512000 -327.856000 509.965000 1 1.000000 1 -3.000000
352 2 737.343000 -335.671000 506.191000 1 1.000000 1 -3.000000
353 2 740.693000 -344.697000 503.900000 1 1.000000 1 -3.000000
354 2 744.879000 -353.297000 501.568000 1 1.000000 1 -3.000000
355 2 746.195000 -363.122000 500.818000 1 1.000000 1 -3.000000
356 2 747.315000 -372.913000 501.799000 1 1.000000 1 -3.000000
357 2 747.289000 -382.075000 505.570000 1 1.000000 1 -3.000000
358 2 748.194000 -390.562000 510.637000 1 1.000000 1 -3.000000
359 2 749.936000 -399.435000 514.523000 1 1.000000 1 -3.000000
360 2 753.277000 -407.059000 519.857000 1 1.000000 1 -3.000000
361 2 755.285000 -414.370000 526.201000 1 1.000000 1 -3.000000
362 2 757.660000 -422.703000 531.246000 1 1.000000 1 -3.000000
363 2 762.031000 -430.826000 534.923000 1 1.000000 1 -3.000000
364 2 765.619000 -438.970000 539.256000 1 1.000000 1 -3.000000
365 2 767.907000 -445.908000 545.894000 1 1.000000 1 -3.000000
366 2 772.900000 -452.253000 551.646000 1 1.000000 1 -3.000000
367 2 778.924000 -458.039000 557.031000 1 1.000000 1 -3.000000
368 2 783.610000 -464.518000 562.920000 1 1.000000 1 -3.000000
369 2 788.431000 -469.850000 569.797000 1 1.000000 1 -3.000000
370 2 791.723000 -476.878000 576.124000 1 1.000000 1 -3.000000
371 2 793.620000 -483.708000 583.120000 1 1.000000 1 -3.000000
372 2 795.879000 -490.269000 590.281000 1 1.000000 15 -3.000000
373 1 776.363000 -466.086000 625.811000 1 1.000000 15 0.000000
374 3 758.049000 -455.588000 597.864000 1 1.000000 15 0.000000
375 2 747.835000 -432.839000 643.423000 1 1.000000 15 -3.000000
376 2 742.914000 -431.562000 634.877000 1 1.000000 1 -3.000000
377 2 736.706000 -431.123000 627.213000 1 1.000000 1 -3.000000
378 2 729.888000 -430.224000 620.122000 1 1.000000 1 -3.000000
379 2 724.300000 -431.377000 612.084000 1 1.000000 1 -3.000000
380 2 719.241000 -432.823000 603.669000 1 1.000000 1 -3.000000
381 2 715.075000 -432.955000 594.755000 1 1.000000 1 -3.000000
382 2 711.257000 -433.046000 585.674000 1 1.000000 1 -3.000000
383 2 707.522000 -433.702000 576.493000 1 1.000000 1 -3.000000
384 2 702.613000 -431.555000 568.200000 1 1.000000 1 -3.000000
385 2 699.833000 -431.506000 558.640000 1 1.000000 1 -3.000000
386 2 699.129000 -429.740000 548.914000 1 1.000000 1 -3.000000
387 2 695.235000 -428.911000 539.883000 1 1.000000 1 -3.000000
388 2 693.293000 -427.954000 530.205000 1 1.000000 1 -3.000000
389 2 690.874000 -426.324000 520.684000 1 1.000000 1 -3.000000
390 2 687.463000 -426.317000 511.401000 1 1.000000 1 -3.000000
391 2 683.152000 -427.661000 502.606000 1 1.000000 1 -3.000000
392 2 678.298000 -429.143000 494.084000 1 1.000000 1 -3.000000
393 2 674.004000 -432.910000 485.963000 1 1.000000 1 -3.000000
394 2 669.305000 -433.448000 477.343000 1 1.000000 1 -3.000000
395 2 666.336000 -435.300000 468.007000 1 1.000000 1 -3.000000
396 2 664.491000 -438.501000 458.825000 1 1.000000 1 -3.000000
397 2 663.255000 -442.542000 449.858000 1 1.000000 1 -3.000000
398 2 661.908000 -447.901000 441.626000 1 1.000000 1 -3.000000
399 2 661.316000 -453.478000 433.363000 1 1.000000 16 -3.000000
400 1 703.883000 -473.923000 432.831000 1 1.000000 16 0.000000
401 3 699.664000 -465.010000 466.394000 1 1.000000 16 0.000000
402 2 744.410000 -487.433000 452.782000 1 1.000000 16 -3.000000
403 2 740.824000 -488.128000 461.916000 1 1.000000 1 -3.000000
404 2 737.512000 -489.858000 471.079000 1 1.000000 1 -3.000000
405 2 733.926000 -489.843000 480.305000 1 1.000000 1 -3.000000
406 2 728.939000 -489.769000 488.808000 1 1.000000 1 -3.000000
407 2 723.701000 -489.647000 497.167000 1 1.000000 1 -3.000000
408 2 716.789000 -486.485000 503.520000 1 1.000000 1 -3.000000
409 2 709.215000 -482.926000 508.881000 1 1.000000 1 -3.000000
410 2 702.291000 -478.477000 514.446000 1 1.000000 1 -3.000000
411 2 696.168000 -472.972000 519.831000 1 1.000000 1 -3.000000
412 2 689.253000 -467.838000 524.842000 1 1.000000 1 -3.000000
413 2 683.212000 -462.509000 530.598000 1 1.000000 1 -3.000000
414 2 676.042000 -458.004000 535.843000 1 1.000000 1 -3.000000
415 2 668.815000 -453.120000 540.463000 1 1.000000 1 -3.000000
416 2 660.590000 -450.574000 545.207000 1 1.000000 1 -3.000000
417 2 651.980000 -447.608000 549.074000 1 1.000000 1 -3.000000
418 2 644.218000 -444.661000 554.477000 1 1.000000 1 -3.000000
419 2 636.330000 -441.815000 559.735000 1 1.000000 1 -3.000000
420 2 628.251000 -437.924000 563.938000 1 1.000000 1 -3.000000
421 2 619.164000 -435.236000 567.111000 1 1.000000 1 -3.000000
422 2 609.674000 -432.539000 568.020000 1 1.000000 1 -3.000000
423 2 600.572000 -429.178000 569.480000 1 1.000000 1 -3.000000
424 2 592.139000 -424.181000 568.364000 1 1.000000 1 -3.000000
425 2 583.777000 -419.292000 566.427000 1 1.000000 1 -3.000000
426 2 576.323000 -413.461000 563.547000 1 1.000000 17 -3.000000
427 1 575.132000 -418.800000 516.691000 1 1.000000 17 0.000000
428 3 595.148000 -445.523000 527.256000 1 1.000000 17 0.000000
429 2 588.085000 -439.249000 476.183000 1 1.000000 17 -3.000000
430 2 588.289000 -448.685000 479.181000 1 1.000000 1 -3.000000
431 2 590.742000 -458.027000 481.387000 1 1.000000 1 -3.000000
432 2 593.714000 -466.234000 486.042000 1 1.000000 1 -3.000000
433 2 596.079000 -473.648000 492.240000 1 1.000000 1 -3.000000
434 2 596.585000 -480.061000 499.804000 1 1.000000 1 -3.000000
435 2 596.234000 -486.026000 507.665000 1 1.000000 1 -3.000000
436 2 595.118000 -492.277000 515.193000 1 1.000000 1 -3.000000
437 2 593.099000 -497.825000 523.163000 1 1.000000 1 -3.000000
438 2 588.730000 -503.405000 530.072000 1 1.000000 1 -3.000000
439 2 583.091000 -508.949000 536.142000 1 1.000000 1 -3.000000
440 2 575.593000 -512.898000 541.051000 1 1.000000 1 -3.000000
441 2 568.509000 -517.084000 546.581000 1 1.000000 1 -3.000000
442 2 562.406000 -521.721000 552.806000 1 1.000000 1 -3.000000
443 2 556.251000 -526.540000 558.894000 1 1.000000 1 -3.000000
444 2 549.239000 -531.080000 564.063000 1 1.000000 1 -3.000000
445 2 542.571000 -531.452000 571.437000 1 1.000000 1 -3.000000
446 2 535.005000 -531.724000 577.849000 1 1.000000 1 -3.000000
447 2 528.317000 -530.710000 585.130000 1 1.000000 1 -3.000000
448 2 522.810000 -527.736000 592.782000 1 1.000000 1 -3.000000
449 2 518.315000 -525.145000 601.187000 1 1.000000 1 -3.000000
450 2 514.845000 -520.971000 609.425000 1 1.000000 1 -3.000000
451 2 511.285000 -515.103000 616.473000 1 1.000000 1 -3.000000
452 2 508.158000 -508.101000 622.577000 1 1.000000 1 -3.000000
453 2 505.256000 -500.572000 628.338000 1 1.000000 18 -3.000000
454 1 498.425000 -466.603000 596.313000 1 1.000000 18 0.000000
455 3 494.619000 -496.114000 577.760000 1 1.000000 18 0.000000
456 2 491.493000 -450.775000 552.365000 1 1.000000 18 -3.000000
457 2 484.954000 -457.595000 549.209000 1 1.000000 1 -3.000000
458 2 481.848000 -465.695000 544.344000 1 1.000000 1 -3.000000
459 2 478.869000 -474.462000 540.841000 1 1.000000 1 -3.000000
460 2 475.465000 -483.311000 537.937000 1 1.000000 1 -3.000000
461 2 471.795000 -492.378000 539.270000 1 1.000000 1 -3.000000
462 2 467.583000 -500.075000 543.796000 1 1.000000 1 -3.000000
463 2 463.954000 -507.153000 549.625000 1 1.000000 1 -3.000000
464 2 459.627000 -512.602000 556.630000 1 1.000000 1 -3.000000
465 2 454.188000 -517.843000 562.990000 1 1.000000 1 -3.000000
466 2 449.751000 -522.834000 570.268000 1 1.000000 1 -3.000000
467 2 446.498000 -528.506000 577.738000 1 1.000000 1 -3.000000
468 2 443.876000 -534.613000 584.966000 1 1.000000 1 -3.000000
469 2 439.148000 -540.737000 591.198000 1 1.000000 1 -3.000000
470 2 435.091000 -545.843000 598.543000 1 1.000000 1 -3.000000
471 2 429.385000 -549.792000 605.545000 1 1.000000 1 -3.000000
472 2 424.316000 -554.760000 612.431000 1 1.000000 1 -3.000000
473 2 420.376000 -561.137000 618.992000 1 1.000000 1 -3.000000