LAMMPS data file

4067 atoms
4067 ellipsoids
4516 bonds
8882 angles
0 dihedrals

3 atom types
5 bond types
12 angle types
0 dihedral types

-4631.092947 4670.465898 xlo xhi
-4631.092947 4670.465898 ylo yhi
-4631.092947 4670.465898 zlo zhi

Masses

1 196016.000000
2 1950.000000
3 19500.000000

Atoms

1 2 -505.718000 -863.113000 -812.869000 1 1.000000 1 -3.000000
2 2 -513.594000 -858.067000 -809.610000 1 1.000000 1 -3.000000
3 2 -520.905000 -851.735000 -807.376000 1 1.000000 1 -3.000000
4 2 -528.054000 -845.416000 -804.704000 1 1.000000 1 -3.000000
5 2 -535.081000 -839.836000 -800.397000 1 1.000000 1 -3.000000
6 2 -543.014000 -835.198000 -796.832000 1 1.000000 1 -3.000000
7 2 -550.216000 -829.282000 -793.721000 1 1.000000 1 -3.000000
8 2 -557.353000 -822.657000 -791.951000 1 1.000000 1 -3.000000
9 2 -563.982000 -815.211000 -791.944000 1 1.000000 1 -3.000000
10 2 -570.204000 -807.739000 -790.433000 1 1.000000 1 -3.000000
11 2 -574.929000 -799.099000 -789.347000 1 1.000000 1 -3.000000
12 2 -579.167000 -790.195000 -789.360000 1 1.000000 1 -3.000000
13 2 -581.807000 -780.953000 -791.613000 1 1.000000 1 -3.000000
14 2 -583.341000 -771.620000 -794.417000 1 1.000000 1 -3.000000
15 2 -586.074000 -762.962000 -798.439000 1 1.000000 1 -3.000000
16 2 -587.627000 -754.443000 -803.225000 1 1.000000 1 -3.000000
17 2 -587.676000 -744.736000 -805.360000 1 1.000000 1 -3.000000
18 2 -586.107000 -735.011000 -806.674000 1 1.000000 1 -3.000000
19 2 -585.369000 -725.228000 -805.543000 1 1.000000 1 -3.000000
20 2 -587.872000 -715.983000 -803.075000 1 1.000000 1 -3.000000
21 2 -590.111000 -706.646000 -800.247000 1 1.000000 2 -3.000000
22 1 -577.918000 -706.994000 -754.679000 1 1.000000 2 0.000000
23 3 -567.735000 -738.538000 -765.847000 1 1.000000 2 0.000000
24 2 -558.734000 -726.348000 -716.225000 1 1.000000 2 -3.000000
25 2 -553.458000 -733.515000 -720.556000 1 1.000000 1 -3.000000
26 2 -547.881000 -739.128000 -726.543000 1 1.000000 1 -3.000000
27 2 -541.112000 -744.667000 -731.213000 1 1.000000 1 -3.000000
28 2 -534.796000 -749.433000 -737.120000 1 1.000000 1 -3.000000
29 2 -527.966000 -754.599000 -742.086000 1 1.000000 1 -3.000000
30 2 -520.090000 -757.346000 -747.500000 1 1.000000 1 -3.000000
31 2 -513.327000 -761.151000 -753.676000 1 1.000000 1 -3.000000
32 2 -506.020000 -765.634000 -758.532000 1 1.000000 1 -3.000000
33 2 -498.707000 -767.435000 -764.917000 1 1.000000 1 -3.000000
34 2 -491.047000 -769.874000 -770.687000 1 1.000000 1 -3.000000
35 2 -482.874000 -771.194000 -776.105000 1 1.000000 1 -3.000000
36 2 -474.408000 -770.834000 -781.249000 1 1.000000 1 -3.000000
37 2 -465.908000 -772.468000 -785.943000 1 1.000000 1 -3.000000
38 2 -457.773000 -776.444000 -790.016000 1 1.000000 1 -3.000000
39 2 -449.921000 -780.854000 -794.218000 1 1.000000 1 -3.000000
40 2 -442.415000 -785.685000 -798.541000 1 1.000000 1 -3.000000
41 2 -433.368000 -788.537000 -801.565000 1 1.000000 1 -3.000000
42 2 -424.042000 -790.779000 -804.251000 1 1.000000 1 -3.000000
43 2 -416.345000 -793.906000 -809.553000 1 1.000000 1 -3.000000
44 2 -408.592000 -796.452000 -815.169000 1 1.000000 1 -3.000000
45 2 -400.753000 -801.192000 -819.006000 1 1.000000 1 -3.000000
46 2 -393.154000 -807.001000 -821.574000 1 1.000000 1 -3.000000
47 2 -384.529000 -811.850000 -820.899000 1 1.000000 1 -3.000000
48 2 -377.366000 -817.890000 -817.932000 1 1.000000 3 -3.000000
49 1 -351.174000 -789.492000 -790.864000 1 1.000000 3 0.000000
50 3 -383.649000 -777.872000 -785.503000 1 1.000000 3 0.000000
51 2 -344.726000 -752.540000 -762.296000 1 1.000000 3 -3.000000
52 2 -354.208000 -752.512000 -759.552000 1 1.000000 1 -3.000000
53 2 -363.497000 -751.792000 -756.127000 1 1.000000 1 -3.000000
54 2 -372.978000 -751.002000 -753.249000 1 1.000000 1 -3.000000
55 2 -382.460000 -749.928000 -750.774000 1 1.000000 1 -3.000000
56 2 -392.229000 -748.169000 -750.263000 1 1.000000 1 -3.000000
57 2 -401.910000 -745.932000 -750.016000 1 1.000000 1 -3.000000
58 2 -411.484000 -744.541000 -748.137000 1 1.000000 1 -3.000000
59 2 -421.108000 -743.335000 -745.988000 1 1.000000 1 -3.000000
60 2 -430.677000 -742.215000 -743.733000 1 1.000000 1 -3.000000
61 2 -439.915000 -739.506000 -745.852000 1 1.000000 1 -3.000000
62 2 -449.135000 -737.200000 -748.538000 1 1.000000 1 -3.000000
63 2 -458.129000 -733.468000 -750.545000 1 1.000000 1 -3.000000
64 2 -466.592000 -728.695000 -752.858000 1 1.000000 1 -3.000000
65 2 -474.266000 -723.581000 -756.320000 1 1.000000 1 -3.000000
66 2 -482.498000 -718.677000 -759.039000 1 1.000000 1 -3.000000
67 2 -491.092000 -714.297000 -761.444000 1 1.000000 1 -3.000000
68 2 -499.219000 -710.342000 -765.592000 1 1.000000 1 -3.000000
69 2 -507.079000 -707.201000 -770.525000 1 1.000000 1 -3.000000
70 2 -515.714000 -706.639000 -775.347000 1 1.000000 1 -3.000000
71 2 -524.425000 -703.146000 -778.522000 1 1.000000 1 -3.000000
72 2 -531.613000 -699.152000 -784.074000 1 1.000000 1 -3.000000
73 2 -537.883000 -696.563000 -791.194000 1 1.000000 1 -3.000000
74 2 -544.103000 -695.760000 -798.922000 1 1.000000 1 -3.000000
75 2 -549.676000 -693.607000 -806.776000 1 1.000000 4 -3.000000
76 1 -539.094000 -730.907000 -833.660000 1 1.000000 4 0.000000
77 3 -531.364000 -741.908000 -801.307000 1 1.000000 4 0.000000
78 2 -524.164000 -775.154000 -840.487000 1 1.000000 4 -3.000000
79 2 -522.688000 -779.300000 -831.604000 1 1.000000 1 -3.000000
80 2 -520.460000 -780.771000 -822.081000 1 1.000000 1 -3.000000
81 2 -519.114000 -783.288000 -812.568000 1 1.000000 1 -3.000000
82 2 -517.967000 -784.258000 -802.726000 1 1.000000 1 -3.000000
83 2 -515.971000 -783.288000 -793.035000 1 1.000000 1 -3.000000
84 2 -517.596000 -781.827000 -783.382000 1 1.000000 1 -3.000000
85 2 -520.652000 -779.672000 -774.229000 1 1.000000 1 -3.000000
86 2 -527.004000 -778.740000 -766.702000 1 1.000000 1 -3.000000
87 2 -533.481000 -776.185000 -759.651000 1 1.000000 1 -3.000000
88 2 -539.879000 -773.736000 -752.451000 1 1.000000 1 -3.000000
89 2 -545.143000 -770.634000 -744.787000 1 1.000000 1 -3.000000
90 2 -550.396000 -770.366000 -736.371000 1 1.000000 1 -3.000000
91 2 -553.690000 -770.848000 -726.990000 1 1.000000 1 -3.000000
92 2 -559.177000 -770.640000 -718.825000 1 1.000000 1 -3.000000
93 2 -565.678000 -768.667000 -711.710000 1 1.000000 1 -3.000000
94 2 -571.319000 -765.086000 -704.463000 1 1.000000 1 -3.000000
95 2 -578.239000 -763.724000 -697.563000 1 1.000000 1 -3.000000
96 2 -584.582000 -763.361000 -690.035000 1 1.000000 1 -3.000000
97 2 -591.556000 -764.349000 -683.086000 1 1.000000 1 -3.000000
98 2 -597.640000 -767.726000 -676.070000 1 1.000000 1 -3.000000
99 2 -602.253000 -773.052000 -668.995000 1 1.000000 1 -3.000000
100 2 -607.643000 -778.959000 -663.182000 1 1.000000 1 -3.000000
101 2 -613.280000 -786.210000 -659.546000 1 1.000000 1 -3.000000
102 2 -618.343000 -793.870000 -655.985000 1 1.000000 5 -3.000000
103 1 -611.048000 -831.093000 -684.005000 1 1.000000 5 0.000000
104 3 -588.457000 -807.277000 -696.272000 1 1.000000 5 0.000000
105 2 -590.717000 -853.210000 -720.376000 1 1.000000 5 -3.000000
106 2 -582.725000 -847.311000 -720.637000 1 1.000000 1 -3.000000
107 2 -574.269000 -842.096000 -720.767000 1 1.000000 1 -3.000000
108 2 -565.614000 -837.342000 -719.923000 1 1.000000 1 -3.000000
109 2 -558.416000 -830.661000 -718.526000 1 1.000000 1 -3.000000
110 2 -550.793000 -824.593000 -717.013000 1 1.000000 1 -3.000000
111 2 -543.205000 -818.346000 -715.631000 1 1.000000 1 -3.000000
112 2 -535.025000 -813.439000 -712.930000 1 1.000000 1 -3.000000
113 2 -527.261000 -809.265000 -708.414000 1 1.000000 1 -3.000000
114 2 -520.279000 -805.229000 -702.584000 1 1.000000 1 -3.000000
115 2 -513.416000 -799.770000 -697.821000 1 1.000000 1 -3.000000
116 2 -507.116000 -794.390000 -692.475000 1 1.000000 1 -3.000000
117 2 -499.041000 -790.058000 -688.602000 1 1.000000 1 -3.000000
118 2 -492.236000 -785.321000 -683.135000 1 1.000000 1 -3.000000
119 2 -484.791000 -780.927000 -678.340000 1 1.000000 1 -3.000000
120 2 -477.691000 -776.917000 -672.574000 1 1.000000 1 -3.000000
121 2 -470.820000 -771.991000 -667.311000 1 1.000000 1 -3.000000
122 2 -463.463000 -767.830000 -662.176000 1 1.000000 1 -3.000000
123 2 -455.193000 -763.158000 -659.482000 1 1.000000 1 -3.000000
124 2 -447.472000 -758.736000 -655.107000 1 1.000000 1 -3.000000
125 2 -440.469000 -753.017000 -651.155000 1 1.000000 1 -3.000000
126 2 -435.322000 -745.801000 -646.653000 1 1.000000 1 -3.000000
127 2 -429.665000 -739.056000 -642.216000 1 1.000000 1 -3.000000
128 2 -423.062000 -732.030000 -640.014000 1 1.000000 1 -3.000000
129 2 -416.685000 -724.840000 -637.691000 1 1.000000 6 -3.000000
130 1 -389.727000 -751.226000 -609.345000 1 1.000000 6 0.000000
131 3 -420.011000 -768.792000 -610.212000 1 1.000000 6 0.000000
132 2 -381.095000 -789.136000 -582.577000 1 1.000000 6 -3.000000
133 2 -390.447000 -792.286000 -583.356000 1 1.000000 1 -3.000000
134 2 -399.170000 -796.836000 -584.119000 1 1.000000 1 -3.000000
135 2 -405.835000 -803.565000 -586.869000 1 1.000000 1 -3.000000
136 2 -413.285000 -808.442000 -591.136000 1 1.000000 1 -3.000000
137 2 -422.393000 -810.327000 -594.532000 1 1.000000 1 -3.000000
138 2 -431.756000 -809.633000 -597.704000 1 1.000000 1 -3.000000
139 2 -441.467000 -809.129000 -599.916000 1 1.000000 1 -3.000000
140 2 -450.980000 -808.588000 -602.368000 1 1.000000 1 -3.000000
141 2 -460.648000 -810.335000 -603.418000 1 1.000000 1 -3.000000
142 2 -470.399000 -811.960000 -604.809000 1 1.000000 1 -3.000000
143 2 -480.208000 -813.267000 -605.610000 1 1.000000 1 -3.000000
144 2 -490.060000 -813.885000 -606.256000 1 1.000000 1 -3.000000
145 2 -499.840000 -813.803000 -604.407000 1 1.000000 1 -3.000000
146 2 -509.060000 -813.606000 -600.940000 1 1.000000 1 -3.000000
147 2 -518.065000 -811.114000 -597.791000 1 1.000000 1 -3.000000
148 2 -527.744000 -810.499000 -595.819000 1 1.000000 1 -3.000000
149 2 -537.390000 -810.159000 -593.473000 1 1.000000 1 -3.000000
150 2 -547.202000 -810.197000 -592.086000 1 1.000000 1 -3.000000
151 2 -557.167000 -810.062000 -592.079000 1 1.000000 1 -3.000000
152 2 -566.617000 -807.544000 -590.671000 1 1.000000 1 -3.000000
153 2 -575.503000 -805.887000 -586.537000 1 1.000000 1 -3.000000
154 2 -583.629000 -805.083000 -580.874000 1 1.000000 1 -3.000000
155 2 -591.988000 -803.921000 -575.704000 1 1.000000 1 -3.000000
156 2 -600.484000 -800.527000 -571.682000 1 1.000000 7 -3.000000
157 1 -581.810000 -799.926000 -528.340000 1 1.000000 7 0.000000
158 3 -553.635000 -799.392000 -549.065000 1 1.000000 7 0.000000
159 2 -545.856000 -797.973000 -497.901000 1 1.000000 7 -3.000000
160 2 -538.978000 -794.298000 -503.920000 1 1.000000 1 -3.000000
161 2 -533.006000 -791.279000 -511.227000 1 1.000000 1 -3.000000
162 2 -526.239000 -789.179000 -518.102000 1 1.000000 1 -3.000000
163 2 -519.331000 -788.030000 -525.093000 1 1.000000 1 -3.000000
164 2 -513.815000 -787.105000 -533.318000 1 1.000000 1 -3.000000
165 2 -508.126000 -786.705000 -541.462000 1 1.000000 1 -3.000000
166 2 -501.835000 -785.979000 -549.046000 1 1.000000 1 -3.000000
167 2 -496.894000 -783.408000 -557.139000 1 1.000000 1 -3.000000
168 2 -492.869000 -779.556000 -565.389000 1 1.000000 1 -3.000000
169 2 -487.704000 -776.845000 -573.457000 1 1.000000 1 -3.000000
170 2 -483.824000 -773.296000 -581.841000 1 1.000000 1 -3.000000
171 2 -479.562000 -770.545000 -590.416000 1 1.000000 1 -3.000000
172 2 -475.481000 -768.259000 -599.148000 1 1.000000 1 -3.000000
173 2 -470.932000 -764.372000 -607.069000 1 1.000000 1 -3.000000
174 2 -466.307000 -759.062000 -614.066000 1 1.000000 1 -3.000000
175 2 -460.905000 -753.396000 -619.959000 1 1.000000 1 -3.000000
176 2 -455.347000 -746.907000 -624.876000 1 1.000000 1 -3.000000
177 2 -448.654000 -740.558000 -628.219000 1 1.000000 1 -3.000000
178 2 -440.860000 -734.409000 -627.531000 1 1.000000 1 -3.000000
179 2 -433.123000 -728.336000 -628.036000 1 1.000000 1 -3.000000
180 2 -428.529000 -719.583000 -627.330000 1 1.000000 1 -3.000000
181 2 -424.771000 -710.430000 -626.663000 1 1.000000 1 -3.000000
182 2 -423.335000 -700.685000 -626.500000 1 1.000000 1 -3.000000
183 2 -423.112000 -690.757000 -626.047000 1 1.000000 8 -3.000000
184 1 -440.396000 -676.048000 -667.376000 1 1.000000 8 0.000000
185 3 -451.770000 -709.136000 -665.291000 1 1.000000 8 0.000000
186 2 -463.111000 -682.258000 -708.234000 1 1.000000 8 -3.000000
187 2 -466.392000 -691.416000 -706.626000 1 1.000000 1 -3.000000
188 2 -470.307000 -700.430000 -705.252000 1 1.000000 1 -3.000000
189 2 -474.886000 -709.123000 -704.035000 1 1.000000 1 -3.000000
190 2 -479.296000 -717.156000 -700.044000 1 1.000000 1 -3.000000
191 2 -483.367000 -723.302000 -693.299000 1 1.000000 1 -3.000000
192 2 -486.317000 -727.447000 -684.843000 1 1.000000 1 -3.000000
193 2 -489.591000 -729.538000 -675.791000 1 1.000000 1 -3.000000
194 2 -491.490000 -729.336000 -666.108000 1 1.000000 1 -3.000000
195 2 -492.269000 -730.719000 -656.339000 1 1.000000 1 -3.000000
196 2 -494.822000 -729.871000 -646.825000 1 1.000000 1 -3.000000
197 2 -498.515000 -728.646000 -637.708000 1 1.000000 1 -3.000000
198 2 -503.102000 -728.300000 -628.866000 1 1.000000 1 -3.000000
199 2 -506.865000 -725.674000 -620.147000 1 1.000000 1 -3.000000
200 2 -511.239000 -722.966000 -611.680000 1 1.000000 1 -3.000000
201 2 -517.205000 -719.769000 -604.537000 1 1.000000 1 -3.000000
202 2 -523.542000 -717.199000 -597.393000 1 1.000000 1 -3.000000
203 2 -531.120000 -715.305000 -591.349000 1 1.000000 1 -3.000000
204 2 -537.403000 -714.301000 -583.747000 1 1.000000 1 -3.000000
205 2 -544.621000 -714.344000 -576.946000 1 1.000000 1 -3.000000
206 2 -552.083000 -715.045000 -570.558000 1 1.000000 1 -3.000000
207 2 -557.146000 -717.277000 -562.365000 1 1.000000 1 -3.000000
208 2 -561.327000 -716.306000 -553.458000 1 1.000000 1 -3.000000
209 2 -563.311000 -714.505000 -543.937000 1 1.000000 1 -3.000000
210 2 -567.348000 -715.517000 -534.996000 1 1.000000 9 -3.000000
211 1 -529.236000 -702.442000 -510.396000 1 1.000000 9 0.000000
212 3 -518.282000 -700.702000 -543.595000 1 1.000000 9 0.000000
213 2 -484.221000 -688.994000 -506.228000 1 1.000000 9 -3.000000
214 2 -484.239000 -684.598000 -515.144000 1 1.000000 1 -3.000000
215 2 -486.830000 -680.353000 -523.634000 1 1.000000 1 -3.000000
216 2 -487.038000 -676.065000 -532.454000 1 1.000000 1 -3.000000
217 2 -484.722000 -673.464000 -541.691000 1 1.000000 1 -3.000000
218 2 -481.266000 -668.734000 -549.684000 1 1.000000 1 -3.000000
219 2 -479.373000 -661.533000 -556.198000 1 1.000000 1 -3.000000
220 2 -475.654000 -653.896000 -561.297000 1 1.000000 1 -3.000000
221 2 -470.604000 -647.269000 -566.757000 1 1.000000 1 -3.000000
222 2 -465.848000 -641.345000 -573.004000 1 1.000000 1 -3.000000
223 2 -461.959000 -634.856000 -579.370000 1 1.000000 1 -3.000000
224 2 -457.192000 -630.444000 -586.819000 1 1.000000 1 -3.000000
225 2 -453.220000 -626.153000 -594.803000 1 1.000000 1 -3.000000
226 2 -448.230000 -624.372000 -603.092000 1 1.000000 1 -3.000000
227 2 -443.492000 -623.206000 -611.686000 1 1.000000 1 -3.000000
228 2 -438.136000 -619.252000 -618.934000 1 1.000000 1 -3.000000
229 2 -432.578000 -616.813000 -626.753000 1 1.000000 1 -3.000000
230 2 -425.954000 -613.495000 -633.209000 1 1.000000 1 -3.000000
231 2 -419.975000 -611.030000 -640.653000 1 1.000000 1 -3.000000
232 2 -416.500000 -607.616000 -649.209000 1 1.000000 1 -3.000000
233 2 -414.896000 -601.123000 -656.556000 1 1.000000 1 -3.000000
234 2 -413.518000 -594.072000 -663.332000 1 1.000000 1 -3.000000
235 2 -413.693000 -586.668000 -669.927000 1 1.000000 1 -3.000000
236 2 -414.447000 -579.118000 -676.262000 1 1.000000 1 -3.000000
237 2 -415.488000 -571.064000 -681.932000 1 1.000000 10 -3.000000
238 1 -446.638000 -544.829000 -658.144000 1 1.000000 10 0.000000
239 3 -438.247000 -570.038000 -635.216000 1 1.000000 10 0.000000
240 2 -473.560000 -534.873000 -620.663000 1 1.000000 10 -3.000000
241 2 -466.130000 -540.209000 -616.851000 1 1.000000 1 -3.000000
242 2 -460.087000 -544.287000 -610.171000 1 1.000000 1 -3.000000
243 2 -454.286000 -547.865000 -603.085000 1 1.000000 1 -3.000000
244 2 -449.638000 -553.821000 -596.684000 1 1.000000 1 -3.000000
245 2 -445.339000 -560.394000 -590.638000 1 1.000000 1 -3.000000
246 2 -440.070000 -567.080000 -585.516000 1 1.000000 1 -3.000000
247 2 -435.129000 -573.014000 -579.331000 1 1.000000 1 -3.000000
248 2 -431.473000 -579.039000 -572.303000 1 1.000000 1 -3.000000
249 2 -424.689000 -583.834000 -566.944000 1 1.000000 1 -3.000000
250 2 -418.211000 -588.616000 -561.107000 1 1.000000 1 -3.000000
251 2 -411.073000 -592.551000 -555.573000 1 1.000000 1 -3.000000
252 2 -404.859000 -595.110000 -548.350000 1 1.000000 1 -3.000000
253 2 -398.086000 -596.149000 -541.257000 1 1.000000 1 -3.000000
254 2 -390.923000 -595.893000 -534.431000 1 1.000000 1 -3.000000
255 2 -383.150000 -594.808000 -528.264000 1 1.000000 1 -3.000000
256 2 -375.661000 -595.468000 -521.865000 1 1.000000 1 -3.000000
257 2 -368.429000 -596.125000 -515.051000 1 1.000000 1 -3.000000
258 2 -360.962000 -597.495000 -508.685000 1 1.000000 1 -3.000000
259 2 -354.552000 -598.606000 -501.349000 1 1.000000 1 -3.000000
260 2 -348.060000 -598.806000 -494.021000 1 1.000000 1 -3.000000
261 2 -343.624000 -601.495000 -485.579000 1 1.000000 1 -3.000000
262 2 -339.371000 -603.632000 -476.854000 1 1.000000 1 -3.000000
263 2 -335.205000 -605.199000 -467.878000 1 1.000000 1 -3.000000
264 2 -331.673000 -604.796000 -458.596000 1 1.000000 11 -3.000000
265 1 -371.141000 -627.502000 -446.215000 1 1.000000 11 0.000000
266 3 -365.726000 -638.144000 -479.198000 1 1.000000 11 0.000000
267 2 -405.897000 -658.627000 -453.287000 1 1.000000 11 -3.000000
268 2 -400.436000 -663.333000 -460.120000 1 1.000000 1 -3.000000
269 2 -395.455000 -666.967000 -467.864000 1 1.000000 1 -3.000000
270 2 -390.243000 -673.066000 -473.676000 1 1.000000 1 -3.000000
271 2 -382.840000 -677.572000 -478.322000 1 1.000000 1 -3.000000
272 2 -375.524000 -681.876000 -483.342000 1 1.000000 1 -3.000000
273 2 -367.896000 -685.420000 -488.582000 1 1.000000 1 -3.000000
274 2 -360.333000 -690.153000 -493.023000 1 1.000000 1 -3.000000
275 2 -352.079000 -694.773000 -496.013000 1 1.000000 1 -3.000000
276 2 -343.435000 -699.229000 -497.534000 1 1.000000 1 -3.000000
277 2 -335.936000 -704.111000 -501.857000 1 1.000000 1 -3.000000
278 2 -327.168000 -706.445000 -505.782000 1 1.000000 1 -3.000000
279 2 -318.463000 -708.596000 -509.961000 1 1.000000 1 -3.000000
280 2 -310.890000 -711.813000 -515.506000 1 1.000000 1 -3.000000
281 2 -303.468000 -714.264000 -521.642000 1 1.000000 1 -3.000000
282 2 -296.699000 -714.470000 -528.831000 1 1.000000 1 -3.000000
283 2 -288.123000 -712.745000 -533.426000 1 1.000000 1 -3.000000
284 2 -280.370000 -711.936000 -539.422000 1 1.000000 1 -3.000000
285 2 -273.091000 -712.526000 -546.051000 1 1.000000 1 -3.000000
286 2 -265.292000 -712.701000 -552.029000 1 1.000000 1 -3.000000
287 2 -258.416000 -711.762000 -559.050000 1 1.000000 1 -3.000000
288 2 -253.522000 -707.426000 -566.471000 1 1.000000 1 -3.000000
289 2 -250.265000 -703.088000 -574.739000 1 1.000000 1 -3.000000
290 2 -246.524000 -700.208000 -583.399000 1 1.000000 1 -3.000000
291 2 -244.659000 -697.888000 -592.867000 1 1.000000 12 -3.000000
292 1 -286.882000 -699.207000 -613.911000 1 1.000000 12 0.000000
293 3 -294.847000 -696.046000 -579.940000 1 1.000000 12 0.000000
294 2 -334.062000 -699.851000 -613.862000 1 1.000000 12 -3.000000
295 2 -336.356000 -695.742000 -605.133000 1 1.000000 1 -3.000000
296 2 -337.876000 -690.950000 -596.679000 1 1.000000 1 -3.000000
297 2 -337.535000 -686.175000 -588.040000 1 1.000000 1 -3.000000
298 2 -336.500000 -680.724000 -579.798000 1 1.000000 1 -3.000000
299 2 -334.281000 -677.062000 -570.826000 1 1.000000 1 -3.000000
300 2 -330.165000 -672.617000 -563.023000 1 1.000000 1 -3.000000
301 2 -323.975000 -669.113000 -556.114000 1 1.000000 1 -3.000000
302 2 -318.224000 -664.863000 -549.199000 1 1.000000 1 -3.000000
303 2 -312.726000 -659.685000 -542.820000 1 1.000000 1 -3.000000
304 2 -307.800000 -655.100000 -535.561000 1 1.000000 1 -3.000000
305 2 -301.042000 -650.458000 -530.056000 1 1.000000 1 -3.000000
306 2 -295.959000 -644.637000 -523.863000 1 1.000000 1 -3.000000
307 2 -292.019000 -638.303000 -517.422000 1 1.000000 1 -3.000000
308 2 -289.784000 -632.375000 -509.799000 1 1.000000 1 -3.000000
309 2 -286.709000 -627.375000 -501.752000 1 1.000000 1 -3.000000
310 2 -284.948000 -619.803000 -495.540000 1 1.000000 1 -3.000000
311 2 -283.587000 -611.191000 -490.871000 1 1.000000 1 -3.000000
312 2 -281.693000 -602.815000 -486.130000 1 1.000000 1 -3.000000
313 2 -279.905000 -594.581000 -480.790000 1 1.000000 1 -3.000000
314 2 -277.408000 -585.498000 -477.617000 1 1.000000 1 -3.000000
315 2 -273.711000 -576.448000 -476.414000 1 1.000000 1 -3.000000
316 2 -270.195000 -567.216000 -476.200000 1 1.000000 1 -3.000000
317 2 -267.746000 -557.651000 -475.844000 1 1.000000 1 -3.000000
318 2 -264.119000 -548.692000 -473.480000 1 1.000000 13 -3.000000
319 1 -294.845000 -535.781000 -440.100000 1 1.000000 13 0.000000
320 3 -296.603000 -570.900000 -439.507000 1 1.000000 13 0.000000
321 2 -325.293000 -544.478000 -405.122000 1 1.000000 13 -3.000000
322 2 -322.071000 -553.805000 -404.089000 1 1.000000 1 -3.000000
323 2 -317.838000 -562.376000 -401.499000 1 1.000000 1 -3.000000
324 2 -314.164000 -571.292000 -399.274000 1 1.000000 1 -3.000000
325 2 -308.544000 -579.433000 -398.558000 1 1.000000 1 -3.000000
326 2 -303.072000 -587.615000 -397.287000 1 1.000000 1 -3.000000
327 2 -298.322000 -595.875000 -394.224000 1 1.000000 1 -3.000000
328 2 -294.159000 -603.764000 -390.031000 1 1.000000 1 -3.000000
329 2 -290.376000 -611.430000 -384.906000 1 1.000000 1 -3.000000
330 2 -288.685000 -620.462000 -381.190000 1 1.000000 1 -3.000000
331 2 -286.742000 -629.827000 -378.588000 1 1.000000 1 -3.000000
332 2 -284.041000 -639.127000 -376.582000 1 1.000000 1 -3.000000
333 2 -280.751000 -648.393000 -377.250000 1 1.000000 1 -3.000000
334 2 -279.942000 -658.185000 -378.011000 1 1.000000 1 -3.000000
335 2 -277.607000 -667.652000 -379.467000 1 1.000000 1 -3.000000
336 2 -274.373000 -676.483000 -382.497000 1 1.000000 1 -3.000000
337 2 -271.786000 -685.196000 -386.325000 1 1.000000 1 -3.000000
338 2 -270.247000 -693.625000 -391.223000 1 1.000000 1 -3.000000
339 2 -267.413000 -702.603000 -394.152000 1 1.000000 1 -3.000000
340 2 -263.140000 -710.728000 -397.842000 1 1.000000 1 -3.000000
341 2 -258.516000 -718.456000 -402.047000 1 1.000000 1 -3.000000
342 2 -252.467000 -724.715000 -406.799000 1 1.000000 1 -3.000000
343 2 -246.113000 -731.387000 -410.444000 1 1.000000 1 -3.000000
344 2 -239.270000 -737.983000 -413.206000 1 1.000000 1 -3.000000
345 2 -232.839000 -743.661000 -418.279000 1 1.000000 14 -3.000000
346 1 -197.129000 -714.086000 -409.677000 1 1.000000 14 0.000000
347 3 -218.762000 -708.412000 -382.772000 1 1.000000 14 0.000000
348 2 -174.680000 -681.027000 -384.646000 1 1.000000 14 -3.000000
349 2 -178.662000 -682.548000 -375.752000 1 1.000000 1 -3.000000
350 2 -182.011000 -684.122000 -366.610000 1 1.000000 1 -3.000000
351 2 -184.842000 -688.106000 -357.995000 1 1.000000 1 -3.000000
352 2 -189.879000 -692.555000 -350.797000 1 1.000000 1 -3.000000
353 2 -195.299000 -698.006000 -344.479000 1 1.000000 1 -3.000000
354 2 -202.481000 -702.970000 -339.635000 1 1.000000 1 -3.000000
355 2 -209.159000 -707.590000 -333.884000 1 1.000000 1 -3.000000
356 2 -214.723000 -712.580000 -327.249000 1 1.000000 1 -3.000000
357 2 -219.933000 -717.178000 -320.110000 1 1.000000 1 -3.000000
358 2 -225.369000 -720.299000 -312.557000 1 1.000000 1 -3.000000
359 2 -230.151000 -722.477000 -304.213000 1 1.000000 1 -3.000000
360 2 -236.424000 -724.713000 -296.821000 1 1.000000 1 -3.000000
361 2 -241.580000 -727.341000 -288.711000 1 1.000000 1 -3.000000
362 2 -246.368000 -727.318000 -280.005000 1 1.000000 1 -3.000000
363 2 -251.683000 -730.234000 -272.116000 1 1.000000 1 -3.000000
364 2 -258.778000 -733.789000 -266.274000 1 1.000000 1 -3.000000
365 2 -266.142000 -737.680000 -260.949000 1 1.000000 1 -3.000000
366 2 -272.664000 -742.372000 -255.154000 1 1.000000 1 -3.000000
367 2 -279.647000 -746.812000 -249.814000 1 1.000000 1 -3.000000
368 2 -286.382000 -751.743000 -244.491000 1 1.000000 1 -3.000000
369 2 -291.135000 -757.217000 -237.737000 1 1.000000 1 -3.000000
370 2 -295.666000 -763.056000 -231.049000 1 1.000000 1 -3.000000
371 2 -298.562000 -767.924000 -223.041000 1 1.000000 1 -3.000000
372 2 -301.791000 -773.242000 -215.458000 1 1.000000 15 -3.000000
373 1 -260.651000 -791.968000 -202.146000 1 1.000000 15 0.000000
374 3 -251.042000 -763.164000 -219.426000 1 1.000000 15 0.000000
375 2 -213.473000 -794.162000 -201.393000 1 1.000000 15 -3.000000
376 2 -212.658000 -784.358000 -199.715000 1 1.000000 1 -3.000000
377 2 -211.168000 -774.649000 -199.136000 1 1.000000 1 -3.000000
378 2 -212.326000 -764.854000 -198.316000 1 1.000000 1 -3.000000
379 2 -214.399000 -755.360000 -196.618000 1 1.000000 1 -3.000000
380 2 -213.502000 -745.679000 -195.105000 1 1.000000 1 -3.000000
381 2 -211.101000 -736.531000 -192.322000 1 1.000000 1 -3.000000
382 2 -212.268000 -728.483000 -186.788000 1 1.000000 1 -3.000000
383 2 -214.311000 -720.632000 -181.193000 1 1.000000 1 -3.000000
384 2 -216.545000 -712.148000 -176.435000 1 1.000000 1 -3.000000
385 2 -220.934000 -705.170000 -171.016000 1 1.000000 1 -3.000000
386 2 -222.661000 -696.594000 -166.344000 1 1.000000 1 -3.000000
387 2 -223.511000 -688.239000 -161.188000 1 1.000000 1 -3.000000
388 2 -224.778000 -681.777000 -153.822000 1 1.000000 1 -3.000000
389 2 -225.076000 -674.107000 -147.544000 1 1.000000 1 -3.000000
390 2 -224.437000 -665.267000 -142.906000 1 1.000000 1 -3.000000
391 2 -221.923000 -656.453000 -139.260000 1 1.000000 1 -3.000000
392 2 -219.926000 -647.771000 -135.066000 1 1.000000 1 -3.000000
393 2 -217.029000 -638.612000 -132.403000 1 1.000000 1 -3.000000
394 2 -214.989000 -629.633000 -128.598000 1 1.000000 1 -3.000000
395 2 -211.329000 -620.624000 -126.896000 1 1.000000 1 -3.000000
396 2 -206.775000 -611.764000 -126.706000 1 1.000000 1 -3.000000
397 2 -202.507000 -603.180000 -124.053000 1 1.000000 1 -3.000000
398 2 -200.971000 -593.453000 -123.128000 1 1.000000 1 -3.000000
399 2 -197.008000 -584.411000 -124.324000 1 1.000000 16 -3.000000
400 1 -160.821000 -591.223000 -94.813800 1 1.000000 16 0.000000
401 3 -184.134000 -615.093000 -84.356000 1 1.000000 16 0.000000
402 2 -138.466000 -613.825000 -59.907500 1 1.000000 16 -3.000000
403 2 -145.267000 -620.739000 -57.820400 1 1.000000 1 -3.000000
404 2 -151.376000 -628.401000 -55.876000 1 1.000000 1 -3.000000
405 2 -157.406000 -636.245000 -55.542500 1 1.000000 1 -3.000000
406 2 -165.092000 -642.317000 -53.772700 1 1.000000 1 -3.000000
407 2 -173.116000 -647.524000 -56.025500 1 1.000000 1 -3.000000
408 2 -181.738000 -651.547000 -58.814700 1 1.000000 1 -3.000000
409 2 -191.029000 -654.196000 -60.830300 1 1.000000 1 -3.000000
410 2 -199.195000 -659.617000 -62.733600 1 1.000000 1 -3.000000
411 2 -205.014000 -667.104000 -65.478400 1 1.000000 1 -3.000000
412 2 -209.850000 -675.663000 -66.269500 1 1.000000 1 -3.000000
413 2 -214.546000 -683.955000 -69.281500 1 1.000000 1 -3.000000
414 2 -220.310000 -691.841000 -70.844500 1 1.000000 1 -3.000000
415 2 -228.504000 -696.999000 -72.919700 1 1.000000 1 -3.000000
416 2 -235.916000 -701.046000 -78.181900 1 1.000000 1 -3.000000
417 2 -244.381000 -704.719000 -81.787700 1 1.000000 1 -3.000000
418 2 -252.250000 -708.678000 -86.379100 1 1.000000 1 -3.000000
419 2 -259.141000 -713.424000 -91.835600 1 1.000000 1 -3.000000
420 2 -265.662000 -717.854000 -97.803200 1 1.000000 1 -3.000000
421 2 -273.433000 -720.786000 -103.211000 1 1.000000 1 -3.000000
422 2 -282.468000 -723.584000 -106.133000 1 1.000000 1 -3.000000
423 2 -291.810000 -726.601000 -104.753000 1 1.000000 1 -3.000000
424 2 -300.988000 -729.828000 -102.812000 1 1.000000 1 -3.000000
425 2 -308.977000 -735.029000 -100.216000 1 1.000000 1 -3.000000
426 2 -318.307000 -738.512000 -100.775000 1 1.000000 17 -3.000000
427 1 -311.707000 -751.143000 -55.800300 1 1.000000 17 0.000000
428 3 -287.702000 -726.220000 -60.776400 1 1.000000 17 0.000000
429 2 -289.200000 -749.459000 -14.364600 1 1.000000 17 -3.000000
430 2 -285.555000 -740.258000 -15.364100 1 1.000000 1 -3.000000
431 2 -281.856000 -731.156000 -16.625600 1 1.000000 1 -3.000000
432 2 -279.261000 -721.585000 -17.475200 1 1.000000 1 -3.000000
433 2 -277.299000 -712.438000 -20.719200 1 1.000000 1 -3.000000
434 2 -273.491000 -704.516000 -25.298400 1 1.000000 1 -3.000000
435 2 -270.055000 -696.589000 -29.995200 1 1.000000 1 -3.000000
436 2 -268.059000 -687.574000 -33.558700 1 1.000000 1 -3.000000
437 2 -264.524000 -679.920000 -38.628700 1 1.000000 1 -3.000000
438 2 -261.014000 -671.151000 -41.553300 1 1.000000 1 -3.000000
439 2 -256.785000 -663.386000 -46.025800 1 1.000000 1 -3.000000
440 2 -250.094000 -657.055000 -49.607900 1 1.000000 1 -3.000000
441 2 -244.657000 -649.363000 -52.548400 1 1.000000 1 -3.000000
442 2 -238.689000 -642.151000 -55.823900 1 1.000000 1 -3.000000
443 2 -234.640000 -635.329000 -61.681700 1 1.000000 1 -3.000000
444 2 -232.689000 -629.153000 -69.119900 1 1.000000 1 -3.000000
445 2 -230.637000 -623.895000 -77.346200 1 1.000000 1 -3.000000
446 2 -226.359000 -617.781000 -83.825500 1 1.000000 1 -3.000000
447 2 -224.448000 -610.166000 -89.800800 1 1.000000 1 -3.000000
448 2 -224.379000 -602.296000 -95.800400 1 1.000000 1 -3.000000
449 2 -221.694000 -593.505000 -99.299000 1 1.000000 1 -3.000000
450 2 -219.260000 -583.978000 -100.204000 1 1.000000 1 -3.000000
451 2 -216.531000 -574.476000 -99.342100 1 1.000000 1 -3.000000
452 2 -214.620000 -564.806000 -99.333600 1 1.000000 1 -3.000000
453 2 -212.482000 -555.247000 -97.618500 1 1.000000 18 -3.000000
454 1 -211.038000 -552.977000 -50.509400 1 1.000000 18 0.000000
455 3 -205.132000 -586.787000 -57.123100 1 1.000000 18 0.000000
456 2 -205.165000 -571.511000 -7.497230 1 1.000000 18 -3.000000
457 2 -202.690000 -580.802000 -9.991780 1 1.000000 1 -3.000000
458 2 -197.138000 -588.852000 -11.418600 1 1.000000 1 -3.000000
459 2 -192.153000 -596.605000 -15.326300 1 1.000000 1 -3.000000