LAMMPS data file

4067 atoms
4067 ellipsoids
4516 bonds
8882 angles
0 dihedrals

3 atom types
5 bond types
12 angle types
0 dihedral types

-4631.092947 4670.465898 xlo xhi
-4631.092947 4670.465898 ylo yhi
-4631.092947 4670.465898 zlo zhi

Masses

1 196016.000000
2 1950.000000
3 19500.000000

Atoms

1 2 744.987000 -856.977000 44.791700 1 1.000000 1 -3.000000
2 2 747.057000 -863.462000 37.600100 1 1.000000 1 -3.000000
3 2 751.292000 -870.776000 32.448200 1 1.000000 1 -3.000000
4 2 755.581000 -877.397000 26.427400 1 1.000000 1 -3.000000
5 2 760.438000 -883.902000 20.720600 1 1.000000 1 -3.000000
6 2 766.941000 -886.472000 13.654500 1 1.000000 1 -3.000000
7 2 773.204000 -885.217000 6.072780 1 1.000000 1 -3.000000
8 2 777.161000 -883.307000 -2.839080 1 1.000000 1 -3.000000
9 2 780.101000 -879.963000 -11.686100 1 1.000000 1 -3.000000
10 2 781.634000 -876.933000 -20.971100 1 1.000000 1 -3.000000
11 2 780.736000 -872.725000 -29.884200 1 1.000000 1 -3.000000
12 2 777.925000 -870.946000 -39.161400 1 1.000000 1 -3.000000
13 2 772.871000 -869.446000 -47.524700 1 1.000000 1 -3.000000
14 2 768.303000 -865.311000 -55.226900 1 1.000000 1 -3.000000
15 2 766.161000 -860.153000 -63.356400 1 1.000000 1 -3.000000
16 2 763.523000 -858.439000 -72.709100 1 1.000000 1 -3.000000
17 2 761.594000 -857.935000 -82.381500 1 1.000000 1 -3.000000
18 2 761.940000 -856.727000 -92.225800 1 1.000000 1 -3.000000
19 2 762.884000 -854.979000 -101.920000 1 1.000000 1 -3.000000
20 2 762.278000 -853.527000 -111.754000 1 1.000000 1 -3.000000
21 2 760.078000 -853.187000 -121.371000 1 1.000000 2 -3.000000
22 1 766.372000 -898.597000 -132.613000 1 1.000000 2 0.000000
23 3 761.603000 -899.522000 -97.975600 1 1.000000 2 0.000000
24 2 765.825000 -944.805000 -123.008000 1 1.000000 2 -3.000000
25 2 764.832000 -943.753000 -113.232000 1 1.000000 1 -3.000000
26 2 762.379000 -943.251000 -103.772000 1 1.000000 1 -3.000000
27 2 760.791000 -943.838000 -94.066000 1 1.000000 1 -3.000000
28 2 760.646000 -942.853000 -84.270800 1 1.000000 1 -3.000000
29 2 760.108000 -937.239000 -76.152600 1 1.000000 1 -3.000000
30 2 756.956000 -932.759000 -67.908200 1 1.000000 1 -3.000000
31 2 752.253000 -927.887000 -60.762100 1 1.000000 1 -3.000000
32 2 747.644000 -923.846000 -52.842600 1 1.000000 1 -3.000000
33 2 740.665000 -920.757000 -46.605200 1 1.000000 1 -3.000000
34 2 733.761000 -920.120000 -39.575700 1 1.000000 1 -3.000000
35 2 724.874000 -918.221000 -35.730300 1 1.000000 1 -3.000000
36 2 715.698000 -916.901000 -32.473300 1 1.000000 1 -3.000000
37 2 706.552000 -916.044000 -29.045000 1 1.000000 1 -3.000000
38 2 697.258000 -915.779000 -25.372100 1 1.000000 1 -3.000000
39 2 688.827000 -914.306000 -20.406800 1 1.000000 1 -3.000000
40 2 680.315000 -912.138000 -15.834400 1 1.000000 1 -3.000000
41 2 671.952000 -910.433000 -10.966800 1 1.000000 1 -3.000000
42 2 662.961000 -908.996000 -7.125990 1 1.000000 1 -3.000000
43 2 654.783000 -905.209000 -3.050830 1 1.000000 1 -3.000000
44 2 647.728000 -899.101000 0.287018 1 1.000000 1 -3.000000
45 2 640.989000 -891.817000 -0.140173 1 1.000000 1 -3.000000
46 2 633.674000 -885.389000 -1.868870 1 1.000000 1 -3.000000
47 2 629.575000 -876.414000 -0.888944 1 1.000000 1 -3.000000
48 2 625.240000 -868.159000 2.415430 1 1.000000 3 -3.000000
49 1 661.239000 -837.997000 -1.247630 1 1.000000 3 0.000000
50 3 673.471000 -866.831000 -16.836600 1 1.000000 3 0.000000
51 2 704.156000 -824.856000 -15.879700 1 1.000000 3 -3.000000
52 2 707.515000 -831.708000 -22.171700 1 1.000000 1 -3.000000
53 2 707.987000 -838.701000 -29.115700 1 1.000000 1 -3.000000
54 2 707.197000 -845.549000 -36.265600 1 1.000000 1 -3.000000
55 2 704.000000 -851.524000 -43.549700 1 1.000000 1 -3.000000
56 2 699.494000 -857.032000 -50.518800 1 1.000000 1 -3.000000
57 2 694.290000 -861.722000 -57.420000 1 1.000000 1 -3.000000
58 2 688.233000 -866.590000 -63.647100 1 1.000000 1 -3.000000
59 2 680.373000 -870.036000 -68.518700 1 1.000000 1 -3.000000
60 2 673.493000 -873.265000 -74.911200 1 1.000000 1 -3.000000
61 2 667.835000 -878.065000 -81.555600 1 1.000000 1 -3.000000
62 2 660.190000 -879.716000 -87.544400 1 1.000000 1 -3.000000
63 2 651.098000 -880.365000 -91.359900 1 1.000000 1 -3.000000
64 2 644.468000 -882.168000 -98.518500 1 1.000000 1 -3.000000
65 2 636.431000 -885.098000 -103.629000 1 1.000000 1 -3.000000
66 2 627.542000 -887.972000 -107.000000 1 1.000000 1 -3.000000
67 2 619.938000 -893.806000 -109.783000 1 1.000000 1 -3.000000
68 2 612.508000 -899.783000 -112.390000 1 1.000000 1 -3.000000
69 2 604.209000 -904.432000 -115.252000 1 1.000000 1 -3.000000
70 2 595.539000 -908.281000 -118.105000 1 1.000000 1 -3.000000
71 2 585.879000 -909.962000 -117.431000 1 1.000000 1 -3.000000
72 2 576.126000 -910.948000 -115.889000 1 1.000000 1 -3.000000
73 2 567.985000 -914.262000 -111.275000 1 1.000000 1 -3.000000
74 2 559.741000 -916.117000 -106.205000 1 1.000000 1 -3.000000
75 2 551.868000 -919.453000 -101.053000 1 1.000000 4 -3.000000
76 1 559.100000 -900.106000 -58.578200 1 1.000000 4 0.000000
77 3 586.268000 -888.543000 -77.469300 1 1.000000 4 0.000000
78 2 583.706000 -874.553000 -27.527500 1 1.000000 4 -3.000000
79 2 588.782000 -867.905000 -32.913500 1 1.000000 1 -3.000000
80 2 593.152000 -862.076000 -39.531400 1 1.000000 1 -3.000000
81 2 597.523000 -857.782000 -47.270500 1 1.000000 1 -3.000000
82 2 603.374000 -853.994000 -54.423100 1 1.000000 1 -3.000000
83 2 608.075000 -853.648000 -63.105800 1 1.000000 1 -3.000000
84 2 613.868000 -852.136000 -70.937500 1 1.000000 1 -3.000000
85 2 620.796000 -852.278000 -78.098100 1 1.000000 1 -3.000000
86 2 626.323000 -852.541000 -86.304800 1 1.000000 1 -3.000000
87 2 633.026000 -852.878000 -93.459900 1 1.000000 1 -3.000000
88 2 640.383000 -852.535000 -100.012000 1 1.000000 1 -3.000000
89 2 646.827000 -852.663000 -107.624000 1 1.000000 1 -3.000000
90 2 654.272000 -854.226000 -114.011000 1 1.000000 1 -3.000000
91 2 662.962000 -855.831000 -118.300000 1 1.000000 1 -3.000000
92 2 670.484000 -858.483000 -124.140000 1 1.000000 1 -3.000000
93 2 677.397000 -859.512000 -131.162000 1 1.000000 1 -3.000000
94 2 683.977000 -860.657000 -138.561000 1 1.000000 1 -3.000000
95 2 690.894000 -861.027000 -145.724000 1 1.000000 1 -3.000000
96 2 698.986000 -861.981000 -151.342000 1 1.000000 1 -3.000000
97 2 705.808000 -864.915000 -157.931000 1 1.000000 1 -3.000000
98 2 710.542000 -868.865000 -165.704000 1 1.000000 1 -3.000000
99 2 714.631000 -869.418000 -174.714000 1 1.000000 1 -3.000000
100 2 716.985000 -868.219000 -184.253000 1 1.000000 1 -3.000000
101 2 718.619000 -867.311000 -193.994000 1 1.000000 1 -3.000000
102 2 721.052000 -867.656000 -203.531000 1 1.000000 5 -3.000000
103 1 676.910000 -867.859000 -220.283000 1 1.000000 5 0.000000
104 3 672.896000 -856.987000 -187.371000 1 1.000000 5 0.000000
105 2 630.609000 -859.490000 -217.237000 1 1.000000 5 -3.000000
106 2 632.007000 -857.342000 -207.793000 1 1.000000 1 -3.000000
107 2 631.537000 -855.390000 -198.168000 1 1.000000 1 -3.000000
108 2 629.296000 -851.612000 -189.299000 1 1.000000 1 -3.000000
109 2 628.916000 -848.401000 -179.849000 1 1.000000 1 -3.000000
110 2 631.660000 -846.192000 -170.564000 1 1.000000 1 -3.000000
111 2 632.517000 -843.946000 -160.871000 1 1.000000 1 -3.000000
112 2 634.571000 -840.152000 -151.967000 1 1.000000 1 -3.000000
113 2 637.384000 -835.523000 -143.600000 1 1.000000 1 -3.000000
114 2 638.385000 -828.931000 -136.384000 1 1.000000 1 -3.000000
115 2 641.966000 -823.199000 -129.177000 1 1.000000 1 -3.000000
116 2 644.970000 -818.866000 -120.808000 1 1.000000 1 -3.000000
117 2 649.452000 -815.679000 -112.550000 1 1.000000 1 -3.000000
118 2 652.984000 -814.220000 -103.459000 1 1.000000 1 -3.000000
119 2 655.651000 -812.152000 -94.113600 1 1.000000 1 -3.000000
120 2 659.115000 -810.787000 -84.986000 1 1.000000 1 -3.000000
121 2 663.878000 -808.466000 -76.648500 1 1.000000 1 -3.000000
122 2 668.331000 -807.035000 -67.901700 1 1.000000 1 -3.000000
123 2 673.881000 -803.479000 -60.562200 1 1.000000 1 -3.000000
124 2 680.025000 -798.837000 -54.350000 1 1.000000 1 -3.000000
125 2 687.035000 -793.058000 -50.417200 1 1.000000 1 -3.000000
126 2 693.790000 -786.128000 -47.934600 1 1.000000 1 -3.000000
127 2 699.871000 -778.277000 -47.727800 1 1.000000 1 -3.000000
128 2 706.868000 -771.288000 -47.294600 1 1.000000 1 -3.000000
129 2 713.610000 -764.210000 -48.362600 1 1.000000 6 -3.000000
130 1 698.031000 -741.068000 -86.401800 1 1.000000 6 0.000000
131 3 672.247000 -763.786000 -79.655500 1 1.000000 6 0.000000
132 2 666.437000 -731.776000 -120.183000 1 1.000000 6 -3.000000
133 2 658.391000 -735.781000 -115.826000 1 1.000000 1 -3.000000
134 2 650.362000 -739.229000 -111.310000 1 1.000000 1 -3.000000
135 2 642.274000 -742.245000 -106.486000 1 1.000000 1 -3.000000
136 2 635.249000 -746.436000 -100.861000 1 1.000000 1 -3.000000
137 2 630.689000 -752.620000 -94.465000 1 1.000000 1 -3.000000
138 2 628.360000 -756.476000 -85.645900 1 1.000000 1 -3.000000
139 2 624.902000 -760.832000 -77.520200 1 1.000000 1 -3.000000
140 2 624.123000 -764.830000 -68.414400 1 1.000000 1 -3.000000
141 2 621.404000 -768.599000 -59.672200 1 1.000000 1 -3.000000
142 2 616.951000 -772.027000 -51.682900 1 1.000000 1 -3.000000
143 2 612.694000 -774.590000 -43.142900 1 1.000000 1 -3.000000
144 2 607.810000 -779.074000 -35.744500 1 1.000000 1 -3.000000
145 2 604.969000 -783.168000 -27.249100 1 1.000000 1 -3.000000
146 2 602.531000 -788.666000 -19.415600 1 1.000000 1 -3.000000
147 2 597.755000 -793.664000 -12.352000 1 1.000000 1 -3.000000
148 2 592.493000 -798.844000 -5.716460 1 1.000000 1 -3.000000
149 2 587.841000 -805.296000 0.032628 1 1.000000 1 -3.000000
150 2 583.899000 -813.080000 4.814520 1 1.000000 1 -3.000000
151 2 579.158000 -819.596000 10.492800 1 1.000000 1 -3.000000
152 2 574.748000 -825.274000 17.227600 1 1.000000 1 -3.000000
153 2 571.123000 -830.004000 25.182000 1 1.000000 1 -3.000000
154 2 567.709000 -833.767000 33.697400 1 1.000000 1 -3.000000
155 2 564.147000 -836.286000 42.588900 1 1.000000 1 -3.000000
156 2 562.828000 -838.142000 52.228700 1 1.000000 7 -3.000000
157 1 597.500000 -814.984000 74.395900 1 1.000000 7 0.000000
158 3 594.112000 -797.390000 44.288700 1 1.000000 7 0.000000
159 2 627.254000 -778.814000 79.719500 1 1.000000 7 -3.000000
160 2 623.482000 -773.149000 72.442500 1 1.000000 1 -3.000000
161 2 620.376000 -767.181000 65.243600 1 1.000000 1 -3.000000
162 2 616.361000 -762.137000 57.686500 1 1.000000 1 -3.000000
163 2 612.480000 -757.579000 49.743500 1 1.000000 1 -3.000000
164 2 606.006000 -754.356000 43.052800 1 1.000000 1 -3.000000
165 2 601.197000 -755.751000 34.471900 1 1.000000 1 -3.000000
166 2 596.098000 -758.132000 26.317300 1 1.000000 1 -3.000000
167 2 589.388000 -760.795000 19.583800 1 1.000000 1 -3.000000
168 2 582.247000 -761.676000 12.764700 1 1.000000 1 -3.000000
169 2 576.075000 -759.961000 5.268580 1 1.000000 1 -3.000000
170 2 570.527000 -757.081000 -2.417540 1 1.000000 1 -3.000000
171 2 564.632000 -753.897000 -9.839210 1 1.000000 1 -3.000000
172 2 558.760000 -750.968000 -17.255600 1 1.000000 1 -3.000000
173 2 555.116000 -747.768000 -25.862500 1 1.000000 1 -3.000000
174 2 550.488000 -744.040000 -33.699000 1 1.000000 1 -3.000000
175 2 545.862000 -740.286000 -41.607400 1 1.000000 1 -3.000000
176 2 541.603000 -735.679000 -49.288900 1 1.000000 1 -3.000000
177 2 539.340000 -731.063000 -57.755800 1 1.000000 1 -3.000000
178 2 537.567000 -726.046000 -66.115400 1 1.000000 1 -3.000000
179 2 535.319000 -721.493000 -74.611000 1 1.000000 1 -3.000000
180 2 531.094000 -716.499000 -82.075800 1 1.000000 1 -3.000000
181 2 527.649000 -712.925000 -90.636700 1 1.000000 1 -3.000000
182 2 522.953000 -711.854000 -99.293200 1 1.000000 1 -3.000000
183 2 520.326000 -711.403000 -108.880000 1 1.000000 8 -3.000000
184 1 496.906000 -751.837000 -115.391000 1 1.000000 8 0.000000
185 3 505.407000 -752.878000 -81.431200 1 1.000000 8 0.000000
186 2 476.691000 -791.810000 -100.486000 1 1.000000 8 -3.000000
187 2 479.356000 -790.429000 -91.027000 1 1.000000 1 -3.000000
188 2 479.804000 -790.181000 -81.154000 1 1.000000 1 -3.000000
189 2 480.894000 -789.246000 -71.392400 1 1.000000 1 -3.000000
190 2 484.077000 -786.669000 -62.410700 1 1.000000 1 -3.000000
191 2 487.114000 -783.034000 -53.747000 1 1.000000 1 -3.000000
192 2 488.793000 -778.541000 -45.109200 1 1.000000 1 -3.000000
193 2 490.826000 -774.500000 -36.334600 1 1.000000 1 -3.000000
194 2 493.026000 -770.212000 -27.701000 1 1.000000 1 -3.000000
195 2 495.068000 -766.544000 -18.693800 1 1.000000 1 -3.000000
196 2 497.103000 -762.548000 -9.839610 1 1.000000 1 -3.000000
197 2 498.610000 -757.088000 -1.638060 1 1.000000 1 -3.000000
198 2 501.149000 -752.005000 6.572320 1 1.000000 1 -3.000000
199 2 503.119000 -745.684000 13.924900 1 1.000000 1 -3.000000
200 2 502.750000 -740.937000 22.672800 1 1.000000 1 -3.000000
201 2 500.786000 -736.296000 31.288200 1 1.000000 1 -3.000000
202 2 498.913000 -732.766000 40.326700 1 1.000000 1 -3.000000
203 2 497.887000 -730.241000 49.797800 1 1.000000 1 -3.000000
204 2 498.391000 -725.754000 58.585200 1 1.000000 1 -3.000000
205 2 501.008000 -721.993000 67.436400 1 1.000000 1 -3.000000
206 2 504.731000 -717.840000 75.626300 1 1.000000 1 -3.000000
207 2 510.886000 -713.480000 82.031700 1 1.000000 1 -3.000000
208 2 517.309000 -708.777000 87.946700 1 1.000000 1 -3.000000
209 2 523.851000 -704.010000 93.542800 1 1.000000 1 -3.000000
210 2 530.765000 -699.627000 99.170600 1 1.000000 9 -3.000000
211 1 566.543000 -700.640000 68.405100 1 1.000000 9 0.000000
212 3 538.625000 -706.798000 48.319600 1 1.000000 9 0.000000
213 2 584.926000 -704.772000 25.149300 1 1.000000 9 -3.000000
214 2 576.915000 -700.685000 21.088500 1 1.000000 1 -3.000000
215 2 569.199000 -696.173000 16.628000 1 1.000000 1 -3.000000
216 2 561.220000 -693.072000 11.636000 1 1.000000 1 -3.000000
217 2 552.488000 -692.652000 6.968680 1 1.000000 1 -3.000000
218 2 542.645000 -693.088000 5.988300 1 1.000000 1 -3.000000
219 2 532.751000 -693.380000 6.800910 1 1.000000 1 -3.000000
220 2 523.085000 -695.494000 7.686980 1 1.000000 1 -3.000000
221 2 513.832000 -697.739000 10.363200 1 1.000000 1 -3.000000
222 2 505.044000 -701.351000 13.221800 1 1.000000 1 -3.000000
223 2 496.445000 -705.741000 15.537100 1 1.000000 1 -3.000000
224 2 488.455000 -711.094000 17.958400 1 1.000000 1 -3.000000
225 2 479.866000 -715.542000 19.965200 1 1.000000 1 -3.000000
226 2 472.135000 -721.307000 22.279700 1 1.000000 1 -3.000000
227 2 464.839000 -727.836000 24.172500 1 1.000000 1 -3.000000
228 2 457.750000 -733.859000 27.149000 1 1.000000 1 -3.000000
229 2 450.111000 -738.959000 30.622700 1 1.000000 1 -3.000000
230 2 443.890000 -745.029000 35.277200 1 1.000000 1 -3.000000
231 2 436.246000 -750.293000 38.873300 1 1.000000 1 -3.000000
232 2 428.406000 -756.399000 38.820600 1 1.000000 1 -3.000000
233 2 420.370000 -762.123000 39.145400 1 1.000000 1 -3.000000
234 2 411.867000 -767.039000 40.896400 1 1.000000 1 -3.000000
235 2 403.455000 -772.215000 41.844800 1 1.000000 1 -3.000000
236 2 395.442000 -778.045000 42.057800 1 1.000000 1 -3.000000
237 2 386.366000 -781.977000 42.867400 1 1.000000 10 -3.000000
238 1 374.758000 -762.991000 84.476800 1 1.000000 10 0.000000
239 3 397.637000 -739.972000 71.461300 1 1.000000 10 0.000000
240 2 377.048000 -729.822000 117.924000 1 1.000000 10 -3.000000
241 2 381.009000 -722.922000 112.156000 1 1.000000 1 -3.000000
242 2 386.671000 -716.374000 107.520000 1 1.000000 1 -3.000000
243 2 393.050000 -710.336000 102.949000 1 1.000000 1 -3.000000
244 2 398.799000 -704.824000 97.016100 1 1.000000 1 -3.000000
245 2 402.052000 -699.741000 89.232700 1 1.000000 1 -3.000000
246 2 406.673000 -695.862000 81.398700 1 1.000000 1 -3.000000
247 2 408.805000 -692.787000 72.236400 1 1.000000 1 -3.000000
248 2 409.443000 -688.589000 63.242700 1 1.000000 1 -3.000000
249 2 408.749000 -683.200000 54.952700 1 1.000000 1 -3.000000
250 2 407.070000 -680.600000 45.529700 1 1.000000 1 -3.000000
251 2 406.309000 -677.203000 36.231200 1 1.000000 1 -3.000000
252 2 407.029000 -673.123000 27.322300 1 1.000000 1 -3.000000
253 2 409.704000 -667.395000 19.751700 1 1.000000 1 -3.000000
254 2 413.144000 -661.939000 12.237600 1 1.000000 1 -3.000000
255 2 417.134000 -656.935000 4.746860 1 1.000000 1 -3.000000
256 2 421.454000 -655.310000 -4.030590 1 1.000000 1 -3.000000
257 2 424.716000 -653.600000 -13.211300 1 1.000000 1 -3.000000
258 2 429.751000 -649.911000 -20.897000 1 1.000000 1 -3.000000
259 2 435.365000 -644.687000 -27.079300 1 1.000000 1 -3.000000
260 2 441.483000 -640.588000 -33.684000 1 1.000000 1 -3.000000
261 2 443.813000 -638.636000 -43.006900 1 1.000000 1 -3.000000
262 2 446.900000 -634.983000 -51.781900 1 1.000000 1 -3.000000
263 2 451.588000 -632.666000 -60.135600 1 1.000000 1 -3.000000
264 2 458.631000 -630.978000 -66.893600 1 1.000000 11 -3.000000
265 1 457.741000 -674.759000 -84.378400 1 1.000000 11 0.000000
266 3 438.084000 -677.312000 -55.669700 1 1.000000 11 0.000000
267 2 445.695000 -720.382000 -83.599900 1 1.000000 11 -3.000000
268 2 439.825000 -721.267000 -75.697600 1 1.000000 1 -3.000000
269 2 433.235000 -721.112000 -68.330500 1 1.000000 1 -3.000000
270 2 426.280000 -719.244000 -61.454100 1 1.000000 1 -3.000000
271 2 418.662000 -715.658000 -56.232200 1 1.000000 1 -3.000000
272 2 411.041000 -712.381000 -50.787200 1 1.000000 1 -3.000000
273 2 403.082000 -709.528000 -45.569500 1 1.000000 1 -3.000000
274 2 394.168000 -707.513000 -41.818900 1 1.000000 1 -3.000000
275 2 385.110000 -704.763000 -38.856400 1 1.000000 1 -3.000000
276 2 376.695000 -699.799000 -37.096400 1 1.000000 1 -3.000000
277 2 367.175000 -696.993000 -36.910000 1 1.000000 1 -3.000000
278 2 358.224000 -693.591000 -34.937500 1 1.000000 1 -3.000000
279 2 349.213000 -690.676000 -32.078900 1 1.000000 1 -3.000000
280 2 340.325000 -686.283000 -31.869300 1 1.000000 1 -3.000000
281 2 332.237000 -680.798000 -30.691200 1 1.000000 1 -3.000000
282 2 324.855000 -676.040000 -25.991300 1 1.000000 1 -3.000000
283 2 316.605000 -672.164000 -22.099200 1 1.000000 1 -3.000000
284 2 308.078000 -668.288000 -18.894400 1 1.000000 1 -3.000000
285 2 299.516000 -665.153000 -15.045900 1 1.000000 1 -3.000000
286 2 290.936000 -661.827000 -11.284500 1 1.000000 1 -3.000000
287 2 281.124000 -661.166000 -11.721300 1 1.000000 1 -3.000000
288 2 271.451000 -660.942000 -13.859800 1 1.000000 1 -3.000000
289 2 262.305000 -663.667000 -16.672600 1 1.000000 1 -3.000000
290 2 253.833000 -667.184000 -20.087400 1 1.000000 1 -3.000000
291 2 244.807000 -666.011000 -24.269700 1 1.000000 12 -3.000000
292 1 252.481000 -701.531000 -54.314100 1 1.000000 12 0.000000
293 3 282.332000 -699.991000 -36.004500 1 1.000000 12 0.000000
294 2 278.342000 -736.328000 -72.943700 1 1.000000 12 -3.000000
295 2 284.574000 -737.342000 -65.280700 1 1.000000 1 -3.000000
296 2 290.330000 -740.172000 -57.837500 1 1.000000 1 -3.000000
297 2 295.593000 -741.422000 -49.535600 1 1.000000 1 -3.000000
298 2 301.650000 -740.704000 -41.731500 1 1.000000 1 -3.000000
299 2 306.705000 -738.356000 -33.477800 1 1.000000 1 -3.000000
300 2 310.107000 -734.259000 -25.050200 1 1.000000 1 -3.000000
301 2 312.593000 -729.106000 -17.020200 1 1.000000 1 -3.000000
302 2 315.966000 -724.885000 -8.799000 1 1.000000 1 -3.000000
303 2 319.802000 -719.446000 -1.306270 1 1.000000 1 -3.000000
304 2 323.863000 -714.678000 6.248320 1 1.000000 1 -3.000000
305 2 325.193000 -709.835000 14.798200 1 1.000000 1 -3.000000
306 2 328.867000 -707.115000 23.524300 1 1.000000 1 -3.000000
307 2 335.490000 -706.520000 30.937800 1 1.000000 1 -3.000000
308 2 343.635000 -704.562000 36.283000 1 1.000000 1 -3.000000
309 2 352.170000 -702.888000 41.111600 1 1.000000 1 -3.000000
310 2 359.789000 -700.000000 46.682900 1 1.000000 1 -3.000000
311 2 366.971000 -697.596000 53.073000 1 1.000000 1 -3.000000
312 2 372.771000 -694.827000 60.731800 1 1.000000 1 -3.000000
313 2 377.549000 -689.855000 67.826200 1 1.000000 1 -3.000000
314 2 383.516000 -683.502000 72.515400 1 1.000000 1 -3.000000
315 2 387.885000 -676.506000 77.952400 1 1.000000 1 -3.000000
316 2 391.419000 -671.727000 85.856400 1 1.000000 1 -3.000000
317 2 395.117000 -670.477000 94.868500 1 1.000000 1 -3.000000
318 2 394.243000 -669.967000 104.754000 1 1.000000 13 -3.000000
319 1 439.192000 -662.948000 117.216000 1 1.000000 13 0.000000
320 3 440.377000 -662.066000 82.255300 1 1.000000 13 0.000000
321 2 484.791000 -654.895000 108.300000 1 1.000000 13 -3.000000
322 2 484.709000 -652.022000 98.870000 1 1.000000 1 -3.000000
323 2 484.193000 -649.082000 89.504900 1 1.000000 1 -3.000000
324 2 482.078000 -644.628000 80.891000 1 1.000000 1 -3.000000
325 2 478.808000 -643.617000 71.595500 1 1.000000 1 -3.000000
326 2 474.438000 -642.347000 62.806800 1 1.000000 1 -3.000000
327 2 468.824000 -641.383000 54.805200 1 1.000000 1 -3.000000
328 2 460.899000 -638.845000 49.379200 1 1.000000 1 -3.000000
329 2 453.900000 -636.792000 42.725300 1 1.000000 1 -3.000000
330 2 449.214000 -632.239000 35.260700 1 1.000000 1 -3.000000
331 2 445.495000 -626.258000 28.239300 1 1.000000 1 -3.000000
332 2 440.298000 -619.334000 23.484800 1 1.000000 1 -3.000000
333 2 434.681000 -611.528000 21.059900 1 1.000000 1 -3.000000
334 2 427.749000 -605.531000 17.320700 1 1.000000 1 -3.000000
335 2 421.453000 -598.237000 15.223000 1 1.000000 1 -3.000000
336 2 413.654000 -592.248000 14.024100 1 1.000000 1 -3.000000
337 2 405.695000 -587.370000 10.754000 1 1.000000 1 -3.000000
338 2 397.886000 -583.145000 6.469900 1 1.000000 1 -3.000000
339 2 390.062000 -580.173000 1.286680 1 1.000000 1 -3.000000
340 2 380.591000 -578.787000 -1.369710 1 1.000000 1 -3.000000
341 2 370.842000 -580.147000 -2.232590 1 1.000000 1 -3.000000
342 2 361.490000 -577.161000 -3.655890 1 1.000000 1 -3.000000
343 2 352.873000 -572.306000 -2.679250 1 1.000000 1 -3.000000
344 2 343.076000 -571.561000 -1.189670 1 1.000000 1 -3.000000
345 2 334.454000 -567.986000 2.074890 1 1.000000 14 -3.000000
346 1 343.593000 -521.713000 0.118094 1 1.000000 14 0.000000
347 3 371.377000 -536.025000 -15.844100 1 1.000000 14 0.000000
348 2 368.980000 -484.204000 -13.081500 1 1.000000 14 -3.000000
349 2 375.604000 -488.038000 -19.426300 1 1.000000 1 -3.000000
350 2 382.667000 -491.935000 -25.198400 1 1.000000 1 -3.000000
351 2 388.711000 -497.953000 -30.265800 1 1.000000 1 -3.000000
352 2 392.264000 -504.166000 -37.097800 1 1.000000 1 -3.000000
353 2 395.200000 -511.334000 -43.355900 1 1.000000 1 -3.000000
354 2 395.436000 -519.330000 -49.289700 1 1.000000 1 -3.000000
355 2 394.705000 -527.595000 -54.750600 1 1.000000 1 -3.000000
356 2 396.843000 -536.665000 -58.109000 1 1.000000 1 -3.000000
357 2 398.883000 -545.897000 -60.975300 1 1.000000 1 -3.000000
358 2 400.989000 -554.399000 -65.649900 1 1.000000 1 -3.000000
359 2 402.480000 -562.398000 -71.298000 1 1.000000 1 -3.000000
360 2 404.871000 -570.173000 -76.838100 1 1.000000 1 -3.000000
361 2 407.617000 -578.994000 -80.357000 1 1.000000 1 -3.000000
362 2 411.903000 -587.099000 -84.306800 1 1.000000 1 -3.000000
363 2 415.852000 -595.760000 -87.086600 1 1.000000 1 -3.000000
364 2 421.457000 -603.074000 -90.834400 1 1.000000 1 -3.000000
365 2 427.987000 -608.816000 -95.506800 1 1.000000 1 -3.000000
366 2 435.892000 -614.139000 -98.019800 1 1.000000 1 -3.000000
367 2 444.215000 -619.203000 -99.808900 1 1.000000 1 -3.000000
368 2 451.818000 -624.549000 -103.091000 1 1.000000 1 -3.000000
369 2 458.537000 -627.262000 -109.780000 1 1.000000 1 -3.000000
370 2 465.177000 -630.712000 -116.302000 1 1.000000 1 -3.000000
371 2 470.493000 -635.575000 -123.043000 1 1.000000 1 -3.000000
372 2 474.938000 -641.264000 -129.897000 1 1.000000 15 -3.000000
373 1 443.070000 -645.090000 -164.470000 1 1.000000 15 0.000000
374 3 428.010000 -622.839000 -142.127000 1 1.000000 15 0.000000
375 2 401.728000 -635.385000 -185.024000 1 1.000000 15 -3.000000
376 2 399.254000 -627.886000 -179.139000 1 1.000000 1 -3.000000
377 2 397.474000 -620.762000 -172.417000 1 1.000000 1 -3.000000
378 2 395.372000 -613.395000 -166.051000 1 1.000000 1 -3.000000
379 2 392.263000 -606.310000 -159.854000 1 1.000000 1 -3.000000
380 2 389.837000 -598.990000 -153.721000 1 1.000000 1 -3.000000
381 2 383.475000 -593.371000 -148.437000 1 1.000000 1 -3.000000
382 2 376.760000 -588.143000 -143.487000 1 1.000000 1 -3.000000
383 2 368.979000 -582.823000 -140.286000 1 1.000000 1 -3.000000
384 2 360.639000 -577.443000 -139.600000 1 1.000000 1 -3.000000
385 2 352.488000 -572.139000 -138.008000 1 1.000000 1 -3.000000
386 2 343.780000 -567.553000 -137.013000 1 1.000000 1 -3.000000
387 2 335.239000 -562.521000 -136.437000 1 1.000000 1 -3.000000
388 2 326.874000 -558.553000 -132.866000 1 1.000000 1 -3.000000
389 2 319.872000 -554.228000 -127.398000 1 1.000000 1 -3.000000
390 2 312.738000 -550.589000 -121.594000 1 1.000000 1 -3.000000
391 2 306.462000 -545.898000 -115.497000 1 1.000000 1 -3.000000
392 2 299.973000 -541.432000 -109.439000 1 1.000000 1 -3.000000
393 2 294.332000 -536.195000 -103.292000 1 1.000000 1 -3.000000
394 2 290.455000 -528.775000 -98.064000 1 1.000000 1 -3.000000
395 2 289.422000 -519.608000 -94.428100 1 1.000000 1 -3.000000
396 2 289.774000 -509.916000 -92.395500 1 1.000000 1 -3.000000
397 2 291.325000 -500.784000 -89.002600 1 1.000000 1 -3.000000
398 2 293.239000 -491.319000 -86.900500 1 1.000000 1 -3.000000
399 2 295.273000 -482.048000 -84.057400 1 1.000000 16 -3.000000
400 1 315.002000 -469.818000 -125.096000 1 1.000000 16 0.000000
401 3 302.434000 -501.816000 -131.468000 1 1.000000 16 0.000000
402 2 326.480000 -476.927000 -170.287000 1 1.000000 16 -3.000000
403 2 322.414000 -485.942000 -171.522000 1 1.000000 1 -3.000000
404 2 318.205000 -494.792000 -173.031000 1 1.000000 1 -3.000000
405 2 311.779000 -501.942000 -175.354000 1 1.000000 1 -3.000000
406 2 305.505000 -509.361000 -174.004000 1 1.000000 1 -3.000000
407 2 298.563000 -516.032000 -171.810000 1 1.000000 1 -3.000000
408 2 292.064000 -523.101000 -169.598000 1 1.000000 1 -3.000000
409 2 285.706000 -529.745000 -165.862000 1 1.000000 1 -3.000000
410 2 278.343000 -534.750000 -161.552000 1 1.000000 1 -3.000000
411 2 269.961000 -539.276000 -159.013000 1 1.000000 1 -3.000000
412 2 262.186000 -544.758000 -156.228000 1 1.000000 1 -3.000000
413 2 253.928000 -549.117000 -153.221000 1 1.000000 1 -3.000000
414 2 245.388000 -553.315000 -150.711000 1 1.000000 1 -3.000000
415 2 236.383000 -557.158000 -149.114000 1 1.000000 1 -3.000000
416 2 228.771000 -563.368000 -147.768000 1 1.000000 1 -3.000000
417 2 220.628000 -567.859000 -144.676000 1 1.000000 1 -3.000000
418 2 212.445000 -572.484000 -141.634000 1 1.000000 1 -3.000000
419 2 204.637000 -578.120000 -139.245000 1 1.000000 1 -3.000000
420 2 196.891000 -583.960000 -137.201000 1 1.000000 1 -3.000000
421 2 188.712000 -589.562000 -136.670000 1 1.000000 1 -3.000000
422 2 181.752000 -596.537000 -137.249000 1 1.000000 1 -3.000000
423 2 176.521000 -604.762000 -138.605000 1 1.000000 1 -3.000000
424 2 170.964000 -612.937000 -138.941000 1 1.000000 1 -3.000000
425 2 164.209000 -620.284000 -139.582000 1 1.000000 1 -3.000000
426 2 158.580000 -628.286000 -140.308000 1 1.000000 17 -3.000000
427 1 166.093000 -639.155000 -95.014500 1 1.000000 17 0.000000
428 3 167.373000 -604.218000 -95.180200 1 1.000000 17 0.000000
429 2 172.245000 -628.330000 -49.506300 1 1.000000 17 -3.000000
430 2 169.026000 -618.913000 -49.764500 1 1.000000 1 -3.000000
431 2 165.019000 -609.887000 -49.581900 1 1.000000 1 -3.000000
432 2 161.007000 -600.794000 -50.378100 1 1.000000 1 -3.000000
433 2 156.349000 -592.555000 -53.075200 1 1.000000 1 -3.000000
434 2 151.216000 -584.306000 -54.881800 1 1.000000 1 -3.000000
435 2 145.172000 -576.663000 -56.693900 1 1.000000 1 -3.000000
436 2 140.655000 -567.959000 -58.245100 1 1.000000 1 -3.000000
437 2 137.257000 -558.713000 -59.739500 1 1.000000 1 -3.000000
438 2 131.139000 -551.002000 -60.421400 1 1.000000 1 -3.000000
439 2 124.910000 -543.302000 -60.179300 1 1.000000 1 -3.000000
440 2 119.677000 -535.069000 -58.565400 1 1.000000 1 -3.000000
441 2 114.419000 -526.694000 -58.873500 1 1.000000 1 -3.000000
442 2 109.773000 -517.884000 -59.087700 1 1.000000 1 -3.000000
443 2 105.359000 -509.558000 -62.129900 1 1.000000 1 -3.000000
444 2 100.183000 -502.221000 -66.435800 1 1.000000 1 -3.000000
445 2 93.579500 -496.434000 -71.035300 1 1.000000 1 -3.000000
446 2 86.923700 -491.640000 -76.623500 1 1.000000 1 -3.000000
447 2 80.593000 -485.802000 -81.499200 1 1.000000 1 -3.000000
448 2 73.988300 -481.900000 -87.895700 1 1.000000 1 -3.000000
449 2 65.958500 -481.183000 -93.545600 1 1.000000 1 -3.000000
450 2 57.198500 -478.495000 -97.347200 1 1.000000 1 -3.000000
451 2 47.432300 -478.836000 -99.130000 1 1.000000 1 -3.000000
452 2 37.785300 -478.618000 -100.985000 1 1.000000 1 -3.000000
453 2 28.335500 -478.157000 -103.782000 1 1.000000 18 -3.000000
454 1 17.088100 -514.282000 -75.563300 1 1.000000 18 0.000000
455 3 46.633900 -501.909000 -61.312700 1 1.000000 18 0.000000
456 2 26.045100 -544.875000 -40.716100 1 1.000000 18 -3.000000
457 2 33.388700 -539.956000 -36.255500 1 1.000000 1 -3.000000
458 2 39.894100 -533.576000 -32.317900 1 1.000000 1 -3.000000
459 2 45.631300 -527.797000 -26.718000 1 1.000000 1 -3.000000
460 2 50.941100 -520.526000 -22.737500 1 1.000000 1 -3.000000
461 2 57.071200 -513.226000 -20.146600 1 1.000000 1 -3.000000
462 2 62.933700 -505.651000 -17.558100 1 1.000000 1 -3.000000
463 2 69.086900 -498.142000 -15.849100 1 1.000000 1 -3.000000
464 2 73.886600 -489.861000 -13.410000 1 1.000000 1 -3.000000
465 2 77.384600 -481.281000 -9.842880 1 1.000000 1 -3.000000
466 2 80.154100 -473.558000 -4.477950 1 1.000000 1 -3.000000
467 2 82.355100 -465.030000 -0.110136 1 1.000000 1 -3.000000
468 2 82.724600 -456.307000 4.498630 1 1.000000 1 -3.000000
469 2 81.588400 -446.821000 7.101680 1 1.000000 1 -3.000000
470 2 79.865900 -437.476000 9.851390 1 1.000000 1 -3.000000
471 2 79.545200 -427.580000 10.937900 1 1.000000 1 -3.000000
472 2 78.820000 -417.742000 11.773100 1 1.000000 1 -3.000000
473 2 77.430800 -408.205000 14.040000 1 1.000000 1 -3.000000
474 2 78.237100 -398.396000 15.015400 1 1.000000 1 -3.000000