LAMMPS data file

4067 atoms
4067 ellipsoids
4516 bonds
8882 angles
0 dihedrals

3 atom types
5 bond types
12 angle types
0 dihedral types

-4631.092947 4670.465898 xlo xhi
-4631.092947 4670.465898 ylo yhi
-4631.092947 4670.465898 zlo zhi

Masses

1 196016.000000
2 1950.000000
3 19500.000000

Atoms

1 2 265.100000 -262.333000 206.654000 1 1.000000 1 -3.000000
2 2 274.245000 -261.745000 210.277000 1 1.000000 1 -3.000000
3 2 283.535000 -261.959000 213.530000 1 1.000000 1 -3.000000
4 2 293.298000 -261.574000 214.884000 1 1.000000 1 -3.000000
5 2 303.016000 -261.380000 216.304000 1 1.000000 1 -3.000000
6 2 312.755000 -260.961000 217.434000 1 1.000000 1 -3.000000
7 2 322.481000 -261.652000 218.762000 1 1.000000 1 -3.000000
8 2 331.146000 -266.487000 219.220000 1 1.000000 1 -3.000000
9 2 339.679000 -271.354000 220.216000 1 1.000000 1 -3.000000
10 2 348.934000 -273.767000 222.579000 1 1.000000 1 -3.000000
11 2 358.237000 -274.273000 225.938000 1 1.000000 1 -3.000000
12 2 367.276000 -274.449000 229.810000 1 1.000000 1 -3.000000
13 2 376.074000 -274.596000 234.294000 1 1.000000 1 -3.000000
14 2 383.318000 -274.388000 241.046000 1 1.000000 1 -3.000000
15 2 391.396000 -273.483000 246.758000 1 1.000000 1 -3.000000
16 2 399.714000 -272.427000 251.866000 1 1.000000 1 -3.000000
17 2 409.170000 -270.347000 253.730000 1 1.000000 1 -3.000000
18 2 418.986000 -270.231000 253.213000 1 1.000000 1 -3.000000
19 2 428.650000 -270.189000 250.923000 1 1.000000 1 -3.000000
20 2 438.130000 -267.790000 249.309000 1 1.000000 1 -3.000000
21 2 447.896000 -268.135000 247.751000 1 1.000000 2 -3.000000
22 1 448.048000 -276.177000 201.277000 1 1.000000 2 0.000000
23 3 414.153000 -271.064000 208.526000 1 1.000000 2 0.000000
24 2 427.091000 -282.739000 159.514000 1 1.000000 2 -3.000000
25 2 417.851000 -279.162000 160.295000 1 1.000000 1 -3.000000
26 2 408.811000 -275.940000 162.575000 1 1.000000 1 -3.000000
27 2 401.427000 -269.901000 165.268000 1 1.000000 1 -3.000000
28 2 394.577000 -264.011000 169.363000 1 1.000000 1 -3.000000
29 2 388.782000 -258.834000 175.506000 1 1.000000 1 -3.000000
30 2 384.105000 -252.289000 181.241000 1 1.000000 1 -3.000000
31 2 378.839000 -245.717000 186.486000 1 1.000000 1 -3.000000
32 2 374.286000 -238.575000 191.704000 1 1.000000 1 -3.000000
33 2 369.468000 -230.993000 196.002000 1 1.000000 1 -3.000000
34 2 364.547000 -223.767000 200.770000 1 1.000000 1 -3.000000
35 2 359.015000 -216.439000 204.531000 1 1.000000 1 -3.000000
36 2 356.295000 -207.641000 208.273000 1 1.000000 1 -3.000000
37 2 354.842000 -197.993000 209.803000 1 1.000000 1 -3.000000
38 2 357.089000 -188.452000 211.267000 1 1.000000 1 -3.000000
39 2 358.247000 -178.941000 213.606000 1 1.000000 1 -3.000000
40 2 360.431000 -169.337000 212.790000 1 1.000000 1 -3.000000
41 2 363.174000 -160.019000 211.201000 1 1.000000 1 -3.000000
42 2 365.216000 -150.366000 210.934000 1 1.000000 1 -3.000000
43 2 366.079000 -140.509000 210.652000 1 1.000000 1 -3.000000
44 2 367.021000 -130.594000 210.658000 1 1.000000 1 -3.000000
45 2 370.075000 -121.230000 210.736000 1 1.000000 1 -3.000000
46 2 376.015000 -113.332000 211.345000 1 1.000000 1 -3.000000
47 2 378.870000 -103.811000 211.730000 1 1.000000 1 -3.000000
48 2 383.095000 -94.909100 211.366000 1 1.000000 3 -3.000000
49 1 424.426000 -109.920000 228.383000 1 1.000000 3 0.000000
50 3 409.913000 -139.106000 215.718000 1 1.000000 3 0.000000
51 2 457.626000 -142.627000 235.880000 1 1.000000 3 -3.000000
52 2 454.245000 -149.015000 229.113000 1 1.000000 1 -3.000000
53 2 450.573000 -155.257000 222.349000 1 1.000000 1 -3.000000
54 2 447.992000 -161.486000 215.138000 1 1.000000 1 -3.000000
55 2 444.614000 -167.234000 207.737000 1 1.000000 1 -3.000000
56 2 438.709000 -170.352000 200.467000 1 1.000000 1 -3.000000
57 2 435.089000 -173.731000 191.875000 1 1.000000 1 -3.000000
58 2 435.850000 -178.030000 182.918000 1 1.000000 1 -3.000000
59 2 438.070000 -182.144000 174.229000 1 1.000000 1 -3.000000
60 2 441.101000 -186.631000 166.006000 1 1.000000 1 -3.000000
61 2 443.535000 -191.436000 157.776000 1 1.000000 1 -3.000000
62 2 445.917000 -198.504000 151.265000 1 1.000000 1 -3.000000
63 2 451.960000 -204.536000 146.330000 1 1.000000 1 -3.000000
64 2 458.208000 -210.470000 141.522000 1 1.000000 1 -3.000000
65 2 464.221000 -216.565000 136.581000 1 1.000000 1 -3.000000
66 2 469.778000 -222.798000 131.189000 1 1.000000 1 -3.000000
67 2 475.468000 -229.174000 126.267000 1 1.000000 1 -3.000000
68 2 481.882000 -232.565000 119.513000 1 1.000000 1 -3.000000
69 2 490.665000 -234.079000 115.411000 1 1.000000 1 -3.000000
70 2 499.600000 -233.541000 111.190000 1 1.000000 1 -3.000000
71 2 507.429000 -231.590000 105.365000 1 1.000000 1 -3.000000
72 2 514.788000 -229.073000 99.271800 1 1.000000 1 -3.000000
73 2 520.643000 -225.822000 91.978900 1 1.000000 1 -3.000000
74 2 526.488000 -221.700000 85.131900 1 1.000000 1 -3.000000
75 2 531.906000 -218.779000 77.367100 1 1.000000 4 -3.000000
76 1 496.444000 -200.938000 51.824300 1 1.000000 4 0.000000
77 3 483.441000 -201.369000 84.344400 1 1.000000 4 0.000000
78 2 453.201000 -182.924000 46.355800 1 1.000000 4 -3.000000
79 2 453.943000 -179.088000 55.450600 1 1.000000 1 -3.000000
80 2 453.380000 -176.118000 64.882200 1 1.000000 1 -3.000000
81 2 453.983000 -172.527000 74.190600 1 1.000000 1 -3.000000
82 2 454.476000 -168.386000 83.201600 1 1.000000 1 -3.000000
83 2 454.080000 -165.464000 92.701300 1 1.000000 1 -3.000000
84 2 455.318000 -163.288000 102.233000 1 1.000000 1 -3.000000
85 2 459.462000 -159.613000 110.427000 1 1.000000 1 -3.000000
86 2 464.515000 -156.088000 118.265000 1 1.000000 1 -3.000000
87 2 468.086000 -151.254000 126.074000 1 1.000000 1 -3.000000
88 2 470.732000 -145.685000 133.839000 1 1.000000 1 -3.000000
89 2 473.545000 -140.142000 141.530000 1 1.000000 1 -3.000000
90 2 475.853000 -133.254000 148.230000 1 1.000000 1 -3.000000
91 2 476.364000 -125.676000 154.618000 1 1.000000 1 -3.000000
92 2 476.193000 -118.692000 161.594000 1 1.000000 1 -3.000000
93 2 478.042000 -114.189000 170.191000 1 1.000000 1 -3.000000
94 2 478.794000 -109.265000 178.748000 1 1.000000 1 -3.000000
95 2 477.548000 -105.141000 187.743000 1 1.000000 1 -3.000000
96 2 477.099000 -100.470000 196.453000 1 1.000000 1 -3.000000
97 2 477.941000 -97.459100 205.850000 1 1.000000 1 -3.000000
98 2 479.707000 -93.179600 214.626000 1 1.000000 1 -3.000000
99 2 483.160000 -87.384100 222.003000 1 1.000000 1 -3.000000
100 2 485.960000 -80.628200 228.688000 1 1.000000 1 -3.000000
101 2 490.487000 -74.184100 234.705000 1 1.000000 1 -3.000000
102 2 495.190000 -67.555300 240.464000 1 1.000000 5 -3.000000
103 1 534.742000 -62.990100 215.086000 1 1.000000 5 0.000000
104 3 511.067000 -72.430800 191.134000 1 1.000000 5 0.000000
105 2 559.016000 -62.171000 174.679000 1 1.000000 5 -3.000000
106 2 551.116000 -58.820000 169.773000 1 1.000000 1 -3.000000
107 2 543.977000 -53.944900 164.874000 1 1.000000 1 -3.000000
108 2 535.872000 -51.820000 159.580000 1 1.000000 1 -3.000000
109 2 527.145000 -49.474400 155.500000 1 1.000000 1 -3.000000
110 2 518.063000 -49.977400 151.676000 1 1.000000 1 -3.000000
111 2 508.997000 -53.474300 149.941000 1 1.000000 1 -3.000000
112 2 501.634000 -59.989600 149.219000 1 1.000000 1 -3.000000
113 2 493.396000 -65.431900 149.176000 1 1.000000 1 -3.000000
114 2 484.758000 -69.831800 150.578000 1 1.000000 1 -3.000000
115 2 476.026000 -73.880700 153.005000 1 1.000000 1 -3.000000
116 2 466.802000 -77.460800 154.119000 1 1.000000 1 -3.000000
117 2 458.600000 -82.128200 156.878000 1 1.000000 1 -3.000000
118 2 449.537000 -85.537800 158.626000 1 1.000000 1 -3.000000
119 2 440.214000 -88.156900 160.909000 1 1.000000 1 -3.000000
120 2 431.355000 -89.332800 165.166000 1 1.000000 1 -3.000000
121 2 423.115000 -90.421400 170.491000 1 1.000000 1 -3.000000
122 2 414.088000 -91.061700 174.447000 1 1.000000 1 -3.000000
123 2 405.124000 -89.296900 178.054000 1 1.000000 1 -3.000000
124 2 397.260000 -85.650900 182.921000 1 1.000000 1 -3.000000
125 2 391.398000 -79.393000 187.824000 1 1.000000 1 -3.000000
126 2 385.401000 -72.141300 191.023000 1 1.000000 1 -3.000000
127 2 379.409000 -64.345600 191.930000 1 1.000000 1 -3.000000
128 2 375.492000 -56.031700 195.578000 1 1.000000 1 -3.000000
129 2 372.267000 -47.241000 198.806000 1 1.000000 6 -3.000000
130 1 411.555000 -21.317700 202.254000 1 1.000000 6 0.000000
131 3 421.221000 -47.769000 181.435000 1 1.000000 6 0.000000
132 2 457.408000 -12.978100 194.820000 1 1.000000 6 -3.000000
133 2 459.293000 -16.650000 185.868000 1 1.000000 1 -3.000000
134 2 461.189000 -22.465400 178.018000 1 1.000000 1 -3.000000
135 2 460.283000 -26.761800 169.129000 1 1.000000 1 -3.000000
136 2 457.880000 -32.265300 161.256000 1 1.000000 1 -3.000000
137 2 454.391000 -38.585700 154.522000 1 1.000000 1 -3.000000
138 2 450.060000 -43.603000 147.210000 1 1.000000 1 -3.000000
139 2 446.130000 -47.436500 138.987000 1 1.000000 1 -3.000000
140 2 442.659000 -51.047300 130.527000 1 1.000000 1 -3.000000
141 2 437.380000 -54.096200 122.748000 1 1.000000 1 -3.000000
142 2 433.861000 -58.681700 114.639000 1 1.000000 1 -3.000000
143 2 430.535000 -64.419200 107.295000 1 1.000000 1 -3.000000
144 2 429.029000 -70.380600 99.421500 1 1.000000 1 -3.000000
145 2 428.474000 -74.872100 90.688800 1 1.000000 1 -3.000000
146 2 428.895000 -80.201700 82.360400 1 1.000000 1 -3.000000
147 2 431.572000 -85.663900 74.553900 1 1.000000 1 -3.000000
148 2 434.762000 -92.210400 67.784100 1 1.000000 1 -3.000000
149 2 436.327000 -100.346000 62.374400 1 1.000000 1 -3.000000
150 2 436.524000 -108.435000 56.671200 1 1.000000 1 -3.000000
151 2 438.182000 -116.748000 51.455800 1 1.000000 1 -3.000000
152 2 441.332000 -124.258000 45.738600 1 1.000000 1 -3.000000
153 2 443.931000 -131.397000 39.494200 1 1.000000 1 -3.000000
154 2 443.371000 -140.027000 34.546400 1 1.000000 1 -3.000000
155 2 443.461000 -148.678000 29.823400 1 1.000000 1 -3.000000
156 2 442.914000 -157.379000 25.084000 1 1.000000 7 -3.000000
157 1 398.437000 -155.466000 9.506830 1 1.000000 7 0.000000
158 3 402.335000 -124.912000 26.184600 1 1.000000 7 0.000000
159 2 356.658000 -134.311000 3.437480 1 1.000000 7 -3.000000
160 2 359.118000 -125.528000 7.350480 1 1.000000 1 -3.000000
161 2 359.527000 -116.387000 11.111300 1 1.000000 1 -3.000000
162 2 361.492000 -108.688000 16.895200 1 1.000000 1 -3.000000
163 2 365.528000 -101.681000 22.641900 1 1.000000 1 -3.000000
164 2 370.663000 -95.067200 27.875300 1 1.000000 1 -3.000000
165 2 376.714000 -88.205400 31.791200 1 1.000000 1 -3.000000
166 2 382.737000 -81.471900 35.756100 1 1.000000 1 -3.000000
167 2 387.977000 -74.685500 40.573800 1 1.000000 1 -3.000000
168 2 393.353000 -68.968300 46.519600 1 1.000000 1 -3.000000
169 2 397.671000 -63.087600 53.128300 1 1.000000 1 -3.000000
170 2 400.508000 -57.293700 60.668400 1 1.000000 1 -3.000000
171 2 402.169000 -52.433700 69.180000 1 1.000000 1 -3.000000
172 2 404.586000 -46.856900 76.972400 1 1.000000 1 -3.000000
173 2 406.830000 -40.405900 84.183200 1 1.000000 1 -3.000000
174 2 409.525000 -35.493900 92.352400 1 1.000000 1 -3.000000
175 2 413.625000 -29.936700 99.571200 1 1.000000 1 -3.000000
176 2 416.583000 -23.336200 106.355000 1 1.000000 1 -3.000000
177 2 420.419000 -15.135300 110.430000 1 1.000000 1 -3.000000
178 2 425.217000 -8.751360 116.388000 1 1.000000 1 -3.000000
179 2 427.559000 -0.894060 121.990000 1 1.000000 1 -3.000000
180 2 428.523000 5.803460 129.222000 1 1.000000 1 -3.000000
181 2 427.956000 12.755700 136.276000 1 1.000000 1 -3.000000
182 2 426.017000 19.668900 142.971000 1 1.000000 1 -3.000000
183 2 424.886000 25.271300 151.115000 1 1.000000 8 -3.000000
184 1 386.622000 49.828200 138.545000 1 1.000000 8 0.000000
185 3 402.677000 44.034900 108.139000 1 1.000000 8 0.000000
186 2 357.558000 69.601700 107.073000 1 1.000000 8 -3.000000
187 2 359.073000 64.933600 98.530500 1 1.000000 1 -3.000000
188 2 361.792000 60.301600 90.191400 1 1.000000 1 -3.000000
189 2 365.047000 53.554800 83.672000 1 1.000000 1 -3.000000
190 2 369.710000 47.558300 77.333700 1 1.000000 1 -3.000000
191 2 375.512000 41.633600 72.008200 1 1.000000 1 -3.000000
192 2 383.229000 36.087300 69.075600 1 1.000000 1 -3.000000
193 2 392.323000 32.244900 68.004600 1 1.000000 1 -3.000000
194 2 401.329000 28.100600 68.501800 1 1.000000 1 -3.000000
195 2 410.018000 25.051900 72.004100 1 1.000000 1 -3.000000
196 2 418.690000 22.422400 75.974900 1 1.000000 1 -3.000000
197 2 426.883000 21.781500 81.599600 1 1.000000 1 -3.000000
198 2 434.423000 22.391800 87.957800 1 1.000000 1 -3.000000
199 2 439.323000 25.427000 95.965600 1 1.000000 1 -3.000000
200 2 444.278000 29.204900 103.677000 1 1.000000 1 -3.000000
201 2 446.347000 32.072700 112.895000 1 1.000000 1 -3.000000
202 2 445.795000 37.350200 121.322000 1 1.000000 1 -3.000000
203 2 442.233000 42.377500 128.954000 1 1.000000 1 -3.000000
204 2 438.073000 46.798500 136.733000 1 1.000000 1 -3.000000
205 2 434.787000 52.480300 144.137000 1 1.000000 1 -3.000000
206 2 432.751000 58.725500 151.489000 1 1.000000 1 -3.000000
207 2 431.704000 64.563800 159.415000 1 1.000000 1 -3.000000
208 2 431.753000 70.392800 167.382000 1 1.000000 1 -3.000000
209 2 432.592000 76.052600 175.436000 1 1.000000 1 -3.000000
210 2 432.513000 80.474000 184.314000 1 1.000000 9 -3.000000
211 1 475.222000 67.526400 199.512000 1 1.000000 9 0.000000
212 3 476.255000 60.093900 165.265000 1 1.000000 9 0.000000
213 2 518.664000 50.004600 193.527000 1 1.000000 9 -3.000000
214 2 519.057000 49.608600 183.625000 1 1.000000 1 -3.000000
215 2 518.677000 50.591300 173.798000 1 1.000000 1 -3.000000
216 2 519.344000 51.204300 163.946000 1 1.000000 1 -3.000000
217 2 518.617000 53.644500 154.429000 1 1.000000 1 -3.000000
218 2 516.461000 55.983000 145.082000 1 1.000000 1 -3.000000
219 2 512.815000 58.042000 136.110000 1 1.000000 1 -3.000000
220 2 509.282000 60.342200 127.106000 1 1.000000 1 -3.000000
221 2 508.298000 63.930000 117.969000 1 1.000000 1 -3.000000
222 2 507.648000 66.426900 108.417000 1 1.000000 1 -3.000000
223 2 506.989000 66.998200 98.517700 1 1.000000 1 -3.000000
224 2 506.522000 70.087600 89.106000 1 1.000000 1 -3.000000
225 2 507.044000 73.998600 79.963200 1 1.000000 1 -3.000000
226 2 509.176000 79.045200 71.660100 1 1.000000 1 -3.000000
227 2 510.665000 85.119100 63.994700 1 1.000000 1 -3.000000
228 2 513.858000 90.786900 56.551600 1 1.000000 1 -3.000000
229 2 517.651000 97.229500 50.017400 1 1.000000 1 -3.000000
230 2 521.019000 103.390000 43.029600 1 1.000000 1 -3.000000
231 2 522.592000 109.387000 35.334500 1 1.000000 1 -3.000000
232 2 523.837000 113.395000 26.265400 1 1.000000 1 -3.000000
233 2 524.936000 118.068000 17.567200 1 1.000000 1 -3.000000
234 2 525.920000 123.345000 9.260340 1 1.000000 1 -3.000000
235 2 525.146000 126.697000 0.024877 1 1.000000 1 -3.000000
236 2 524.933000 132.287000 -8.105810 1 1.000000 1 -3.000000
237 2 524.172000 138.535000 -15.635100 1 1.000000 10 -3.000000
238 1 506.577000 102.665000 -40.812400 1 1.000000 10 0.000000
239 3 498.748000 93.973500 -7.868030 1 1.000000 10 0.000000
240 2 483.887000 61.594700 -45.652800 1 1.000000 10 -3.000000
241 2 480.958000 60.029300 -36.322600 1 1.000000 1 -3.000000
242 2 475.909000 60.034400 -27.867900 1 1.000000 1 -3.000000
243 2 471.729000 59.740700 -18.893800 1 1.000000 1 -3.000000
244 2 468.600000 61.007700 -9.486470 1 1.000000 1 -3.000000
245 2 467.570000 63.910000 -0.124415 1 1.000000 1 -3.000000
246 2 468.261000 64.864200 9.712460 1 1.000000 1 -3.000000
247 2 469.585000 65.341900 19.518200 1 1.000000 1 -3.000000
248 2 472.741000 66.662500 28.848900 1 1.000000 1 -3.000000
249 2 475.479000 70.947500 37.332800 1 1.000000 1 -3.000000
250 2 475.029000 74.558600 46.488400 1 1.000000 1 -3.000000
251 2 474.473000 79.386300 55.137600 1 1.000000 1 -3.000000
252 2 474.446000 83.565500 64.085400 1 1.000000 1 -3.000000
253 2 473.771000 87.426600 73.159200 1 1.000000 1 -3.000000
254 2 472.999000 92.782700 81.516300 1 1.000000 1 -3.000000
255 2 472.465000 97.288400 90.335300 1 1.000000 1 -3.000000
256 2 472.290000 102.250000 98.816800 1 1.000000 1 -3.000000
257 2 473.875000 108.978000 105.941000 1 1.000000 1 -3.000000
258 2 476.034000 117.020000 111.315000 1 1.000000 1 -3.000000
259 2 477.748000 124.835000 117.148000 1 1.000000 1 -3.000000
260 2 476.095000 131.783000 123.978000 1 1.000000 1 -3.000000
261 2 472.484000 138.457000 130.369000 1 1.000000 1 -3.000000
262 2 467.345000 144.799000 135.956000 1 1.000000 1 -3.000000
263 2 463.274000 148.695000 144.189000 1 1.000000 1 -3.000000
264 2 458.301000 151.762000 152.117000 1 1.000000 11 -3.000000
265 1 425.250000 119.470000 161.826000 1 1.000000 11 0.000000
266 3 448.570000 101.687000 142.773000 1 1.000000 11 0.000000
267 2 408.023000 75.573300 162.059000 1 1.000000 11 -3.000000
268 2 413.530000 73.217100 154.251000 1 1.000000 1 -3.000000
269 2 421.549000 71.202100 148.863000 1 1.000000 1 -3.000000
270 2 428.972000 70.040700 142.553000 1 1.000000 1 -3.000000
271 2 437.160000 66.962400 137.811000 1 1.000000 1 -3.000000
272 2 445.357000 64.614500 132.917000 1 1.000000 1 -3.000000
273 2 453.374000 62.954000 127.277000 1 1.000000 1 -3.000000
274 2 461.119000 61.569900 121.295000 1 1.000000 1 -3.000000
275 2 466.426000 57.105600 114.272000 1 1.000000 1 -3.000000
276 2 469.617000 51.202600 107.040000 1 1.000000 1 -3.000000
277 2 473.932000 44.828400 100.789000 1 1.000000 1 -3.000000
278 2 478.725000 37.916300 95.470500 1 1.000000 1 -3.000000
279 2 482.195000 29.654500 91.453700 1 1.000000 1 -3.000000
280 2 484.696000 21.548300 86.320700 1 1.000000 1 -3.000000
281 2 485.129000 13.207200 81.019400 1 1.000000 1 -3.000000
282 2 488.175000 5.284640 75.959200 1 1.000000 1 -3.000000
283 2 491.832000 -2.162800 70.569600 1 1.000000 1 -3.000000
284 2 494.303000 -10.131800 65.243900 1 1.000000 1 -3.000000
285 2 497.647000 -18.591000 61.215100 1 1.000000 1 -3.000000
286 2 502.277000 -26.362800 57.317700 1 1.000000 1 -3.000000
287 2 506.733000 -33.307400 51.765300 1 1.000000 1 -3.000000
288 2 511.967000 -38.727700 45.367300 1 1.000000 1 -3.000000
289 2 516.994000 -43.399900 38.249700 1 1.000000 1 -3.000000
290 2 521.651000 -46.886500 30.197200 1 1.000000 1 -3.000000
291 2 524.996000 -50.620900 21.613900 1 1.000000 12 -3.000000
292 1 505.817000 -20.800600 -9.567340 1 1.000000 12 0.000000
293 3 505.085000 -2.681900 20.502800 1 1.000000 12 0.000000
294 2 485.909000 20.118900 -22.076500 1 1.000000 12 -3.000000
295 2 486.374000 25.176100 -13.452700 1 1.000000 1 -3.000000
296 2 488.188000 31.415600 -6.013440 1 1.000000 1 -3.000000
297 2 491.012000 36.229600 2.091500 1 1.000000 1 -3.000000
298 2 493.864000 40.174700 10.745600 1 1.000000 1 -3.000000
299 2 498.466000 42.319800 19.241500 1 1.000000 1 -3.000000
300 2 504.788000 42.232900 26.913100 1 1.000000 1 -3.000000
301 2 511.406000 41.000900 34.132800 1 1.000000 1 -3.000000
302 2 519.211000 38.362200 39.493100 1 1.000000 1 -3.000000
303 2 526.658000 33.701300 44.109300 1 1.000000 1 -3.000000
304 2 534.864000 29.923600 48.127800 1 1.000000 1 -3.000000
305 2 543.871000 26.847700 50.641700 1 1.000000 1 -3.000000
306 2 552.645000 24.189400 54.206700 1 1.000000 1 -3.000000
307 2 561.469000 25.548300 58.466500 1 1.000000 1 -3.000000
308 2 570.110000 27.042700 63.083200 1 1.000000 1 -3.000000
309 2 577.949000 28.319600 69.067000 1 1.000000 1 -3.000000
310 2 585.477000 31.411900 74.828900 1 1.000000 1 -3.000000
311 2 593.504000 31.979600 80.609100 1 1.000000 1 -3.000000
312 2 599.526000 32.501400 88.480600 1 1.000000 1 -3.000000
313 2 605.301000 30.002200 96.163800 1 1.000000 1 -3.000000
314 2 613.400000 26.898300 100.937000 1 1.000000 1 -3.000000
315 2 618.959000 21.612000 107.150000 1 1.000000 1 -3.000000
316 2 624.292000 15.210400 112.569000 1 1.000000 1 -3.000000
317 2 628.994000 7.516610 116.630000 1 1.000000 1 -3.000000
318 2 634.546000 1.110610 121.677000 1 1.000000 13 -3.000000
319 1 618.040000 -36.316700 98.223900 1 1.000000 13 0.000000
320 3 611.575000 -9.733240 76.316200 1 1.000000 13 0.000000
321 2 594.464000 -56.875100 62.856800 1 1.000000 13 -3.000000
322 2 598.135000 -49.380100 57.463100 1 1.000000 1 -3.000000
323 2 601.883000 -42.364100 51.713800 1 1.000000 1 -3.000000
324 2 604.569000 -36.006100 44.692700 1 1.000000 1 -3.000000
325 2 606.317000 -30.336400 36.817300 1 1.000000 1 -3.000000
326 2 606.884000 -26.188800 27.902700 1 1.000000 1 -3.000000
327 2 606.829000 -24.783700 18.094700 1 1.000000 1 -3.000000
328 2 607.897000 -24.234700 8.265190 1 1.000000 1 -3.000000
329 2 610.253000 -26.213800 -1.154170 1 1.000000 1 -3.000000
330 2 615.724000 -28.323300 -9.126770 1 1.000000 1 -3.000000
331 2 621.793000 -31.345800 -16.391200 1 1.000000 1 -3.000000
332 2 626.611000 -35.560100 -23.991200 1 1.000000 1 -3.000000
333 2 629.797000 -40.294600 -32.041600 1 1.000000 1 -3.000000
334 2 630.750000 -44.397600 -40.959400 1 1.000000 1 -3.000000
335 2 629.959000 -44.818700 -50.839400 1 1.000000 1 -3.000000
336 2 630.047000 -44.770400 -60.738200 1 1.000000 1 -3.000000
337 2 628.669000 -45.081800 -70.547400 1 1.000000 1 -3.000000
338 2 627.722000 -42.451100 -79.969900 1 1.000000 1 -3.000000
339 2 627.652000 -40.312300 -89.574900 1 1.000000 1 -3.000000
340 2 630.624000 -37.201700 -98.421200 1 1.000000 1 -3.000000
341 2 635.497000 -34.280400 -106.579000 1 1.000000 1 -3.000000
342 2 639.383000 -32.891100 -115.555000 1 1.000000 1 -3.000000
343 2 645.727000 -29.404600 -122.376000 1 1.000000 1 -3.000000
344 2 652.329000 -26.183600 -128.886000 1 1.000000 1 -3.000000
345 2 658.532000 -21.544200 -135.072000 1 1.000000 14 -3.000000
346 1 687.674000 -2.822780 -103.012000 1 1.000000 14 0.000000
347 3 672.607000 -29.258000 -85.768400 1 1.000000 14 0.000000
348 2 707.713000 -0.536370 -60.420100 1 1.000000 14 -3.000000
349 2 705.735000 -10.040200 -58.502500 1 1.000000 1 -3.000000
350 2 702.758000 -18.799300 -54.802500 1 1.000000 1 -3.000000
351 2 699.285000 -27.473300 -51.408200 1 1.000000 1 -3.000000
352 2 697.231000 -36.999800 -49.647000 1 1.000000 1 -3.000000
353 2 692.745000 -45.864300 -49.271900 1 1.000000 1 -3.000000
354 2 688.543000 -54.616000 -51.275000 1 1.000000 1 -3.000000
355 2 686.238000 -64.102400 -53.317400 1 1.000000 1 -3.000000
356 2 681.877000 -73.018600 -52.821800 1 1.000000 1 -3.000000
357 2 677.275000 -81.525200 -50.585900 1 1.000000 1 -3.000000
358 2 669.835000 -87.967900 -51.326100 1 1.000000 1 -3.000000
359 2 663.752000 -95.519800 -53.336700 1 1.000000 1 -3.000000
360 2 658.640000 -103.880000 -54.562600 1 1.000000 1 -3.000000
361 2 655.121000 -112.917000 -56.529900 1 1.000000 1 -3.000000
362 2 649.694000 -121.080000 -58.074800 1 1.000000 1 -3.000000
363 2 644.357000 -128.976000 -60.666300 1 1.000000 1 -3.000000
364 2 639.803000 -136.631000 -64.943900 1 1.000000 1 -3.000000
365 2 635.941000 -144.749000 -69.193800 1 1.000000 1 -3.000000
366 2 631.765000 -151.193000 -75.463400 1 1.000000 1 -3.000000
367 2 628.885000 -156.861000 -83.147200 1 1.000000 1 -3.000000
368 2 626.407000 -160.695000 -91.942200 1 1.000000 1 -3.000000
369 2 625.410000 -164.509000 -100.997000 1 1.000000 1 -3.000000
370 2 623.852000 -169.225000 -109.557000 1 1.000000 1 -3.000000
371 2 622.702000 -172.761000 -118.734000 1 1.000000 1 -3.000000
372 2 624.172000 -175.873000 -128.039000 1 1.000000 15 -3.000000
373 1 663.365000 -201.030000 -120.556000 1 1.000000 15 0.000000
374 3 647.249000 -201.917000 -89.479000 1 1.000000 15 0.000000
375 2 692.551000 -226.937000 -94.029700 1 1.000000 15 -3.000000
376 2 686.296000 -228.875000 -86.573500 1 1.000000 1 -3.000000
377 2 678.379000 -231.132000 -81.134100 1 1.000000 1 -3.000000
378 2 672.671000 -235.255000 -74.150500 1 1.000000 1 -3.000000
379 2 665.224000 -237.365000 -67.967100 1 1.000000 1 -3.000000
380 2 656.897000 -237.606000 -62.646300 1 1.000000 1 -3.000000
381 2 648.027000 -237.821000 -58.239600 1 1.000000 1 -3.000000
382 2 639.171000 -236.869000 -53.784400 1 1.000000 1 -3.000000
383 2 630.365000 -235.167000 -49.658600 1 1.000000 1 -3.000000
384 2 622.078000 -235.121000 -44.272100 1 1.000000 1 -3.000000
385 2 613.818000 -237.897000 -39.529000 1 1.000000 1 -3.000000
386 2 604.659000 -239.612000 -36.203600 1 1.000000 1 -3.000000
387 2 595.199000 -239.762000 -33.372100 1 1.000000 1 -3.000000
388 2 585.725000 -236.974000 -32.463300 1 1.000000 1 -3.000000
389 2 576.503000 -233.740000 -33.827900 1 1.000000 1 -3.000000
390 2 568.057000 -229.980000 -37.416600 1 1.000000 1 -3.000000
391 2 560.439000 -225.425000 -41.655200 1 1.000000 1 -3.000000
392 2 552.313000 -220.307000 -44.075400 1 1.000000 1 -3.000000
393 2 545.125000 -213.655000 -45.908200 1 1.000000 1 -3.000000
394 2 539.112000 -206.105000 -47.725700 1 1.000000 1 -3.000000
395 2 532.927000 -198.338000 -47.919100 1 1.000000 1 -3.000000
396 2 527.108000 -190.409000 -48.657100 1 1.000000 1 -3.000000
397 2 522.010000 -182.618000 -52.206700 1 1.000000 1 -3.000000
398 2 517.451000 -174.224000 -54.893300 1 1.000000 1 -3.000000
399 2 511.897000 -166.917000 -58.432100 1 1.000000 16 -3.000000
400 1 518.995000 -170.690000 -104.899000 1 1.000000 16 0.000000
401 3 536.357000 -198.178000 -91.924700 1 1.000000 16 0.000000
402 2 539.790000 -189.395000 -142.954000 1 1.000000 16 -3.000000
403 2 540.532000 -199.140000 -141.332000 1 1.000000 1 -3.000000
404 2 540.058000 -207.921000 -136.956000 1 1.000000 1 -3.000000
405 2 539.204000 -216.653000 -132.540000 1 1.000000 1 -3.000000
406 2 538.444000 -225.125000 -127.534000 1 1.000000 1 -3.000000
407 2 537.629000 -233.052000 -121.639000 1 1.000000 1 -3.000000
408 2 537.437000 -241.989000 -117.311000 1 1.000000 1 -3.000000
409 2 536.406000 -251.042000 -113.405000 1 1.000000 1 -3.000000
410 2 534.036000 -260.146000 -110.409000 1 1.000000 1 -3.000000
411 2 531.401000 -269.184000 -107.312000 1 1.000000 1 -3.000000
412 2 528.289000 -277.953000 -104.123000 1 1.000000 1 -3.000000
413 2 524.080000 -286.798000 -102.733000 1 1.000000 1 -3.000000
414 2 519.086000 -295.083000 -100.351000 1 1.000000 1 -3.000000
415 2 512.349000 -301.753000 -97.508400 1 1.000000 1 -3.000000
416 2 505.489000 -308.343000 -94.632800 1 1.000000 1 -3.000000
417 2 498.415000 -313.597000 -90.213300 1 1.000000 1 -3.000000
418 2 490.610000 -318.537000 -86.738400 1 1.000000 1 -3.000000
419 2 482.098000 -322.868000 -84.237700 1 1.000000 1 -3.000000
420 2 472.666000 -325.884000 -83.997800 1 1.000000 1 -3.000000
421 2 462.937000 -327.142000 -83.554100 1 1.000000 1 -3.000000
422 2 453.851000 -330.522000 -85.603700 1 1.000000 1 -3.000000
423 2 445.014000 -333.601000 -88.761100 1 1.000000 1 -3.000000
424 2 435.336000 -333.576000 -90.532700 1 1.000000 1 -3.000000
425 2 426.830000 -332.324000 -95.461100 1 1.000000 1 -3.000000
426 2 419.588000 -330.895000 -102.211000 1 1.000000 17 -3.000000
427 1 389.430000 -306.732000 -75.235500 1 1.000000 17 0.000000
428 3 407.843000 -325.283000 -51.981700 1 1.000000 17 0.000000
429 2 369.717000 -294.905000 -34.001100 1 1.000000 17 -3.000000
430 2 377.697000 -298.504000 -29.148200 1 1.000000 1 -3.000000
431 2 384.667000 -298.974000 -22.142700 1 1.000000 1 -3.000000
432 2 391.210000 -301.973000 -15.386300 1 1.000000 1 -3.000000
433 2 398.409000 -307.253000 -11.052400 1 1.000000 1 -3.000000
434 2 406.997000 -311.773000 -9.089250 1 1.000000 1 -3.000000
435 2 413.139000 -319.405000 -7.740000 1 1.000000 1 -3.000000
436 2 418.883000 -326.933000 -4.891820 1 1.000000 1 -3.000000
437 2 425.440000 -333.825000 -1.932300 1 1.000000 1 -3.000000
438 2 429.985000 -341.700000 2.052050 1 1.000000 1 -3.000000
439 2 433.017000 -350.104000 6.376720 1 1.000000 1 -3.000000
440 2 435.073000 -358.439000 11.243000 1 1.000000 1 -3.000000
441 2 438.752000 -366.729000 15.219000 1 1.000000 1 -3.000000
442 2 443.096000 -373.750000 20.635500 1 1.000000 1 -3.000000
443 2 448.841000 -378.411000 27.134400 1 1.000000 1 -3.000000
444 2 454.434000 -381.963000 34.625700 1 1.000000 1 -3.000000
445 2 457.746000 -386.843000 42.619000 1 1.000000 1 -3.000000
446 2 462.074000 -392.215000 49.715600 1 1.000000 1 -3.000000
447 2 466.721000 -397.142000 56.960200 1 1.000000 1 -3.000000
448 2 470.453000 -401.916000 64.780100 1 1.000000 1 -3.000000
449 2 475.175000 -408.971000 69.816500 1 1.000000 1 -3.000000
450 2 479.675000 -416.259000 74.747100 1 1.000000 1 -3.000000
451 2 485.492000 -423.125000 79.003000 1 1.000000 1 -3.000000
452 2 491.842000 -430.148000 81.738000 1 1.000000 1 -3.000000
453 2 498.827000 -436.521000 84.540300 1 1.000000 18 -3.000000
454 1 486.675000 -467.878000 51.366800 1 1.000000 18 0.000000
455 3 479.660000 -437.184000 36.271100 1 1.000000 18 0.000000
456 2 467.082000 -480.270000 10.287000 1 1.000000 18 -3.000000
457 2 468.951000 -471.321000 6.514630 1 1.000000 1 -3.000000
458 2 471.029000 -462.270000 3.043420 1 1.000000 1 -3.000000
459 2 473.920000 -454.548000 -2.589230 1 1.000000 1 -3.000000
460 2 477.307000 -446.387000 -6.995870 1 1.000000 1 -3.000000
461 2 480.395000 -438.448000 -12.168800 1 1.000000 1 -3.000000
462 2 482.060000 -430.590000 -18.028500 1 1.000000 1 -3.000000
463 2 482.603000 -422.986000 -24.401200 1 1.000000 1 -3.000000
464 2 479.904000 -415.287000 -29.972800 1 1.000000 1 -3.000000
465 2 477.012000 -408.864000 -36.869200 1 1.000000 1 -3.000000
466 2 473.668000 -403.468000 -44.444300 1 1.000000 1 -3.000000
467 2 472.290000 -397.669000 -52.231400 1 1.000000 1 -3.000000
468 2 469.106000 -393.563000 -60.691900 1 1.000000 1 -3.000000
469 2 466.528000 -389.473000 -69.360600 1 1.000000 1 -3.000000
470 2 462.170000 -384.890000 -77.023100 1 1.000000 1 -3.000000
471 2 456.590000 -382.327000 -84.770700 1 1.000000 1 -3.000000
472 2 449.360000 -379.610000 -90.912800 1 1.000000 1 -3.000000
473 2 443.943000 -380.917000 -99.058300 1 1.000000 1 -3.000000
474 2 438.394000 -382.568000 -107.045000 1 1.000000 1 -3.000000
475 2 433.677000 -384.749000 -115.498000 1 1.000000 1 -3.000000
476 2 428.765000 -386.512000 -123.864000 1 1.000000 1 -3.000000
477 2 422.741000 -387.085000 -131.654000 1 1.000000 1 -3.000000
478 2 416.408000 -384.915000 -138.984000 1 1.000000 1 -3.000000
479 2 411.923000 -381.410000 -147.040000 1 1.000000 1 -3.000000
480 2 407.346000 -377.123000 -154.670000 1 1.000000 19 -3.000000
481 1 430.213000 -336.832000 -163.715000 1 1.000000 19 0.000000