LAMMPS data file

4067 atoms
4067 ellipsoids
4516 bonds
8882 angles
0 dihedrals

3 atom types
5 bond types
12 angle types
0 dihedral types

-4631.092947 4670.465898 xlo xhi
-4631.092947 4670.465898 ylo yhi
-4631.092947 4670.465898 zlo zhi

Masses

1 196016.000000
2 1950.000000
3 19500.000000

Atoms

1 2 -9.459460 -1096.060000 -123.585000 1 1.000000 1 -3.000000
2 2 -1.808280 -1095.260000 -117.440000 1 1.000000 1 -3.000000
3 2 6.082320 -1093.870000 -111.572000 1 1.000000 1 -3.000000
4 2 14.875800 -1093.160000 -107.012000 1 1.000000 1 -3.000000
5 2 22.394600 -1091.210000 -100.861000 1 1.000000 1 -3.000000
6 2 29.010900 -1087.660000 -94.344500 1 1.000000 1 -3.000000
7 2 35.852300 -1084.000000 -88.292900 1 1.000000 1 -3.000000
8 2 43.431000 -1081.150000 -82.498200 1 1.000000 1 -3.000000
9 2 49.420000 -1079.020000 -74.939500 1 1.000000 1 -3.000000
10 2 53.606800 -1077.000000 -66.274300 1 1.000000 1 -3.000000
11 2 56.488900 -1074.930000 -57.053800 1 1.000000 1 -3.000000
12 2 59.692200 -1073.640000 -47.784800 1 1.000000 1 -3.000000
13 2 64.725100 -1075.450000 -39.354800 1 1.000000 1 -3.000000
14 2 71.620800 -1078.150000 -32.797200 1 1.000000 1 -3.000000
15 2 78.188600 -1081.550000 -26.230300 1 1.000000 1 -3.000000
16 2 86.257000 -1083.890000 -21.038300 1 1.000000 1 -3.000000
17 2 94.483800 -1086.580000 -16.193000 1 1.000000 1 -3.000000
18 2 102.522000 -1089.400000 -11.159100 1 1.000000 1 -3.000000
19 2 109.542000 -1094.700000 -6.565980 1 1.000000 1 -3.000000
20 2 115.923000 -1100.170000 -1.400040 1 1.000000 1 -3.000000
21 2 122.035000 -1107.010000 2.277130 1 1.000000 2 -3.000000
22 1 94.371100 -1118.450000 38.720700 1 1.000000 2 0.000000
23 3 71.531200 -1108.970000 14.053400 1 1.000000 2 0.000000
24 2 52.687700 -1122.850000 60.374900 1 1.000000 2 -3.000000
25 2 45.788600 -1121.620000 53.416000 1 1.000000 1 -3.000000
26 2 39.507300 -1121.980000 45.856400 1 1.000000 1 -3.000000
27 2 34.745500 -1121.150000 37.231000 1 1.000000 1 -3.000000
28 2 29.787900 -1119.660000 28.833000 1 1.000000 1 -3.000000
29 2 26.468000 -1116.140000 20.189300 1 1.000000 1 -3.000000
30 2 23.460300 -1113.070000 11.220300 1 1.000000 1 -3.000000
31 2 19.176600 -1109.990000 2.829320 1 1.000000 1 -3.000000
32 2 13.966900 -1109.050000 -5.448210 1 1.000000 1 -3.000000
33 2 10.189700 -1108.620000 -14.641200 1 1.000000 1 -3.000000
34 2 7.060430 -1105.600000 -23.571900 1 1.000000 1 -3.000000
35 2 2.544210 -1102.200000 -31.697500 1 1.000000 1 -3.000000
36 2 -1.574790 -1097.740000 -39.568400 1 1.000000 1 -3.000000
37 2 -5.094990 -1094.200000 -48.127100 1 1.000000 1 -3.000000
38 2 -7.882880 -1090.380000 -56.801100 1 1.000000 1 -3.000000
39 2 -9.640200 -1087.240000 -66.012200 1 1.000000 1 -3.000000
40 2 -13.289500 -1083.710000 -74.428800 1 1.000000 1 -3.000000
41 2 -16.160000 -1079.680000 -83.087400 1 1.000000 1 -3.000000
42 2 -18.113700 -1076.760000 -92.344100 1 1.000000 1 -3.000000
43 2 -18.030100 -1074.190000 -101.884000 1 1.000000 1 -3.000000
44 2 -18.410700 -1075.650000 -111.608000 1 1.000000 1 -3.000000
45 2 -16.293800 -1074.320000 -121.199000 1 1.000000 1 -3.000000
46 2 -12.874500 -1072.450000 -130.260000 1 1.000000 1 -3.000000
47 2 -9.305200 -1069.000000 -138.870000 1 1.000000 1 -3.000000
48 2 -6.294660 -1064.180000 -146.909000 1 1.000000 3 -3.000000
49 1 -25.470600 -1021.150000 -143.334000 1 1.000000 3 0.000000
50 3 -24.703700 -1032.320000 -110.239000 1 1.000000 3 0.000000
51 2 -44.883000 -985.510000 -119.312000 1 1.000000 3 -3.000000
52 2 -43.714500 -987.745000 -109.748000 1 1.000000 1 -3.000000
53 2 -42.277000 -990.598000 -100.399000 1 1.000000 1 -3.000000
54 2 -39.906700 -995.521000 -92.212200 1 1.000000 1 -3.000000
55 2 -38.874600 -1000.930000 -83.890300 1 1.000000 1 -3.000000
56 2 -38.681600 -1006.930000 -76.074700 1 1.000000 1 -3.000000
57 2 -38.686500 -1011.490000 -67.321800 1 1.000000 1 -3.000000
58 2 -35.141300 -1015.120000 -58.780700 1 1.000000 1 -3.000000
59 2 -29.948900 -1017.870000 -50.889100 1 1.000000 1 -3.000000
60 2 -22.621000 -1020.110000 -44.687000 1 1.000000 1 -3.000000
61 2 -15.683900 -1021.930000 -37.824000 1 1.000000 1 -3.000000
62 2 -9.151090 -1022.460000 -30.431300 1 1.000000 1 -3.000000
63 2 -1.413410 -1022.130000 -24.304600 1 1.000000 1 -3.000000
64 2 6.833440 -1022.280000 -18.732300 1 1.000000 1 -3.000000
65 2 15.935700 -1022.760000 -14.916000 1 1.000000 1 -3.000000
66 2 24.886000 -1024.070000 -10.839400 1 1.000000 1 -3.000000
67 2 33.119800 -1028.090000 -7.004320 1 1.000000 1 -3.000000
68 2 41.275700 -1028.840000 -1.479830 1 1.000000 1 -3.000000
69 2 48.553800 -1029.000000 5.181980 1 1.000000 1 -3.000000
70 2 56.263700 -1028.370000 11.391000 1 1.000000 1 -3.000000
71 2 63.214900 -1029.920000 18.436100 1 1.000000 1 -3.000000
72 2 70.042000 -1028.690000 25.607200 1 1.000000 1 -3.000000
73 2 76.239700 -1026.840000 33.014500 1 1.000000 1 -3.000000
74 2 81.866600 -1024.920000 41.011800 1 1.000000 1 -3.000000
75 2 87.926300 -1023.650000 48.766100 1 1.000000 4 -3.000000
76 1 93.057100 -977.435000 40.839500 1 1.000000 4 0.000000
77 3 61.465300 -984.403000 27.273600 1 1.000000 4 0.000000
78 2 78.912400 -935.515000 24.430200 1 1.000000 4 -3.000000
79 2 69.036300 -936.137000 24.840200 1 1.000000 1 -3.000000
80 2 59.240800 -936.980000 25.090800 1 1.000000 1 -3.000000
81 2 49.917500 -940.452000 24.366000 1 1.000000 1 -3.000000
82 2 40.936300 -944.738000 24.367500 1 1.000000 1 -3.000000
83 2 33.192900 -950.987000 24.878300 1 1.000000 1 -3.000000
84 2 25.896200 -957.662000 25.867000 1 1.000000 1 -3.000000
85 2 18.702200 -964.475000 26.168900 1 1.000000 1 -3.000000
86 2 11.726100 -971.535000 26.742100 1 1.000000 1 -3.000000
87 2 3.600880 -977.052000 26.301400 1 1.000000 1 -3.000000
88 2 -3.224590 -984.214000 25.382600 1 1.000000 1 -3.000000
89 2 -10.657400 -990.731000 25.383600 1 1.000000 1 -3.000000
90 2 -18.015900 -997.232000 24.386200 1 1.000000 1 -3.000000
91 2 -26.180800 -1002.540000 22.436900 1 1.000000 1 -3.000000
92 2 -33.454500 -1008.010000 18.838800 1 1.000000 1 -3.000000
93 2 -41.046400 -1014.340000 18.145300 1 1.000000 1 -3.000000
94 2 -48.894400 -1020.270000 19.220800 1 1.000000 1 -3.000000
95 2 -57.239100 -1025.510000 19.740600 1 1.000000 1 -3.000000
96 2 -65.018500 -1031.600000 19.753400 1 1.000000 1 -3.000000
97 2 -72.535200 -1037.840000 18.380100 1 1.000000 1 -3.000000
98 2 -80.042500 -1044.040000 16.727800 1 1.000000 1 -3.000000
99 2 -88.300400 -1049.030000 14.311300 1 1.000000 1 -3.000000
100 2 -94.127000 -1055.700000 9.853750 1 1.000000 1 -3.000000
101 2 -98.693300 -1062.790000 4.632740 1 1.000000 1 -3.000000
102 2 -104.142000 -1069.580000 -0.021551 1 1.000000 5 -3.000000
103 1 -75.231700 -1078.460000 -36.269600 1 1.000000 5 0.000000
104 3 -54.118100 -1063.750000 -12.617800 1 1.000000 5 0.000000
105 2 -33.016500 -1079.870000 -57.209200 1 1.000000 5 -3.000000
106 2 -27.634600 -1076.080000 -49.800500 1 1.000000 1 -3.000000
107 2 -21.044700 -1072.440000 -43.383600 1 1.000000 1 -3.000000
108 2 -15.417800 -1072.500000 -35.235300 1 1.000000 1 -3.000000
109 2 -11.226500 -1073.310000 -26.259000 1 1.000000 1 -3.000000
110 2 -9.749740 -1074.180000 -16.533800 1 1.000000 1 -3.000000
111 2 -8.675430 -1073.100000 -6.698210 1 1.000000 1 -3.000000
112 2 -7.931400 -1070.510000 2.825090 1 1.000000 1 -3.000000
113 2 -8.446490 -1065.850000 11.645700 1 1.000000 1 -3.000000
114 2 -10.828600 -1059.400000 18.732500 1 1.000000 1 -3.000000
115 2 -10.429000 -1054.670000 27.389700 1 1.000000 1 -3.000000
116 2 -7.758180 -1048.490000 34.727800 1 1.000000 1 -3.000000
117 2 -5.431460 -1043.040000 42.701800 1 1.000000 1 -3.000000
118 2 -3.174050 -1039.640000 51.685700 1 1.000000 1 -3.000000
119 2 -1.971700 -1034.320000 59.968000 1 1.000000 1 -3.000000
120 2 -3.062820 -1030.070000 68.811400 1 1.000000 1 -3.000000
121 2 -3.187890 -1026.140000 77.840500 1 1.000000 1 -3.000000
122 2 -2.561880 -1023.270000 87.341900 1 1.000000 1 -3.000000
123 2 -1.428720 -1019.940000 96.569300 1 1.000000 1 -3.000000
124 2 1.014790 -1017.410000 105.863000 1 1.000000 1 -3.000000
125 2 4.044250 -1013.200000 114.336000 1 1.000000 1 -3.000000
126 2 7.940600 -1007.790000 121.646000 1 1.000000 1 -3.000000
127 2 10.725200 -1001.890000 128.958000 1 1.000000 1 -3.000000
128 2 13.058100 -994.098000 134.641000 1 1.000000 1 -3.000000
129 2 14.600000 -985.830000 139.893000 1 1.000000 6 -3.000000
130 1 2.513960 -948.930000 113.038000 1 1.000000 6 0.000000
131 3 -11.487500 -976.061000 95.991700 1 1.000000 6 0.000000
132 2 -21.056600 -928.598000 77.569700 1 1.000000 6 -3.000000
133 2 -23.455000 -936.489000 72.083900 1 1.000000 1 -3.000000
134 2 -26.822200 -944.920000 68.120700 1 1.000000 1 -3.000000
135 2 -31.099800 -952.767000 63.954700 1 1.000000 1 -3.000000
136 2 -33.763600 -961.890000 61.411500 1 1.000000 1 -3.000000
137 2 -37.213900 -971.055000 60.066600 1 1.000000 1 -3.000000
138 2 -40.611600 -980.233000 61.908400 1 1.000000 1 -3.000000
139 2 -42.307500 -989.392000 65.254600 1 1.000000 1 -3.000000
140 2 -44.196100 -998.999000 67.238000 1 1.000000 1 -3.000000
141 2 -45.155400 -1008.780000 66.345800 1 1.000000 1 -3.000000
142 2 -48.580700 -1018.050000 67.496000 1 1.000000 1 -3.000000
143 2 -50.485300 -1027.610000 65.968300 1 1.000000 1 -3.000000
144 2 -54.189800 -1036.460000 63.755700 1 1.000000 1 -3.000000
145 2 -57.680300 -1045.410000 61.549000 1 1.000000 1 -3.000000
146 2 -61.439400 -1054.510000 60.348300 1 1.000000 1 -3.000000
147 2 -66.857900 -1062.730000 60.970600 1 1.000000 1 -3.000000
148 2 -73.362100 -1070.190000 61.630500 1 1.000000 1 -3.000000
149 2 -80.342300 -1077.240000 62.011100 1 1.000000 1 -3.000000
150 2 -88.309300 -1083.230000 61.342800 1 1.000000 1 -3.000000
151 2 -97.195200 -1087.370000 60.252300 1 1.000000 1 -3.000000
152 2 -106.282000 -1090.950000 59.029300 1 1.000000 1 -3.000000
153 2 -115.433000 -1093.860000 61.368600 1 1.000000 1 -3.000000
154 2 -124.330000 -1096.890000 64.438400 1 1.000000 1 -3.000000
155 2 -133.500000 -1099.580000 67.164800 1 1.000000 1 -3.000000
156 2 -142.216000 -1103.770000 69.393500 1 1.000000 7 -3.000000
157 1 -138.817000 -1089.150000 114.150000 1 1.000000 7 0.000000
158 3 -113.516000 -1071.120000 97.945900 1 1.000000 7 0.000000
159 2 -119.956000 -1063.390000 148.809000 1 1.000000 7 -3.000000
160 2 -113.126000 -1058.410000 143.751000 1 1.000000 1 -3.000000
161 2 -105.970000 -1053.400000 139.136000 1 1.000000 1 -3.000000
162 2 -99.788400 -1048.380000 133.337000 1 1.000000 1 -3.000000
163 2 -95.228200 -1042.580000 126.719000 1 1.000000 1 -3.000000
164 2 -91.707100 -1038.030000 118.664000 1 1.000000 1 -3.000000
165 2 -91.372800 -1032.880000 110.238000 1 1.000000 1 -3.000000
166 2 -92.701600 -1028.720000 101.340000 1 1.000000 1 -3.000000
167 2 -93.598900 -1025.480000 92.039700 1 1.000000 1 -3.000000
168 2 -94.566000 -1021.790000 82.854700 1 1.000000 1 -3.000000
169 2 -97.095700 -1016.380000 74.964000 1 1.000000 1 -3.000000
170 2 -99.569800 -1008.380000 69.608900 1 1.000000 1 -3.000000
171 2 -103.408000 -1001.980000 63.041800 1 1.000000 1 -3.000000
172 2 -108.871000 -996.555000 56.882000 1 1.000000 1 -3.000000
173 2 -114.585000 -991.499000 50.585600 1 1.000000 1 -3.000000
174 2 -120.240000 -988.686000 42.923000 1 1.000000 1 -3.000000
175 2 -125.291000 -986.082000 34.833000 1 1.000000 1 -3.000000
176 2 -129.097000 -981.347000 26.938000 1 1.000000 1 -3.000000
177 2 -134.056000 -976.356000 19.932400 1 1.000000 1 -3.000000
178 2 -140.283000 -971.419000 14.214900 1 1.000000 1 -3.000000
179 2 -146.901000 -966.839000 8.367180 1 1.000000 1 -3.000000
180 2 -150.388000 -963.109000 -0.070353 1 1.000000 1 -3.000000
181 2 -152.840000 -958.124000 -8.187710 1 1.000000 1 -3.000000
182 2 -155.050000 -953.660000 -16.716000 1 1.000000 1 -3.000000
183 2 -158.666000 -948.604000 -24.338500 1 1.000000 8 -3.000000
184 1 -114.263000 -935.418000 -33.401200 1 1.000000 8 0.000000
185 3 -110.318000 -965.861000 -16.691300 1 1.000000 8 0.000000
186 2 -67.648900 -942.520000 -34.776200 1 1.000000 8 -3.000000
187 2 -68.377300 -952.263000 -36.223800 1 1.000000 1 -3.000000
188 2 -69.995700 -961.787000 -38.591000 1 1.000000 1 -3.000000
189 2 -72.359700 -971.204000 -40.452400 1 1.000000 1 -3.000000
190 2 -75.149700 -980.392000 -42.560200 1 1.000000 1 -3.000000
191 2 -78.498100 -989.288000 -45.537300 1 1.000000 1 -3.000000
192 2 -79.454400 -998.382000 -49.551900 1 1.000000 1 -3.000000
193 2 -82.527200 -1006.440000 -54.377400 1 1.000000 1 -3.000000
194 2 -87.002800 -1012.400000 -60.858400 1 1.000000 1 -3.000000
195 2 -91.983400 -1018.980000 -66.384900 1 1.000000 1 -3.000000
196 2 -96.431700 -1025.250000 -72.612700 1 1.000000 1 -3.000000
197 2 -99.391500 -1030.580000 -80.443600 1 1.000000 1 -3.000000
198 2 -103.892000 -1034.370000 -88.380900 1 1.000000 1 -3.000000
199 2 -109.053000 -1039.260000 -95.330500 1 1.000000 1 -3.000000
200 2 -114.848000 -1045.170000 -100.772000 1 1.000000 1 -3.000000
201 2 -119.527000 -1050.210000 -107.900000 1 1.000000 1 -3.000000
202 2 -124.032000 -1057.020000 -113.462000 1 1.000000 1 -3.000000
203 2 -127.125000 -1064.410000 -119.291000 1 1.000000 1 -3.000000
204 2 -129.893000 -1071.650000 -125.410000 1 1.000000 1 -3.000000
205 2 -133.538000 -1079.590000 -130.034000 1 1.000000 1 -3.000000
206 2 -134.778000 -1088.350000 -134.311000 1 1.000000 1 -3.000000
207 2 -135.530000 -1096.080000 -140.451000 1 1.000000 1 -3.000000
208 2 -136.400000 -1102.640000 -147.786000 1 1.000000 1 -3.000000
209 2 -138.532000 -1108.850000 -155.140000 1 1.000000 1 -3.000000
210 2 -139.958000 -1114.270000 -163.318000 1 1.000000 9 -3.000000
211 1 -169.250000 -1086.020000 -187.200000 1 1.000000 9 0.000000
212 3 -152.682000 -1064.010000 -165.739000 1 1.000000 9 0.000000
213 2 -190.023000 -1044.570000 -196.080000 1 1.000000 9 -3.000000
214 2 -183.036000 -1039.220000 -191.504000 1 1.000000 1 -3.000000
215 2 -176.750000 -1032.920000 -187.018000 1 1.000000 1 -3.000000
216 2 -169.437000 -1027.010000 -183.936000 1 1.000000 1 -3.000000
217 2 -161.230000 -1022.520000 -180.606000 1 1.000000 1 -3.000000
218 2 -153.735000 -1019.070000 -175.192000 1 1.000000 1 -3.000000
219 2 -145.394000 -1018.950000 -169.974000 1 1.000000 1 -3.000000
220 2 -136.957000 -1020.050000 -164.883000 1 1.000000 1 -3.000000
221 2 -127.597000 -1020.430000 -161.638000 1 1.000000 1 -3.000000
222 2 -118.043000 -1017.740000 -161.200000 1 1.000000 1 -3.000000
223 2 -108.993000 -1013.830000 -162.103000 1 1.000000 1 -3.000000
224 2 -100.024000 -1010.030000 -163.798000 1 1.000000 1 -3.000000
225 2 -90.615100 -1007.820000 -165.984000 1 1.000000 1 -3.000000
226 2 -81.918800 -1007.150000 -170.611000 1 1.000000 1 -3.000000
227 2 -73.521600 -1006.470000 -175.697000 1 1.000000 1 -3.000000
228 2 -65.249400 -1006.530000 -181.126000 1 1.000000 1 -3.000000
229 2 -56.745300 -1006.770000 -186.218000 1 1.000000 1 -3.000000
230 2 -48.774300 -1009.790000 -191.365000 1 1.000000 1 -3.000000
231 2 -40.945800 -1013.990000 -195.637000 1 1.000000 1 -3.000000
232 2 -33.304300 -1019.260000 -199.035000 1 1.000000 1 -3.000000
233 2 -25.676100 -1023.920000 -203.485000 1 1.000000 1 -3.000000
234 2 -20.307500 -1029.710000 -209.353000 1 1.000000 1 -3.000000
235 2 -16.801300 -1036.350000 -215.916000 1 1.000000 1 -3.000000
236 2 -12.272700 -1042.930000 -221.760000 1 1.000000 1 -3.000000
237 2 -6.187010 -1050.230000 -224.385000 1 1.000000 10 -3.000000
238 1 -41.899100 -1081.000000 -225.077000 1 1.000000 10 0.000000
239 3 -57.880600 -1050.230000 -220.541000 1 1.000000 10 0.000000
240 2 -87.604700 -1092.660000 -223.063000 1 1.000000 10 -3.000000
241 2 -91.763600 -1083.900000 -224.733000 1 1.000000 1 -3.000000
242 2 -95.754700 -1075.200000 -227.367000 1 1.000000 1 -3.000000
243 2 -99.257200 -1066.340000 -230.054000 1 1.000000 1 -3.000000
244 2 -101.038000 -1056.930000 -232.287000 1 1.000000 1 -3.000000
245 2 -99.695400 -1047.330000 -234.122000 1 1.000000 1 -3.000000
246 2 -98.549900 -1037.480000 -234.023000 1 1.000000 1 -3.000000
247 2 -96.752300 -1027.800000 -233.931000 1 1.000000 1 -3.000000
248 2 -96.514500 -1017.980000 -232.976000 1 1.000000 1 -3.000000
249 2 -97.137000 -1008.130000 -232.404000 1 1.000000 1 -3.000000
250 2 -97.067600 -998.541000 -229.737000 1 1.000000 1 -3.000000
251 2 -98.590600 -989.641000 -225.861000 1 1.000000 1 -3.000000
252 2 -98.677400 -980.673000 -221.727000 1 1.000000 1 -3.000000
253 2 -97.139100 -972.618000 -216.199000 1 1.000000 1 -3.000000
254 2 -93.953200 -965.349000 -210.244000 1 1.000000 1 -3.000000
255 2 -91.637500 -957.770000 -204.264000 1 1.000000 1 -3.000000
256 2 -90.036100 -950.137000 -198.128000 1 1.000000 1 -3.000000
257 2 -88.227100 -940.928000 -195.042000 1 1.000000 1 -3.000000
258 2 -86.198000 -931.348000 -193.566000 1 1.000000 1 -3.000000
259 2 -83.136000 -922.131000 -191.592000 1 1.000000 1 -3.000000
260 2 -80.596800 -912.612000 -190.885000 1 1.000000 1 -3.000000
261 2 -77.612400 -903.273000 -189.627000 1 1.000000 1 -3.000000
262 2 -74.250900 -893.945000 -189.859000 1 1.000000 1 -3.000000
263 2 -67.353300 -886.873000 -191.171000 1 1.000000 1 -3.000000
264 2 -60.173000 -880.239000 -192.625000 1 1.000000 11 -3.000000
265 1 -48.647700 -890.752000 -237.160000 1 1.000000 11 0.000000
266 3 -81.630300 -902.214000 -234.462000 1 1.000000 11 0.000000
267 2 -58.158200 -906.131000 -280.691000 1 1.000000 11 -3.000000
268 2 -67.476000 -906.985000 -277.498000 1 1.000000 1 -3.000000
269 2 -76.967600 -908.986000 -275.507000 1 1.000000 1 -3.000000
270 2 -86.823900 -910.091000 -274.340000 1 1.000000 1 -3.000000
271 2 -96.474200 -910.325000 -272.417000 1 1.000000 1 -3.000000
272 2 -105.912000 -910.728000 -269.750000 1 1.000000 1 -3.000000
273 2 -115.139000 -909.802000 -266.228000 1 1.000000 1 -3.000000
274 2 -123.160000 -906.815000 -261.186000 1 1.000000 1 -3.000000
275 2 -131.798000 -904.483000 -257.028000 1 1.000000 1 -3.000000
276 2 -140.770000 -901.869000 -253.509000 1 1.000000 1 -3.000000
277 2 -149.065000 -898.401000 -249.382000 1 1.000000 1 -3.000000
278 2 -158.006000 -895.813000 -245.962000 1 1.000000 1 -3.000000
279 2 -167.343000 -895.039000 -242.614000 1 1.000000 1 -3.000000
280 2 -177.153000 -894.307000 -241.238000 1 1.000000 1 -3.000000
281 2 -186.948000 -894.379000 -240.207000 1 1.000000 1 -3.000000
282 2 -195.550000 -892.702000 -235.687000 1 1.000000 1 -3.000000
283 2 -202.972000 -892.507000 -229.070000 1 1.000000 1 -3.000000
284 2 -211.156000 -894.873000 -224.077000 1 1.000000 1 -3.000000
285 2 -220.403000 -894.691000 -220.646000 1 1.000000 1 -3.000000
286 2 -229.110000 -892.702000 -216.336000 1 1.000000 1 -3.000000
287 2 -237.527000 -889.846000 -212.099000 1 1.000000 1 -3.000000
288 2 -245.635000 -884.960000 -209.227000 1 1.000000 1 -3.000000
289 2 -253.171000 -879.178000 -206.486000 1 1.000000 1 -3.000000
290 2 -259.164000 -872.143000 -202.867000 1 1.000000 1 -3.000000
291 2 -266.543000 -865.715000 -201.261000 1 1.000000 12 -3.000000
292 1 -240.353000 -826.550000 -203.810000 1 1.000000 12 0.000000
293 3 -222.621000 -849.372000 -223.514000 1 1.000000 12 0.000000
294 2 -201.537000 -802.458000 -215.605000 1 1.000000 12 -3.000000
295 2 -197.642000 -808.380000 -222.602000 1 1.000000 1 -3.000000
296 2 -195.602000 -813.992000 -230.480000 1 1.000000 1 -3.000000
297 2 -193.294000 -820.231000 -237.824000 1 1.000000 1 -3.000000
298 2 -192.581000 -825.625000 -246.146000 1 1.000000 1 -3.000000
299 2 -192.641000 -832.556000 -253.276000 1 1.000000 1 -3.000000
300 2 -193.718000 -839.922000 -259.886000 1 1.000000 1 -3.000000
301 2 -195.176000 -847.208000 -266.385000 1 1.000000 1 -3.000000
302 2 -194.811000 -852.026000 -274.951000 1 1.000000 1 -3.000000
303 2 -195.991000 -856.629000 -283.536000 1 1.000000 1 -3.000000
304 2 -198.484000 -858.750000 -292.939000 1 1.000000 1 -3.000000
305 2 -201.563000 -861.628000 -301.977000 1 1.000000 1 -3.000000
306 2 -205.195000 -863.779000 -311.010000 1 1.000000 1 -3.000000
307 2 -208.818000 -867.739000 -319.300000 1 1.000000 1 -3.000000
308 2 -210.477000 -869.581000 -328.893000 1 1.000000 1 -3.000000
309 2 -213.787000 -869.611000 -338.279000 1 1.000000 1 -3.000000
310 2 -218.303000 -869.288000 -347.120000 1 1.000000 1 -3.000000
311 2 -223.723000 -868.370000 -355.322000 1 1.000000 1 -3.000000
312 2 -229.009000 -865.149000 -363.058000 1 1.000000 1 -3.000000
313 2 -237.149000 -861.804000 -367.671000 1 1.000000 1 -3.000000
314 2 -245.626000 -857.691000 -370.812000 1 1.000000 1 -3.000000
315 2 -254.338000 -853.615000 -373.198000 1 1.000000 1 -3.000000
316 2 -262.301000 -847.924000 -374.535000 1 1.000000 1 -3.000000
317 2 -268.971000 -840.751000 -375.568000 1 1.000000 1 -3.000000
318 2 -276.601000 -834.405000 -376.000000 1 1.000000 13 -3.000000
319 1 -272.108000 -811.130000 -335.271000 1 1.000000 13 0.000000
320 3 -242.828000 -830.229000 -336.775000 1 1.000000 13 0.000000
321 2 -250.718000 -801.264000 -294.362000 1 1.000000 13 -3.000000
322 2 -242.123000 -802.417000 -299.064000 1 1.000000 1 -3.000000
323 2 -232.894000 -805.653000 -300.569000 1 1.000000 1 -3.000000
324 2 -224.154000 -809.534000 -303.107000 1 1.000000 1 -3.000000
325 2 -216.328000 -815.112000 -305.631000 1 1.000000 1 -3.000000
326 2 -208.667000 -820.839000 -308.203000 1 1.000000 1 -3.000000
327 2 -201.814000 -824.545000 -314.296000 1 1.000000 1 -3.000000
328 2 -195.826000 -827.705000 -321.519000 1 1.000000 1 -3.000000
329 2 -189.810000 -829.781000 -329.027000 1 1.000000 1 -3.000000
330 2 -182.248000 -833.218000 -334.418000 1 1.000000 1 -3.000000
331 2 -176.566000 -835.164000 -342.296000 1 1.000000 1 -3.000000
332 2 -172.582000 -838.529000 -350.724000 1 1.000000 1 -3.000000
333 2 -168.390000 -842.739000 -358.614000 1 1.000000 1 -3.000000
334 2 -165.629000 -847.599000 -366.694000 1 1.000000 1 -3.000000
335 2 -162.261000 -852.232000 -374.767000 1 1.000000 1 -3.000000
336 2 -160.673000 -858.590000 -382.113000 1 1.000000 1 -3.000000
337 2 -159.294000 -863.896000 -390.370000 1 1.000000 1 -3.000000
338 2 -158.981000 -869.871000 -398.332000 1 1.000000 1 -3.000000
339 2 -158.397000 -876.126000 -406.036000 1 1.000000 1 -3.000000
340 2 -159.140000 -881.197000 -414.543000 1 1.000000 1 -3.000000
341 2 -159.929000 -884.522000 -423.738000 1 1.000000 1 -3.000000
342 2 -160.232000 -887.199000 -433.164000 1 1.000000 1 -3.000000
343 2 -162.708000 -888.453000 -442.689000 1 1.000000 1 -3.000000
344 2 -168.605000 -888.616000 -450.649000 1 1.000000 1 -3.000000
345 2 -173.740000 -889.952000 -458.929000 1 1.000000 14 -3.000000
346 1 -200.324000 -850.952000 -458.587000 1 1.000000 14 0.000000
347 3 -179.151000 -846.392000 -431.266000 1 1.000000 14 0.000000
348 2 -213.430000 -808.835000 -441.904000 1 1.000000 14 -3.000000
349 2 -209.158000 -807.973000 -433.055000 1 1.000000 1 -3.000000
350 2 -204.915000 -808.022000 -424.073000 1 1.000000 1 -3.000000
351 2 -198.274000 -808.762000 -416.806000 1 1.000000 1 -3.000000
352 2 -189.424000 -810.263000 -412.577000 1 1.000000 1 -3.000000
353 2 -180.504000 -811.599000 -408.330000 1 1.000000 1 -3.000000
354 2 -170.964000 -809.076000 -408.142000 1 1.000000 1 -3.000000
355 2 -161.309000 -807.416000 -409.356000 1 1.000000 1 -3.000000
356 2 -151.937000 -805.333000 -406.901000 1 1.000000 1 -3.000000
357 2 -142.874000 -803.580000 -403.305000 1 1.000000 1 -3.000000
358 2 -134.297000 -802.818000 -398.567000 1 1.000000 1 -3.000000
359 2 -125.681000 -801.206000 -394.132000 1 1.000000 1 -3.000000
360 2 -116.519000 -802.219000 -390.455000 1 1.000000 1 -3.000000
361 2 -107.269000 -803.045000 -387.106000 1 1.000000 1 -3.000000
362 2 -97.705200 -804.308000 -385.136000 1 1.000000 1 -3.000000
363 2 -88.242100 -806.503000 -383.586000 1 1.000000 1 -3.000000
364 2 -79.519400 -809.652000 -379.948000 1 1.000000 1 -3.000000
365 2 -70.717600 -812.591000 -376.434000 1 1.000000 1 -3.000000
366 2 -61.259000 -814.520000 -374.210000 1 1.000000 1 -3.000000
367 2 -51.789800 -816.905000 -372.544000 1 1.000000 1 -3.000000
368 2 -42.011100 -818.407000 -372.532000 1 1.000000 1 -3.000000
369 2 -32.473000 -820.443000 -371.195000 1 1.000000 1 -3.000000
370 2 -22.997800 -822.543000 -368.823000 1 1.000000 1 -3.000000
371 2 -13.466300 -820.986000 -366.685000 1 1.000000 1 -3.000000
372 2 -3.626380 -820.705000 -365.230000 1 1.000000 15 -3.000000
373 1 -9.183770 -791.981000 -328.181000 1 1.000000 15 0.000000
374 3 -37.535700 -812.545000 -326.720000 1 1.000000 15 0.000000
375 2 -31.260600 -777.256000 -289.174000 1 1.000000 15 -3.000000
376 2 -35.513500 -786.090000 -288.427000 1 1.000000 1 -3.000000
377 2 -39.922200 -794.652000 -285.713000 1 1.000000 1 -3.000000
378 2 -45.238300 -802.537000 -283.095000 1 1.000000 1 -3.000000
379 2 -50.470400 -810.987000 -282.571000 1 1.000000 1 -3.000000
380 2 -56.511600 -818.780000 -281.218000 1 1.000000 1 -3.000000
381 2 -63.304700 -824.610000 -276.802000 1 1.000000 1 -3.000000
382 2 -70.008300 -830.890000 -273.135000 1 1.000000 1 -3.000000
383 2 -77.056900 -834.754000 -267.311000 1 1.000000 1 -3.000000
384 2 -83.559900 -838.228000 -260.759000 1 1.000000 1 -3.000000
385 2 -88.432000 -843.502000 -253.950000 1 1.000000 1 -3.000000
386 2 -91.243700 -849.482000 -246.468000 1 1.000000 1 -3.000000
387 2 -94.146200 -853.949000 -238.155000 1 1.000000 1 -3.000000
388 2 -96.608200 -859.777000 -230.539000 1 1.000000 1 -3.000000
389 2 -102.175000 -865.835000 -224.993000 1 1.000000 1 -3.000000
390 2 -106.561000 -871.809000 -218.438000 1 1.000000 1 -3.000000
391 2 -111.950000 -878.051000 -212.929000 1 1.000000 1 -3.000000
392 2 -117.474000 -885.053000 -208.544000 1 1.000000 1 -3.000000
393 2 -123.854000 -892.228000 -206.137000 1 1.000000 1 -3.000000
394 2 -132.039000 -897.349000 -203.795000 1 1.000000 1 -3.000000
395 2 -140.619000 -901.984000 -202.398000 1 1.000000 1 -3.000000
396 2 -147.935000 -907.403000 -198.492000 1 1.000000 1 -3.000000
397 2 -154.040000 -913.747000 -193.765000 1 1.000000 1 -3.000000
398 2 -159.243000 -919.097000 -187.282000 1 1.000000 1 -3.000000
399 2 -165.859000 -924.781000 -182.387000 1 1.000000 16 -3.000000
400 1 -135.111000 -942.273000 -151.173000 1 1.000000 16 0.000000
401 3 -117.437000 -915.781000 -165.974000 1 1.000000 16 0.000000
402 2 -93.117000 -944.027000 -129.731000 1 1.000000 16 -3.000000
403 2 -87.976200 -936.910000 -134.350000 1 1.000000 1 -3.000000
404 2 -83.857900 -928.744000 -138.190000 1 1.000000 1 -3.000000
405 2 -81.038200 -919.760000 -141.244000 1 1.000000 1 -3.000000
406 2 -79.125400 -910.688000 -144.715000 1 1.000000 1 -3.000000
407 2 -77.581900 -901.406000 -147.890000 1 1.000000 1 -3.000000
408 2 -75.013800 -892.732000 -151.696000 1 1.000000 1 -3.000000
409 2 -75.255000 -883.220000 -154.396000 1 1.000000 1 -3.000000
410 2 -75.967000 -873.274000 -154.304000 1 1.000000 1 -3.000000
411 2 -73.472600 -863.779000 -153.565000 1 1.000000 1 -3.000000
412 2 -72.942600 -854.017000 -151.800000 1 1.000000 1 -3.000000
413 2 -71.459400 -844.184000 -151.521000 1 1.000000 1 -3.000000
414 2 -70.160800 -834.374000 -151.965000 1 1.000000 1 -3.000000
415 2 -66.390700 -825.193000 -152.662000 1 1.000000 1 -3.000000
416 2 -62.338800 -816.697000 -155.675000 1 1.000000 1 -3.000000
417 2 -57.752500 -808.084000 -157.113000 1 1.000000 1 -3.000000
418 2 -53.307100 -799.535000 -159.277000 1 1.000000 1 -3.000000
419 2 -48.101400 -791.178000 -160.642000 1 1.000000 1 -3.000000
420 2 -42.442300 -783.269000 -162.420000 1 1.000000 1 -3.000000
421 2 -36.412500 -775.572000 -164.045000 1 1.000000 1 -3.000000
422 2 -31.220200 -767.695000 -167.216000 1 1.000000 1 -3.000000
423 2 -25.356900 -761.224000 -171.902000 1 1.000000 1 -3.000000
424 2 -20.424900 -753.576000 -175.793000 1 1.000000 1 -3.000000
425 2 -16.395700 -744.969000 -178.577000 1 1.000000 1 -3.000000
426 2 -11.557900 -736.950000 -181.846000 1 1.000000 17 -3.000000
427 1 -42.128800 -705.765000 -164.023000 1 1.000000 17 0.000000
428 3 -49.530900 -735.207000 -146.562000 1 1.000000 17 0.000000
429 2 -77.031000 -692.597000 -135.112000 1 1.000000 17 -3.000000
430 2 -77.321400 -699.870000 -128.283000 1 1.000000 1 -3.000000
431 2 -77.679200 -707.174000 -121.682000 1 1.000000 1 -3.000000
432 2 -77.581200 -715.258000 -115.996000 1 1.000000 1 -3.000000
433 2 -74.734500 -723.200000 -110.790000 1 1.000000 1 -3.000000
434 2 -70.632000 -731.625000 -107.508000 1 1.000000 1 -3.000000
435 2 -66.603500 -740.287000 -104.810000 1 1.000000 1 -3.000000
436 2 -64.095100 -749.050000 -100.769000 1 1.000000 1 -3.000000
437 2 -62.895800 -756.774000 -94.724800 1 1.000000 1 -3.000000
438 2 -60.503000 -763.758000 -88.147000 1 1.000000 1 -3.000000
439 2 -57.712500 -769.875000 -80.890200 1 1.000000 1 -3.000000
440 2 -55.414800 -773.549000 -71.955500 1 1.000000 1 -3.000000
441 2 -52.058300 -777.124000 -63.383200 1 1.000000 1 -3.000000
442 2 -50.234200 -777.712000 -53.733500 1 1.000000 1 -3.000000
443 2 -47.887600 -778.652000 -44.121500 1 1.000000 1 -3.000000
444 2 -47.118500 -780.643000 -34.455500 1 1.000000 1 -3.000000
445 2 -46.964600 -782.896000 -24.857700 1 1.000000 1 -3.000000
446 2 -45.740000 -785.037000 -15.220700 1 1.000000 1 -3.000000
447 2 -43.634300 -785.675000 -5.588280 1 1.000000 1 -3.000000
448 2 -40.450800 -788.428000 3.339900 1 1.000000 1 -3.000000
449 2 -39.127800 -792.004000 12.468900 1 1.000000 1 -3.000000
450 2 -38.488400 -796.513000 21.174200 1 1.000000 1 -3.000000
451 2 -37.761000 -802.761000 28.848900 1 1.000000 1 -3.000000
452 2 -34.997600 -809.160000 35.854600 1 1.000000 1 -3.000000
453 2 -30.296700 -814.320000 42.917400 1 1.000000 18 -3.000000
454 1 -16.003000 -851.066000 16.929600 1 1.000000 18 0.000000
455 3 -14.502400 -824.352000 -5.582320 1 1.000000 18 0.000000
456 2 -3.886240 -871.712000 -23.745300 1 1.000000 18 -3.000000
457 2 2.732130 -864.912000 -26.540300 1 1.000000 1 -3.000000
458 2 8.823140 -858.105000 -30.282700 1 1.000000 1 -3.000000
459 2 12.128700 -849.083000 -32.664700 1 1.000000 1 -3.000000
460 2 14.416300 -840.164000 -36.283500 1 1.000000 1 -3.000000
461 2 14.952600 -830.540000 -38.373600 1 1.000000 1 -3.000000
462 2 14.366700 -820.722000 -39.859200 1 1.000000 1 -3.000000
463 2 14.215600 -810.871000 -38.660800 1 1.000000 1 -3.000000
464 2 15.769500 -801.346000 -36.500000 1 1.000000 1 -3.000000
465 2 15.145100 -791.831000 -34.102200 1 1.000000 1 -3.000000
466 2 14.278700 -782.395000 -30.769900 1 1.000000 1 -3.000000
467 2 13.174300 -772.761000 -28.921500 1 1.000000 1 -3.000000