ITEM: TIMESTEP
10000000
ITEM: NUMBER OF ATOMS
4067
ITEM: BOX BOUNDS pp pp pp
-4.6310929470000001e+03 4.6704658980000004e+03
-4.6310929470000001e+03 4.6704658980000004e+03
-4.6310929470000001e+03 4.6704658980000004e+03
ITEM: ATOMS id type x y z c_q[1] c_q[2] c_q[3] c_q[4] 
2292 2 -231.494 -121.314 -1192.03 -0.574513 0.216373 -0.763547 -0.200284 
2293 2 -223.616 -115.903 -1194.87 -0.132367 -0.4223 -0.684306 -0.57954 
2294 2 -217.016 -109.007 -1197.5 0.261895 -0.766024 -0.0238151 -0.586558 
2295 2 -208.295 -104.47 -1198.9 0.623239 -0.446481 0.638006 -0.0719459 
2296 2 -199.851 -99.6986 -1200.89 0.488801 0.0978108 0.667547 0.55307 
2290 1 -204.942 -157.696 -1178.02 -0.736989 0.471075 -0.483679 -0.0314617 
2297 2 -192.454 -93.1672 -1199.87 -0.17898 0.55765 0.366278 0.723072 
2298 2 -185.72 -86.0701 -1198.5 -0.585416 0.712095 -0.0864395 0.377805 
2344 1 -154.769 -68.3169 -1230.66 -0.838901 0.266304 -0.186031 -0.436715 
2299 2 -179.446 -78.38 -1198.88 -0.722097 0.291634 -0.584402 -0.228035 
2343 2 -108.545 -76.5744 -1225.94 -0.135619 -0.98565 0.0993712 0.0150678 
2289 2 -164.845 -177.223 -1162.54 0.276196 0.6828 0.412702 -0.535889 
2288 2 -159.923 -169.078 -1159.64 -0.183808 0.150509 0.776646 -0.583424 
2287 2 -156.232 -161.068 -1154.95 -0.470451 -0.534375 0.654058 -0.255592 
2286 2 -152.874 -153.279 -1149.8 -0.454874 -0.874692 0.0575507 0.157134 
2285 2 -150.797 -144.13 -1146.68 -0.258582 -0.508099 -0.618035 0.541298 
2284 2 -150.033 -134.849 -1143.64 0.238823 0.23451 -0.766206 0.54854 
2283 2 -150.577 -125.775 -1139.83 0.487489 0.81034 -0.247862 0.2104 
2291 3 -183.307 -130.355 -1175.29 -0.742603 0.480134 -0.46573 -0.033296 
2282 2 -150.455 -116.401 -1136.57 0.513256 0.707022 0.410628 -0.260908 
2281 2 -149.046 -107.396 -1132.53 0.0369803 0.167652 0.834606 -0.523409 
2280 2 -146.748 -98.0654 -1130.15 -0.509089 -0.538839 0.598085 -0.30459 
2342 2 -108.306 -73.7711 -1216.46 -0.102759 -0.721688 -0.676924 0.101882 
2341 2 -107.238 -72.9344 -1206.63 0.039194 0.0941275 -0.994161 0.0353328 
2340 2 -108.55 -72.5184 -1196.82 -0.0433396 0.811457 -0.580304 0.0539215 
2300 2 -172.382 -71.6622 -1197.36 -0.289049 -0.235513 -0.604885 -0.703632 
2279 2 -141.549 -91.3161 -1125.12 -0.436386 -0.861752 0.0390639 0.255782 
2339 2 -109.633 -69.0817 -1187.64 0.169556 0.919048 0.354174 -0.0340853 
2338 2 -111.305 -64.6377 -1178.86 0.11769 0.194025 0.944841 -0.236174 
2301 2 -165.935 -64.4132 -1195.56 0.366701 -0.624407 -0.234301 -0.648652 
2337 2 -115.246 -59.5622 -1171.32 -0.00673186 -0.692763 0.639769 -0.332761 
2302 2 -159.995 -56.4994 -1195.06 0.644123 -0.752269 0.124426 -0.0609544 
2346 2 -194.955 -46.0153 -1219.76 0.903987 -0.374052 0.0469404 -0.201717 
2336 2 -119.221 -52.078 -1166.16 -0.428159 -0.864833 0.0505605 -0.25727 
2335 2 -124.27 -44.2749 -1162.89 -0.557474 -0.561794 -0.597873 0.127117 
2345 3 -145.994 -48.9652 -1202.95 -0.838037 0.260186 -0.256344 -0.40532 
2334 2 -130.38 -36.6224 -1161.46 -0.276183 0.174735 -0.742405 0.584829 
2347 2 -192.155 -39.4442 -1212.88 0.712193 -0.112878 0.38835 0.573781 
2333 2 -137.112 -29.7539 -1159.29 0.208851 0.700977 -0.353235 0.583298 
2303 2 -157.249 -47.1136 -1196.56 0.604429 -0.259281 0.634042 0.40673 
2348 2 -187.928 -33.3513 -1206.35 -0.0203155 0.261828 0.469921 0.842738 
2349 2 -183.117 -25.6305 -1202.28 -0.569778 0.552027 0.0385891 0.607561 
2332 2 -143.162 -22.1136 -1157.2 0.599262 0.715959 0.336013 0.124025 
2331 2 -151.229 -16.7219 -1155.26 0.588479 0.0871255 0.759399 -0.263469 
2330 2 -159.801 -11.7114 -1155.47 0.161763 -0.482557 0.490221 -0.70757 
2350 2 -176.957 -18.7442 -1198.69 -0.830985 0.302245 -0.455254 -0.104189 
2351 2 -170.033 -12.4801 -1195.57 -0.416805 -0.202459 -0.593275 -0.658263 
2352 2 -162.691 -6.24151 -1193.04 0.26033 -0.599253 -0.293233 -0.697953 
2353 2 -155.508 0.528573 -1191.86 0.713188 -0.600744 0.304461 -0.194352 
2354 2 -148.896 7.69602 -1190.69 0.486284 -0.23353 0.71939 0.437573 
2355 2 -143.928 16.2255 -1191.66 -0.0351794 0.272007 0.620152 0.734974 
2356 2 -140.066 25.3444 -1191.11 -0.659733 0.586239 0.256296 0.394194 
2357 2 -138.104 34.8346 -1189.22 -0.663974 0.624089 -0.368626 -0.183757 
2358 2 -135.324 44.3725 -1189.34 -0.289689 0.0509515 -0.749863 -0.592613 
2328 2 -173.895 0.958853 -1160.74 -0.777275 -0.309173 -0.508331 0.204586 
2327 2 -177.688 10.1071 -1160.89 -0.213203 0.0487052 -0.702635 0.677109 
2326 2 -179.509 19.8084 -1160.91 0.424542 0.526577 -0.483049 0.556007 
2329 2 -167.183 -5.68723 -1157.96 -0.573835 -0.627962 -0.0638384 -0.521825 
2325 2 -182.299 29.2635 -1161.58 0.717192 0.65862 0.226407 -0.0243937 
2324 2 -185.374 38.5934 -1160.25 0.400167 0.258478 0.717269 -0.508508 
2304 2 -152.155 -38.6818 -1195.84 0.139769 0.30823 0.636623 0.692943 
2305 2 -145.681 -31.2156 -1196.46 -0.458509 0.649204 0.277085 0.539933 
2306 2 -141.189 -22.3812 -1196.52 -0.702534 0.629557 -0.307998 0.123457 
2307 2 -135.571 -14.1697 -1196.38 -0.512714 0.188285 -0.71347 -0.4389 
2308 2 -130.276 -5.80883 -1197.06 0.0587967 -0.413073 -0.613215 -0.670731 
2309 2 -124.549 2.23156 -1197.77 0.609456 -0.673287 -0.0165107 -0.418302 
2323 2 -185.875 48.2735 -1158.18 -0.287702 -0.396094 0.663174 -0.56616 
2322 2 -185.067 58.0403 -1156.84 -0.666505 -0.733435 0.118058 -0.0625002 
2310 2 -119.12 10.531 -1196.81 0.778458 -0.37821 0.456873 0.205493 
2321 2 -181.993 67.0477 -1154.15 -0.343551 -0.655297 -0.472343 0.47901 
2311 2 -113.926 18.3166 -1193.69 0.223415 0.0742718 0.496963 0.835223 
2318 3 -141.68 48.1881 -1165.83 0.575528 0.587737 -0.546261 0.157897 
2320 2 -179.418 75.6663 -1149.97 0.152363 0.00642322 -0.844731 0.513005 
2312 2 -110.042 26.3195 -1189.31 -0.350268 0.515946 0.258741 0.737676 
2313 2 -104.324 33.6706 -1186.11 -0.820293 0.519513 -0.192818 0.141587 
2314 2 -99.6807 41.2112 -1181.71 -0.664579 0.140613 -0.466113 -0.566835 
2315 2 -94.9985 48.161 -1176.34 0.0214499 -0.26511 -0.439995 -0.857707 
2316 2 -90.6557 55.5392 -1171.34 0.678808 -0.488133 -0.0856733 -0.541854 
2261 2 -104.223 36.7185 -1146.94 -0.295501 0.788987 0.104348 0.52848 
2262 2 -96.3439 42.3599 -1149.11 -0.601648 0.564679 -0.551466 0.122644 
2359 2 -131.617 53.4759 -1190.33 0.362865 -0.491117 -0.509352 -0.606377 
2260 2 -111.904 31.3507 -1143.76 0.2219 0.417072 0.69744 0.538877 
2360 2 -128.887 62.9395 -1190.48 0.709021 -0.684744 0.16147 -0.048398 
2317 1 -128.29 78.6158 -1154.88 0.550149 0.628579 -0.535076 0.126169 
2361 2 -126.369 72.587 -1190.57 0.507095 -0.396044 0.573373 0.507196 
2362 2 -123.859 82.2173 -1191.01 0.0423883 0.344284 0.74929 0.564124 
2363 2 -119.03 90.152 -1194.4 -0.287705 0.856171 0.154685 0.400336 
2319 2 -174.55 83.7542 -1146.99 0.571432 0.599636 -0.546179 0.124863 
2259 2 -120.276 27.7901 -1139.83 0.513929 -0.186132 0.832607 0.0894302 
2258 2 -127.909 25.1592 -1134.01 0.328654 -0.79598 0.365758 -0.353019 
2257 2 -134.46 21.0697 -1127.79 0.0764854 -0.815661 -0.395782 -0.414974 
2401 2 -36.2789 86.186 -1205.73 0.487774 -0.00768047 -0.751767 -0.443694 
2400 2 -28.795 79.7998 -1206.28 0.000628422 0.530711 -0.440982 -0.723795 
2398 1 -15.1905 88.6725 -1162 -0.611739 0.513536 0.462183 -0.385283 
2402 2 -43.9303 92.3303 -1206.66 0.651772 -0.541395 -0.471451 0.24458 
2364 2 -113.036 96.5111 -1198.98 -0.393177 0.620984 -0.676422 -0.0473624 
2391 2 -78.7318 97.6943 -1126.75 0.728238 0.304063 0.452925 0.414818 
2388 2 -105.035 105.06 -1138.2 -0.545189 -0.545596 -0.274653 -0.57416 
2365 2 -108.311 102.587 -1205.26 -0.174096 -0.0961333 -0.86467 -0.461297 
2366 2 -103.845 109.785 -1210.4 0.311109 -0.699315 -0.52778 -0.368264 
2387 2 -112.808 110.62 -1140.65 -0.78979 -0.251771 -0.538801 0.150123 
2405 2 -69.4442 105.57 -1201.19 -0.826352 0.20933 0.467662 0.233697 
2386 2 -122.219 113.215 -1142.11 -0.439142 0.391892 -0.51394 0.624052 
2385 2 -131.63 114.399 -1144.65 0.141121 0.609338 -0.00109188 0.78025 
2406 2 -76.0332 110.939 -1196.06 -0.728713 0.42042 0.0432604 -0.538844 
2373 2 -191.831 142.569 -1232.14 -0.966576 -0.223599 0.0603778 -0.109947 
2372 3 -145.905 125.859 -1214.58 0.765576 0.347193 -0.205335 0.501187 
2371 1 -145.911 151.329 -1238.49 0.754058 0.323438 -0.216341 0.529132 
2367 2 -101.75 117.68 -1215.97 0.497658 -0.840389 0.207442 0.0552208 
2368 2 -101.098 126.224 -1221 0.174328 -0.32951 0.838602 0.397215 
2369 2 -100.982 134.173 -1227.02 -0.228039 0.435693 0.737842 0.462341 
2370 2 -99.984 142.699 -1231.86 -0.501918 0.855253 0.0957859 0.086284 
2374 2 -191.982 138.137 -1223.29 -0.529519 -0.105615 0.132221 -0.831248 
2375 2 -191.727 135.012 -1213.95 0.290825 -0.0984191 0.194769 -0.931558 
2376 2 -189.588 132.252 -1204.73 0.931334 0.126255 0.207176 -0.271579 
2377 2 -186.756 128.582 -1196.07 0.760543 0.347249 0.00249153 0.548622 
2380 2 -169.644 118.593 -1174.98 -0.907989 -0.130443 -0.344613 -0.199455 
2378 2 -182.985 123.662 -1188.33 0.0523588 0.375075 -0.18318 0.907206 
2379 2 -176.479 119.715 -1182.09 -0.69925 0.189351 -0.30152 0.619904 
2381 2 -162.636 117.982 -1168.05 -0.463271 -0.346128 -0.122409 -0.806592 
2382 2 -156.2 117.034 -1160.73 0.361029 -0.374441 0.197577 -0.830912 
2384 2 -140.322 115.597 -1149.2 0.753956 0.323583 0.384407 0.423174 
2383 2 -148.748 116.052 -1154.27 0.839767 -0.141524 0.456841 -0.257019 
2407 2 -80.9409 116.375 -1189.4 -0.0737678 0.188169 -0.296295 -0.933467 
2408 2 -83.9194 122.172 -1182.02 0.689402 -0.147142 -0.205457 -0.678867 
2409 2 -85.3818 126.583 -1173.2 0.959468 -0.280652 0.0211923 0.0143357 
2410 2 -85.057 131.494 -1164.67 0.645185 -0.0722118 0.20662 0.732004 
2411 2 -83.7048 135.575 -1155.73 -0.169611 0.211393 0.0689864 0.960097 
2412 2 -79.9666 138.046 -1146.91 -0.791001 0.297913 -0.192961 0.498329 
2413 2 -74.4277 141.133 -1139.21 -0.861661 -0.0699505 -0.32702 -0.381714 
2437 2 -66.6125 169.434 -1132.39 0.659989 0.0481752 -0.686333 0.301729 
2389 2 -96.194 101.851 -1135.06 0.186846 -0.492854 0.238605 -0.815629 
2390 2 -87.3316 99.4789 -1131.29 0.774267 -0.138915 0.515974 -0.339092 
2438 2 -75.345 164.722 -1132.25 0.200427 -0.534478 -0.472644 0.671394 
2439 2 -84.318 160.686 -1132.15 -0.394175 -0.6767 0.0866302 0.61579 
2414 2 -68.3325 141.8 -1131.37 -0.399701 -0.31042 -0.00835488 -0.862444 
2436 2 -58.4767 173.366 -1136.39 0.779246 0.384541 -0.382126 -0.314458 
2404 2 -61.1637 101.373 -1204.6 -0.382687 -0.317859 0.47714 0.724468 
2440 2 -93.4789 156.972 -1131.44 -0.808622 -0.291879 0.510236 0.0244084 
2441 2 -101.511 152.214 -1128 -0.566204 0.135507 0.48677 -0.651234 
2403 2 -52.6728 96.752 -1206.87 0.329722 -0.591268 0.0429536 0.734738 
2399 3 -49.0785 97.2982 -1161.93 -0.601409 0.53995 0.455102 -0.37369 
2435 2 -49.8741 176.022 -1140.57 0.230173 0.552442 0.0125006 -0.801044 
2434 2 -40.7814 178.559 -1143.5 -0.446829 0.389141 0.485573 -0.642753 
2433 2 -31.6898 179.645 -1147.33 -0.829392 -0.0551051 0.55583 -0.0112406 
2432 2 -23.1071 177.543 -1151.88 -0.513059 -0.317542 0.411677 0.682979 
2431 2 -13.6282 175.009 -1153.21 0.212785 -0.680987 -0.00789999 0.700655 
2430 2 -4.70255 170.788 -1153.68 0.626749 -0.559007 -0.444863 0.311117 
2429 2 4.01216 166.344 -1152.72 0.580191 0.0483526 -0.731634 -0.354616 
2428 2 13.0643 162.784 -1150.81 0.0899857 0.669192 -0.399825 -0.619859 
2427 2 21.923 158.758 -1148.88 -0.473761 0.719094 0.303244 -0.408041 
2506 1 -68.6174 264.739 -1135.69 0.756954 0.142175 0.295151 0.565415 
2505 2 -25.5257 268.774 -1154.6 0.13399 -0.970079 -0.104798 0.173239 
2562 2 -19.231 350.641 -1168.89 -0.0178976 0.230327 -0.590716 -0.7731 
2560 1 26.7231 355.813 -1159.71 -0.710637 0.421696 0.0354619 -0.562058 
2563 2 -22.4763 359.818 -1166.88 0.715885 -0.132542 -0.414688 -0.545871 
2564 2 -26.4456 366.177 -1160.42 0.867506 -0.477745 -0.0757041 0.116025 
2504 2 -21.5413 266.085 -1145.85 0.235929 -0.574023 -0.784104 0.00394325 
2565 2 -28.8996 374.097 -1155.01 0.516868 -0.335557 0.341201 0.70981 
2566 2 -29.4221 382.746 -1150.17 -0.220322 0.207345 0.418937 0.85613 
2503 2 -17.4463 264.227 -1136.99 0.155174 0.254573 -0.937138 -0.181345 
2561 3 11.2864 372.907 -1133.35 -0.712156 0.388892 0.040868 -0.583032 
2559 2 63.2894 371.68 -1134.49 0.252993 -0.0718244 0.95911 -0.104614 
2567 2 -28.3246 390.824 -1144.68 -0.828304 0.412174 0.0446373 0.376872 
2502 2 -12.4967 261.462 -1128.79 0.0147177 0.862619 -0.404842 -0.302943 
2558 2 58.089 373.157 -1126.21 0.110922 -0.742775 0.600961 -0.273547 
2568 2 -26.056 398.008 -1138.32 -0.799002 0.343216 -0.295975 -0.395218 
2526 2 -54.5162 400.3 -1125.11 -0.136614 0.276892 -0.888398 -0.339729 
2530 2 -58.5714 425.97 -1153.78 -0.225416 0.18743 0.911855 0.287366 
2531 2 -61.4759 432.2 -1160.95 -0.398967 0.797331 0.452453 0.0193645 
2532 2 -65.2546 438.553 -1167.54 -0.293267 0.876348 -0.258658 -0.281254 
2533 1 -95.1433 461.679 -1139.3 -0.908956 -0.333395 -0.174503 -0.179431 
2529 2 -54.6835 420.163 -1146.78 0.0773455 -0.665654 0.645791 0.36589 
2528 2 -52.801 413.13 -1140.12 0.395667 -0.914945 -0.0220232 0.0764078 
2527 2 -53.6084 406.6 -1132.67 0.169098 -0.547922 -0.752189 -0.324651 
2569 2 -23.291 405.333 -1132.17 -0.216513 -0.149809 -0.37778 -0.887672 
2570 2 -19.2139 411.21 -1125.37 0.611851 -0.364753 -0.154314 -0.684676 
2278 2 -136.734 -83.671 -1121.18 -0.0742624 -0.523751 -0.64521 0.551248 
2277 2 -132.289 -75.6343 -1117.56 0.364872 0.137493 -0.809034 0.439806 
2276 2 -126.761 -68.5404 -1113.45 0.532835 0.702333 -0.471736 -0.0167549 
2275 2 -122.451 -60.4376 -1109.78 0.351479 0.741904 0.323486 -0.470529 
2238 2 -257.645 8.43032 -996.016 0.205058 0.201654 0.957251 -0.0309512 
2239 2 -253.455 7.63901 -1004.93 0.117161 0.857606 0.433954 0.249939 
2240 2 -248.328 7.93718 -1013.36 -0.134414 0.855807 -0.4117 0.282898 
2241 2 -242.474 8.8534 -1021.23 -0.37962 0.26106 -0.882647 0.0931196 
2242 2 -235.429 9.52941 -1028.1 -0.364224 -0.563887 -0.700534 -0.242124 
2243 2 -227.748 8.52619 -1034.26 -0.0578316 -0.899231 -0.0243178 -0.432952 
2244 2 -219.927 7.31923 -1040.19 0.265427 -0.656701 0.599492 -0.372696 
2245 2 -211.798 6.82379 -1045.78 0.397453 0.0420221 0.916251 -0.0273715 
2256 2 -137.767 16.415 -1119.74 -0.129351 -0.164173 -0.937491 -0.278255 
2237 3 -205.599 9.05608 -996.537 -0.309606 0.753855 -0.572728 0.088485 
2263 1 -65.6441 26.6539 -1116.86 -0.333326 -0.682574 -0.0352332 0.649419 
2274 2 -117.987 -53.2418 -1104.64 -0.101045 0.358395 0.803009 -0.465317 
2273 2 -111.848 -47.2792 -1099.67 -0.484608 -0.393165 0.765472 -0.156938 
2272 2 -104.885 -41.5597 -1095.49 -0.374141 -0.849282 0.136325 0.346631 
2255 2 -140.838 12.5041 -1111.24 -0.26127 0.639717 -0.720937 -0.0524504 
2271 2 -97.15 -36.8184 -1091.35 0.0548465 -0.645161 -0.524173 0.553174 
2270 2 -91.0034 -30.7806 -1086.52 0.427254 0.132134 -0.84999 0.27841 
2246 2 -204.46 6.49883 -1052.45 0.306281 0.692936 0.525624 0.386977 
2264 3 -93.4863 6.00297 -1112.07 -0.402434 -0.640796 -0.0293185 0.653122 
2254 2 -144.517 8.85293 -1102.84 -0.138979 0.961761 0.0722104 0.224693 
2253 2 -150.628 7.28241 -1095.31 0.183661 0.617499 0.717518 0.264825 
2252 2 -156.943 7.34156 -1087.73 0.317092 -0.107689 0.941875 -0.0269487 
2251 2 -164.861 7.3491 -1081.81 0.274113 -0.708291 0.553235 -0.342223 
2247 2 -196.092 6.62001 -1057.65 -0.0986539 0.870969 -0.234521 0.420335 
2269 2 -83.715 -24.8406 -1083.45 0.554671 0.697888 -0.409312 -0.194309 
2268 2 -75.2403 -19.7959 -1082.19 0.128502 0.717548 0.199844 -0.654733 
2248 2 -188.144 6.8582 -1063.71 -0.448405 0.326172 -0.812516 0.179896 
2249 2 -179.716 6.15204 -1068.91 -0.402783 -0.466915 -0.753545 -0.227874 
2250 2 -171.88 5.87915 -1074.92 0.00934164 -0.893373 -0.180776 -0.411238 
2452 1 -101.088 73.1612 -1070.36 -0.280895 0.338867 0.751036 0.492151 
2267 2 -67.8183 -13.1795 -1082.49 -0.397174 0.204555 0.676744 -0.585173 
2454 2 -57.2913 87.7549 -1060.65 -0.585589 0.505916 0.551761 0.310956 
2451 2 -144.545 78.6721 -1087.92 0.631497 0.398847 -0.402314 0.529412 
2225 2 -146.071 75.4319 -996.48 0.281785 0.494356 0.402985 -0.716807 
2224 2 -143.71 84.8891 -998.09 -0.350385 -0.130161 0.603332 -0.704471 
2450 2 -143.639 87.7394 -1091.69 0.816453 0.558566 0.0338775 -0.142342 
2226 2 -150.374 66.6524 -994.685 0.737564 0.630028 -0.0701447 -0.232686 
2227 2 -154.186 57.7205 -992.732 0.622642 0.386157 -0.521163 0.437709 
2228 2 -157.311 48.5328 -990.557 0.105269 -0.181395 -0.639423 0.739698 
2231 2 -166.095 22.8956 -979.545 -0.457387 -0.180291 0.469378 -0.733469 
2230 2 -164.286 31.7419 -983.582 -0.8351 -0.531289 0.102393 -0.0992757 
2229 2 -161.29 39.634 -988.598 -0.610106 -0.450405 -0.18206 0.625908 
2266 2 -60.2038 -6.98638 -1082.77 -0.690285 -0.418105 0.585616 -0.0758172 
2223 2 -141.977 94.5516 -999.108 -0.68809 -0.606338 0.342973 -0.203113 
2232 2 -167.34 14.5331 -974.455 0.370786 0.265655 0.350471 -0.817995 
2265 2 -51.4545 -2.53359 -1082.72 -0.422165 -0.679909 0.111815 0.589065 
2442 2 -108.701 147.614 -1122.98 0.223521 0.563518 0.292529 -0.739536 
2449 2 -143.345 96.5617 -1096.17 0.400745 0.242343 0.444134 -0.763819 
2392 2 -69.7576 96.7329 -1122.59 0.0979212 0.508068 0.104886 0.84928 
2455 2 -60.8438 96.9703 -1060.56 -0.627004 0.736113 -0.126239 -0.221512 
2393 2 -60.995 97.8213 -1118.14 -0.555863 0.40685 -0.491569 0.532775 
2443 2 -115.417 140.685 -1120.72 0.700925 0.678933 -0.138793 -0.16879 
2208 2 -179.153 103.886 -1077.14 0.0772786 -0.74835 0.637088 -0.16769 
2207 2 -182.848 104.447 -1068.01 -0.0630472 -0.953052 -0.248731 -0.160779 
2206 2 -186.546 105.477 -1058.85 -0.182564 -0.418857 -0.889059 -0.0283507 
2200 2 -192.273 134.026 -1009.89 -0.378817 -0.914894 -0.139299 -0.00785283 
2205 2 -189.944 107.209 -1049.74 -0.0920798 0.473389 -0.85879 0.172927 
2444 2 -120.13 132.044 -1119.99 0.662262 0.182517 -0.569404 0.451527 
2445 2 -126.16 124.461 -1117.66 -0.00246717 -0.311784 -0.42692 0.848837 
2446 2 -131.722 117.932 -1112.68 -0.613005 -0.556185 -0.0274433 0.560473 
2447 2 -137.196 111.171 -1107.95 -0.875666 -0.364013 0.29191 -0.124464 
2448 2 -141.3 104.232 -1102.15 -0.367995 -0.0688608 0.436212 -0.818264 
2201 2 -191.286 127.269 -1017.12 -0.243289 -0.688779 0.66741 -0.14477 
2202 2 -192.767 121.667 -1025.16 -0.0248791 0.111576 0.939868 -0.321837 
2203 2 -193.932 115.569 -1032.88 0.318923 0.802841 0.490963 -0.112654 
2204 2 -193.089 109.678 -1040.75 0.0916113 0.960892 -0.219917 0.141176 
2210 3 -155.74 137.378 -1045.05 -0.872172 -0.0754853 0.0523096 0.480501 
2453 3 -100.274 105.45 -1083.66 -0.303899 0.357421 0.744012 0.475754 
2209 1 -148.223 139.503 -1079.21 -0.866722 -0.0789247 0.0729476 0.487075 
2214 2 -128.486 168.367 -1032.06 -0.50712 -0.129005 -0.115525 0.844299 
2213 2 -127.924 170.44 -1041.73 0.35757 0.0212092 -0.111699 0.92694 
2212 2 -125.941 173.276 -1051 0.947018 0.136114 -0.143104 0.25328 
2211 2 -122.244 173.981 -1060.16 0.77014 0.167614 -0.110016 -0.605546 
2468 2 -90.542 219.622 -1063.41 -0.741771 0.453029 0.423827 0.254777 
2467 2 -85.2042 211.359 -1064.69 -0.294351 -0.0743737 0.672226 0.675232 
2466 2 -80.4652 202.763 -1064.66 0.364452 -0.639881 0.354992 0.575941 
2469 2 -94.488 228.386 -1060.94 -0.668796 0.580001 -0.114264 -0.450837 
2215 2 -129.774 165.751 -1022.55 -0.896029 -0.356622 -0.13483 0.22754 
2216 2 -128.986 158.683 -1015.68 -0.734847 -0.41018 0.290968 -0.455071 
2465 2 -76.9034 193.523 -1064.85 0.730357 -0.632725 -0.2569 0.0155086 
2470 2 -98.5118 236.913 -1057.98 0.0845197 0.314109 -0.392514 -0.860305 
2471 2 -104.644 243.054 -1053.26 0.704925 -0.259062 -0.478911 -0.454545 
2486 2 -63.3685 225.412 -995.353 0.319965 0.130967 0.905223 0.247066 
2217 2 -128.693 150.152 -1010.4 -0.131394 0.0710236 0.506803 -0.849024 
2218 2 -131.294 141.535 -1006.24 0.448699 0.460231 0.325107 -0.693659 
2219 2 -134.827 132.902 -1002.83 0.773147 0.620491 -0.0639497 -0.114657 
2464 2 -75.8434 183.659 -1065.34 0.326508 -0.324008 -0.63279 -0.622887 
2199 2 -193.826 140.852 -1002.89 -0.274339 -0.402757 -0.82285 0.292304 
2463 2 -74.2949 173.834 -1065.65 -0.260547 0.310185 -0.614434 -0.677031 
2462 2 -73.4706 163.978 -1066.12 -0.681255 0.693963 -0.118875 -0.20044 
2461 2 -73.291 154.224 -1067.7 -0.531455 0.450995 0.475093 0.537071 
2198 2 -195.394 146.445 -994.923 0.0184112 0.396252 -0.870171 0.292315 
2460 2 -71.6387 144.405 -1067.56 -0.0229558 -0.0648458 0.69426 0.716429 
2220 2 -137.419 123.508 -1001.4 0.544515 0.276974 -0.579293 0.539637 
2485 2 -69.9206 222.508 -988.586 0.398192 -0.60994 0.676053 -0.111212 
2484 2 -77.7615 220.804 -982.804 0.0917844 -0.888004 -0.0253321 -0.449871 
2459 2 -69.8639 134.667 -1067.21 0.467477 -0.594989 0.425464 0.496421 
2456 2 -61.9417 106.758 -1061.47 -0.165043 0.419322 -0.647657 -0.614386 
2458 2 -66.2824 125.734 -1064.87 0.596805 -0.761301 -0.248887 0.0479547 
2415 2 -63.6501 139.638 -1123.02 0.452212 -0.176594 0.123817 -0.865441 
2457 2 -64.0536 116.281 -1063.21 0.386005 -0.328098 -0.679986 -0.530067 
2221 2 -140.393 114.264 -999.876 -0.170681 -0.167475 -0.647618 0.723471 
2222 2 -140.464 104.338 -999.605 -0.611269 -0.631415 -0.268587 0.394369 
2197 2 -197.233 152.134 -986.977 0.255734 0.924594 -0.242775 0.144173 
2483 2 -85.1812 218.564 -976.667 -0.271441 -0.489627 -0.768113 -0.310785 
2196 2 -198.478 156.965 -978.35 0.234837 0.746169 0.611137 -0.120811 
2487 2 -57.2906 229.042 -1002.27 0.014782 0.865256 0.348034 0.360535 
2416 2 -59.7269 139.218 -1113.88 0.98634 -0.127821 0.103825 -0.00382515 
2480 3 -102.831 245.654 -1005.83 -0.272841 -0.821177 -0.472155 -0.168212 
2417 2 -57.887 141.32 -1104.38 0.69946 0.01917 0.104299 0.70676 
2397 2 -22.5854 102.499 -1117.5 0.694958 -0.20275 0.686722 -0.0658704 
2396 2 -32.136 99.9999 -1117.13 0.447846 -0.640431 0.335102 -0.526297 
2395 2 -41.3972 97.0193 -1115.87 -0.164904 -0.623934 -0.411626 -0.643488 
2394 2 -51.2934 97.3017 -1116.5 -0.721849 -0.160564 -0.656528 -0.148744 
2488 2 -51.1008 231.79 -1009.52 -0.259117 0.805634 -0.497754 0.189875 
2489 2 -45.906 234.603 -1017.48 -0.27348 0.16543 -0.941089 -0.110426 
2418 2 -55.6905 142.185 -1094.7 -0.116854 0.251554 -0.0902418 0.956516 
2424 2 -7.83164 144.086 -1063.2 0.709415 0.276927 0.465233 0.451221 
2426 3 -15.8082 153.159 -1113.77 0.521273 -0.44611 -0.695932 0.211988 
2419 2 -50.6427 141.269 -1086.34 -0.748454 0.17877 -0.419412 0.481614 
2420 2 -42.8576 140.301 -1080.38 -0.821827 -0.171097 -0.41413 -0.351884 
2421 2 -34.6039 139.972 -1074.86 -0.242345 -0.483527 -0.20963 -0.814571 
2422 2 -25.8114 141.217 -1070.42 0.348652 -0.593109 0.131896 -0.713629 
2423 2 -16.7693 143.807 -1067.53 0.80423 -0.152588 0.529005 -0.223797 
2425 1 17.2217 150.995 -1102.57 0.507143 -0.442518 -0.701955 0.232902 
2490 2 -41.0482 237.669 -1025.68 -0.14624 -0.629414 -0.725145 -0.237944 
2491 2 -35.9698 239.597 -1033.98 0.0889141 -0.926613 0.0768628 -0.357177 
2492 2 -29.4563 241.069 -1041.23 0.350835 -0.622874 0.692136 -0.0994563 
2493 2 -23.2357 244.127 -1048.33 0.278532 0.254218 0.918326 0.120292 
2494 2 -17.5069 244.856 -1056.35 0.0235642 0.909366 0.226081 0.348403 
2495 2 -11.2181 245.937 -1063.96 -0.211381 0.781096 -0.585469 0.0493208 
2496 2 -8.31384 248.224 -1073.23 -0.101122 0.144681 -0.968617 -0.174994 
2472 2 -109.566 250.73 -1049.53 0.781766 -0.539398 -0.0903224 0.299556 
2473 2 -114.158 258.823 -1046.11 0.165936 -0.374815 0.362332 0.837075 
2508 2 -99.4005 268.53 -1100.15 0.902239 -0.121156 0.40379 0.0907711 
2509 2 -92.4907 271.188 -1093.53 0.517818 0.179879 0.327904 0.769407 
2474 2 -119.181 265.902 -1041.32 -0.59635 -0.0216607 0.47533 0.646498 
2479 1 -122.653 254.63 -978.413 -0.309924 -0.805628 -0.478354 -0.161521 
2510 2 -86.2601 274.045 -1086.38 -0.285737 0.392042 0.15971 0.859738 
2511 2 -80.3943 279.004 -1080.15 -0.840419 0.40957 -0.265457 0.235544 
2475 2 -124.893 271.977 -1035.99 -0.931651 0.300216 0.203152 -0.0250153 
2476 2 -128.763 277.068 -1028.46 -0.565363 0.334638 0.0384914 -0.752928 
2477 2 -133.777 279.952 -1020.48 0.202214 0.107804 -0.261819 -0.937517 
2478 2 -137.12 284.221 -1012.26 0.907906 -0.179051 -0.230066 -0.301192 
2513 2 -68.2665 292.516 -1072.72 0.0232528 -0.370382 -0.52942 -0.762883 
2512 2 -73.9144 284.715 -1075.24 -0.606043 0.156123 -0.582874 -0.518262 
2514 2 -62.9984 300.634 -1070.48 0.665301 -0.671142 -0.139356 -0.295842 
2515 2 -60.6588 310.312 -1070.37 0.605038 -0.516922 0.527301 0.297783 
2516 2 -57.7873 319.772 -1071.04 0.0908848 0.0772886 0.773873 0.622003 
2517 2 -55.4609 329.136 -1073.2 -0.468937 0.62972 0.492811 0.375085 
2518 2 -55.0893 338.57 -1076.32 -0.479632 0.843746 -0.221233 -0.0954063 
2497 2 -7.13005 251.625 -1082.47 -0.0526539 -0.609176 -0.776026 -0.154648 
2521 2 -53.6391 362.432 -1093.7 0.468465 -0.877135 -0.0979322 -0.0397902 
2522 2 -54.0108 370.805 -1099.07 0.342653 -0.662364 0.610419 0.266928 
2525 2 -52.6656 393.88 -1117.73 -0.298938 0.8806 -0.295575 -0.218667 
2524 2 -52.9526 386.703 -1110.89 -0.345823 0.819433 0.414576 0.192515 
2523 2 -53.1027 378.613 -1105.19 -0.0636011 0.113256 0.872278 0.471443 
2520 2 -54.1328 354.247 -1088.1 0.21624 -0.474929 -0.748836 -0.408568 
2519 2 -54.8029 346.991 -1081.53 -0.159998 0.349965 -0.829778 -0.40422 
2498 2 -4.68405 254.06 -1091.78 0.152825 -0.986926 0.0440115 -0.0261572 
2499 2 -4.19435 257.126 -1101.14 0.033836 -0.596901 0.796843 0.0872061 
2500 2 -4.76166 259.161 -1110.86 -0.143543 0.175175 0.973187 0.0402075 
2507 3 -48.1124 269.488 -1107.79 0.757659 0.123386 0.263549 0.584184 
2501 2 -7.39665 260.225 -1120.39 -0.192534 0.864276 0.43999 -0.149555 
2557 2 52.3387 373.09 -1118.14 -0.057722 -0.941337 -0.157948 -0.292585 
2556 2 46.7304 374.961 -1110.21 -0.291511 -0.542124 -0.780637 -0.108301 
2555 2 41.0288 376.106 -1102.32 -0.252025 0.284119 -0.908823 0.172628 
2554 2 34.0759 377.438 -1095.34 -0.0579996 0.880111 -0.33674 0.329616 
2589 2 -5.62679 362.288 -1023 0.225276 0.529956 0.556706 0.598729 
2590 2 3.06437 366.829 -1024.33 -0.348662 0.703729 -0.135827 0.603947 
2553 2 25.8384 381.146 -1091.1 0.448525 0.72238 0.415117 0.323528 
2552 2 17.097 384.992 -1088.69 0.633458 0.110878 0.751166 -0.148954 
2591 2 12.4262 370.052 -1025.08 -0.737417 0.368077 -0.554001 0.117551 
2592 2 21.4674 374.151 -1024.17 -0.375672 -0.164331 -0.736001 -0.538672 
2593 2 28.8568 380.71 -1025.08 0.219588 -0.670112 -0.374478 -0.602078 
2551 2 8.72465 389.764 -1086.81 0.181197 -0.516758 0.58158 -0.601576 
2550 2 1.1868 395.562 -1084.21 -0.388524 -0.794276 -0.0249399 -0.466426 
2594 2 35.1139 388.046 -1027.5 0.514612 -0.764719 0.350727 -0.165439 
2549 2 -7.05706 400.051 -1081.08 -0.596358 -0.406579 -0.691599 -0.0272405 
2587 1 -24.7578 398.019 -998.814 0.193976 -0.834115 -0.209379 -0.472003 
2595 2 41.4054 394.384 -1031.69 0.465783 -0.178319 0.792818 0.350268 
2541 2 -71.6552 442.426 -1071.17 -0.285738 0.371941 -0.552768 0.688811 
2540 2 -78.2447 449.173 -1074.1 0.465666 0.576343 -0.0782922 0.666974 
2539 2 -86.8501 453.643 -1075.9 0.782019 0.340675 0.514968 0.0848203 
2538 2 -93.9279 458.508 -1080.71 0.607891 -0.101972 0.490598 -0.615941 
2534 3 -78.7911 439.702 -1117.51 -0.868094 -0.401786 -0.178021 -0.230845 
2537 2 -101.539 462.379 -1085.78 -0.0910502 -0.447248 0.177504 -0.871878 
2535 2 -114.272 471.954 -1097.42 -0.84375 -0.145459 -0.397779 0.329697 
2536 2 -108.662 466.689 -1091.07 -0.741985 -0.446166 -0.223011 -0.447951 
2542 2 -63.6186 436.878 -1070.28 -0.759135 -0.228019 -0.596257 0.127276 
2596 2 47.1597 401.453 -1035.73 0.125788 0.475297 0.609377 0.622037 
2543 2 -55.2775 431.692 -1068.6 -0.495484 -0.697284 -0.145504 -0.497111 
2548 2 -15.1241 404.614 -1077.44 -0.372759 0.266849 -0.768361 0.446614 
2547 2 -23.6719 408.829 -1074.81 0.133023 0.767313 -0.210291 0.591027 
2546 2 -31.5955 414.494 -1072.98 0.619763 0.603687 0.466573 0.183754 
2544 2 -46.8236 426.558 -1069.27 0.0658108 -0.569718 0.521727 -0.631578 
2545 2 -39.1771 420.538 -1071.33 0.515316 0.0727749 0.768431 -0.37238 
2597 2 54.2596 407.974 -1037.75 -0.497386 0.799248 0.0827387 0.327054 
2588 3 1.59144 413.38 -1016.14 0.14524 -0.832833 -0.247978 -0.473076 
2598 2 58.4849 416.486 -1040.69 -0.617079 0.485343 -0.614839 -0.0750282 
2599 2 65.2969 423.142 -1043.23 -0.338306 -0.110888 -0.795642 -0.490109 
2600 2 71.3143 430.177 -1046.54 0.197146 -0.63203 -0.469807 -0.583912 
2571 2 -15.9674 417.514 -1118.39 0.892298 -0.411367 0.18294 -0.0333867 
2572 2 -12.7968 424.672 -1112.25 0.609331 -0.00514183 0.319237 0.725794 
2573 2 -8.88828 428.918 -1104.23 -0.226655 0.122039 0.115003 0.959431 
2574 2 -6.81428 432.125 -1095.04 -0.910823 0.161312 -0.0130461 0.379749 
2575 2 -5.68144 435.787 -1085.92 -0.882833 0.141725 -0.11169 -0.433643 
2576 2 -4.47334 438.935 -1076.59 -0.191501 0.0364287 -0.212197 -0.957587 
2577 2 -3.70222 443.078 -1067.59 0.678391 -0.0750027 -0.172968 -0.7101 
2578 2 -4.93534 446.389 -1058.38 0.965908 -0.131639 -0.17304 0.140538 
2579 2 -8.48352 448.842 -1049.45 0.50204 -0.238197 -0.0732456 0.828162 
2580 2 -12.7417 451.106 -1040.8 -0.33067 0.0323744 0.0975892 0.938129 
2581 2 -13.2919 453.309 -1031.18 -0.932699 -0.0414007 0.165476 0.317768 
2582 2 -17.1211 453.88 -1022.02 -0.834594 -0.0177647 0.100208 -0.541383 
2583 2 -19.0938 453.007 -1012.39 -0.0630883 0.0829709 0.179958 -0.978136 
2584 2 -20.9649 449.878 -1003.27 0.719209 0.228493 -0.0942488 -0.649343 
2585 2 -25.4035 447.525 -994.716 0.937113 0.183483 -0.216683 0.202983 
2586 2 -28.5753 443.356 -986.387 0.362339 -0.0653409 -0.279864 0.886633 
2601 2 76.9153 437.98 -1049.15 0.498643 -0.803719 0.266424 -0.185498 
2602 2 82.3273 445.08 -1053.39 0.549158 -0.27805 0.721555 0.316974 
2603 2 88.8512 452.16 -1055.65 0.157141 0.400096 0.613561 0.662399 
2604 2 95.7414 459.202 -1056.77 -0.441164 0.796951 0.0652695 0.40741 
2616 2 106.612 548.134 -998.851 -0.323159 -0.205237 -0.551319 0.741278 
2617 2 107.811 538.631 -996.312 -0.773506 -0.57863 -0.242178 0.0906943 
2605 2 102.182 465.927 -1060.06 -0.623197 0.46246 -0.627669 -0.0615506 
2618 2 110.297 529.361 -993.916 -0.528426 -0.619188 0.279185 -0.50934 
2606 2 109.332 472.478 -1062.04 -0.333728 -0.243556 -0.757559 -0.505381 
2607 2 117.312 477.713 -1064.43 0.125344 -0.719042 -0.401724 -0.55307 
2615 3 123.552 513.018 -1033.02 0.76269 0.636033 -0.114654 0.024914 
2608 2 124.045 484.1 -1068 0.533191 -0.764783 0.275219 -0.234667 
2609 2 130.09 491.26 -1071.27 0.545833 -0.360186 0.698909 0.289581 
2610 2 135.638 499.07 -1073.49 0.179993 0.233487 0.725932 0.621376 
2611 2 141.141 507.267 -1074.59 -0.384167 0.654782 0.28267 0.586322 