ITEM: TIMESTEP
10000000
ITEM: NUMBER OF ATOMS
4067
ITEM: BOX BOUNDS pp pp pp
-4.6310929470000001e+03 4.6704658980000004e+03
-4.6310929470000001e+03 4.6704658980000004e+03
-4.6310929470000001e+03 4.6704658980000004e+03
ITEM: ATOMS id type x y z c_q[1] c_q[2] c_q[3] c_q[4] 
2478 2 28.1651 430.421 -678.705 -0.2064 -0.877257 -0.198832 -0.385078 
2479 1 29.7753 472.233 -700.519 0.958426 -0.0232793 -0.281287 -0.0418935 
2481 2 18.038 517.619 -705.65 0.88313 -0.0948364 -0.126837 0.441588 
2482 2 15.0354 517.883 -696.221 0.233517 -0.186773 0.0632475 0.952148 
2483 2 11.884 520.356 -687.129 -0.558694 -0.0824902 0.139753 0.813342 
2477 2 20.858 432.066 -672.367 -0.431611 -0.353164 -0.825498 -0.0868393 
2484 2 9.62881 521.892 -677.678 -0.99586 -0.021485 0.0845562 -0.0255097 
2480 3 10.304 478.838 -672.175 0.954582 -0.058265 -0.283789 -0.0695939 
2476 2 12.5958 434.208 -667.325 -0.38747 0.373925 -0.766902 0.349153 
2485 2 7.88604 522.341 -667.945 -0.552416 0.0639521 0.145127 -0.818343 
2508 2 113.63 456.613 -670.589 0.59694 -0.201669 0.261249 0.73126 
2451 2 -68.2169 386.434 -556.098 0.753541 0.486213 0.0493032 -0.439707 
2450 2 -64.6122 394.022 -561.311 0.0991206 0.250181 0.399484 -0.876355 
2695 1 24.1517 362.049 -531.922 0.0582478 0.057309 0.388866 0.917663 
2694 2 8.81602 396.546 -560.155 0.177685 0.734756 0.410205 -0.51019 
2449 2 -59.8399 401.188 -566.253 -0.641397 -0.122242 0.505431 -0.564098 
2452 1 -104.974 410.927 -539.562 0.286859 -0.499074 0.797686 0.179817 
2458 2 -123.205 464.285 -573.491 0.299665 -0.536646 0.78359 -0.0905452 
2457 2 -127.717 460.18 -565.741 0.214546 -0.940076 -0.0429861 -0.261494 
2418 2 -133.036 523.33 -551.296 -0.265426 0.684011 -0.45449 -0.505091 
2459 2 -117.416 466.235 -581.304 0.308657 0.277753 0.903751 0.104007 
2460 2 -111.867 467.138 -589.366 0.132241 0.886738 0.389422 0.211087 
2461 2 -107.236 466.414 -598.073 -0.126816 0.857607 -0.438814 0.236368 
2462 2 -101.496 466.7 -606.101 -0.3668 0.138821 -0.916281 0.0813356 
2463 2 -94.4132 466.984 -613.137 -0.438417 -0.615333 -0.627757 -0.18729 
2456 2 -131.352 456.638 -557.113 -0.0524552 -0.624241 -0.735158 -0.259062 
2453 3 -93.8801 430.37 -566.448 0.263617 -0.480618 0.814329 0.190736 
2455 2 -132.736 452.219 -548.315 -0.135366 0.1452 -0.950319 -0.239764 
2454 2 -135.157 447.232 -540.06 -0.284073 0.832403 -0.475787 -0.00592746 
2417 2 -129.825 515.288 -546.741 -0.497751 0.81154 0.305953 -0.00630081 
2416 2 -124.736 507.793 -543.008 -0.417279 0.181156 0.822886 0.340469 
2419 2 -137.11 531.612 -554.916 0.135197 0.0811933 -0.795638 -0.584885 
2420 2 -140.182 540.783 -557.213 0.540676 -0.62305 -0.404073 -0.395226 
2415 2 -117.663 501.895 -539.421 0.0294484 -0.627889 0.511656 0.585744 
2414 2 -111.348 495.167 -535.843 0.493404 -0.794356 -0.240065 0.260613 
2413 2 -103.605 489.344 -533.886 0.591438 -0.234255 -0.734201 -0.237223 
2412 2 -97.2324 482.455 -530.88 0.175788 0.370914 -0.725355 -0.552613 
2464 2 -86.7603 463.75 -618.563 -0.091691 -0.896088 0.0241243 -0.433632 
2411 2 -91.7069 474.464 -528.789 -0.398395 0.743736 -0.225897 -0.486939 
2421 2 -140.401 550.6 -558.14 0.772428 -0.498188 0.150212 0.364143 
2465 2 -78.8282 462.081 -624.318 0.240869 -0.691897 0.62825 -0.261844 
2426 3 -104.736 549.94 -529.232 0.407993 0.701546 0.540327 -0.22231 
2436 2 -71.5634 509.428 -554.899 0.247828 0.38789 0.836444 -0.297461 
2437 2 -69.9407 502.429 -561.689 0.362081 0.873359 0.315044 -0.0830013 
2466 2 -71.9373 461.939 -631.338 0.397637 0.101514 0.9101 -0.0574331 
2435 2 -70.6892 514.634 -546.532 -0.169292 -0.43949 0.855236 -0.21624 
2434 2 -69.9835 519.234 -537.852 -0.251216 -0.957621 0.140875 -0.00242971 
2433 2 -68.1566 523.446 -529.039 -0.0715936 -0.67838 -0.690532 0.240502 
2432 2 -67.0169 528.538 -520.62 0.0866097 0.0396771 -0.957089 0.273689 
2410 2 -87.2663 467.544 -523.251 -0.467298 0.712602 0.522761 0.0234909 
2438 2 -68.8669 495.749 -568.945 0.364956 0.836475 -0.28367 0.294359 
2439 2 -66.2945 488.436 -575.043 -0.0213949 0.262685 -0.849446 0.457143 
2440 2 -62.9942 480.656 -580.209 -0.446656 -0.445535 -0.672039 0.387764 
2467 2 -64.9959 461.066 -638.357 0.33965 0.725733 0.500777 0.327369 
2441 2 -59.7982 471.934 -583.611 -0.668903 -0.714501 -0.138193 -0.151527 
2409 2 -83.4528 460.15 -517.925 -0.199702 0.016743 0.877044 0.436614 
2468 2 -56.9439 459.757 -643.942 -0.0426885 0.786857 -0.370865 0.491419 
2442 2 -55.9663 462.862 -584.475 -0.405224 -0.601485 0.49191 -0.481698 
2475 2 3.79202 436.836 -663.441 0.0184014 0.791328 -0.212684 0.572911 
2443 2 -53.1168 453.651 -586.556 0.115384 -0.0518645 0.679604 -0.722589 
2474 2 -4.51883 439.782 -659.048 0.463189 0.639441 0.551962 0.268157 
2473 2 -13.7982 441.996 -656.22 0.590106 -0.0138223 0.791228 -0.159819 
2472 2 -22.8919 445.55 -654.636 0.203607 -0.596122 0.475509 -0.614064 
2448 2 -54.9782 408.986 -569.934 -0.806705 -0.537724 0.184818 0.161005 
2486 2 5.49797 520.39 -658.498 0.26776 0.0312937 0.0935497 -0.958422 
2562 2 63.5458 516.004 -645.98 -0.69437 0.426619 0.0747848 -0.574677 
2469 2 -49.094 456.684 -649.034 -0.487296 0.219103 -0.80413 0.260597 
2447 2 -51.9682 417.088 -574.773 -0.409512 -0.374053 -0.346326 0.756599 
2446 2 -50.0375 426.194 -578.143 0.305054 0.0754647 -0.565614 0.762449 
2470 2 -39.9836 454.784 -652.492 -0.631028 -0.410255 -0.649171 -0.109865 
2444 2 -51.0416 444.055 -586.141 0.689758 0.457659 0.367382 -0.424043 
2445 2 -49.5844 434.888 -582.835 0.821508 0.474426 -0.159589 0.273086 
2693 2 15.0261 403.319 -556.277 -0.286224 0.159857 0.827138 -0.456469 
2563 2 57.5543 521.087 -639.9 0.0161583 0.35385 -0.187315 -0.916211 
2692 2 22.4543 409.35 -553.95 -0.599538 -0.498612 0.624904 -0.0378918 
2691 2 28.0357 416.182 -549.424 -0.39317 -0.859638 -0.00769446 0.326159 
2471 2 -31.0777 451.105 -654.695 -0.394343 -0.705985 -0.0206431 -0.587922 
2564 2 50.8902 524.411 -633.317 0.665343 0.131303 -0.450615 -0.580538 
2487 2 5.43478 518.403 -648.768 0.926328 0.107048 0.160943 -0.32335 
2488 2 7.73568 515.468 -639.6 0.742464 0.297086 -0.0220916 0.599999 
2565 2 43.6028 527.839 -627.632 0.838663 -0.330422 -0.409092 0.141809 
2489 2 11.1793 510.648 -631.685 -0.0279175 0.234511 -0.321283 0.917062 
2490 2 15.1207 504.746 -624.945 -0.679758 -0.134164 -0.411132 0.592368 
2491 2 19.6565 498.029 -619.278 -0.822098 -0.414214 -0.3602 -0.151121 
2492 2 26.0945 491.631 -615.238 -0.445627 -0.428019 0.0900186 -0.781097 
2493 2 32.356 486.421 -609.544 0.15191 -0.292082 0.518143 -0.789392 
2494 2 38.2736 479.162 -606.525 0.732881 0.136264 0.524936 -0.410805 
2495 2 44.8081 472.889 -602.436 0.726463 0.554835 0.107412 0.390988 
2616 2 35.0173 513.943 -571.036 -0.796451 0.274678 -0.137869 -0.520779 
2500 2 72.8556 434.835 -588.55 0.270537 -0.206171 0.686028 -0.643171 
2496 2 50.8747 465.819 -599.058 0.105283 0.408583 -0.455951 0.783635 
2499 2 66.76 442.043 -591.398 -0.425354 -0.554187 0.173813 -0.694075 
2498 2 62.0837 450.508 -593.311 -0.754205 -0.588536 -0.283689 -0.0657382 
2497 2 56.6975 458.326 -596.235 -0.531098 -0.126622 -0.592128 0.592693 
2519 2 77.7903 499.305 -590.325 -0.0120787 0.267651 0.0562124 -0.961799 
2520 2 72.8049 498.351 -581.775 0.758078 0.214248 -0.15552 -0.596011 
2521 2 68.3436 497.1 -573.069 0.961126 0.00084298 -0.230197 0.152467 
2522 2 64.3182 496.359 -564.117 0.496653 -0.1209 -0.132431 0.849224 
2523 2 61.0919 495.399 -554.846 -0.315637 -0.190767 0.000270078 0.929506 
2524 2 57.1584 494.267 -545.849 -0.913456 -0.12943 0.106836 0.370718 
2525 2 53.7859 492.952 -536.574 -0.799947 0.0492566 0.314345 -0.508769 
2614 1 15.5227 476.236 -550.487 0.831023 -0.329114 -0.269061 -0.358736 
2615 3 8.42104 502.119 -528.04 0.823135 -0.351671 -0.281036 -0.346114 
2617 2 33.7108 519.561 -563.065 -0.0595952 0.0922493 -0.374879 -0.920546 
2618 2 32.761 526.701 -556.236 0.739615 -0.278168 -0.164343 -0.59041 
2501 2 78.7859 426.906 -588.54 0.678919 0.307493 0.640955 -0.183559 
2690 2 34.1639 422.033 -544.308 0.113701 -0.505778 -0.712905 0.472258 
2518 2 81.4924 499.901 -599.58 -0.737502 0.0985677 0.155758 -0.649704 
2689 2 39.9592 426.681 -537.715 0.38546 0.301602 -0.864797 0.112176 
2566 2 35.7016 532.496 -623.978 0.508329 -0.553928 0.139953 0.644343 
2567 2 29.629 539.468 -620.308 -0.19206 -0.11787 0.423763 0.877294 
2568 2 26.4641 546.827 -614.503 -0.778635 0.425611 0.272597 0.371852 
2688 2 44.365 429.512 -529.302 0.233582 0.912432 -0.28792 -0.173231 
2619 2 33.5917 533.352 -548.918 0.917462 -0.210625 -0.0378268 0.335365 
2620 2 31.9373 536.956 -539.847 0.415816 -0.0988222 0.0532497 0.902494 
2621 2 30.8956 539.151 -530.273 -0.416119 0.0161795 0.0336874 0.908542 
2526 2 48.165 490.361 -528.85 -0.19415 0.327594 0.190636 -0.904791 
2527 2 41.4977 488.613 -521.755 0.629872 0.265535 -0.189704 -0.704816 
2622 2 30.7309 539.992 -520.475 -0.962636 -0.0467615 0.0970864 0.248436 
2613 2 -8.82312 454.498 -516.391 0.641148 0.552518 0.531478 0.0344194 
2502 2 86.3147 420.471 -589.117 0.557832 0.687753 0.159674 0.436261 
2612 2 -16.0075 461.279 -514.937 0.348581 -0.195459 0.737983 -0.543753 
2543 2 75.7579 547.441 -528.111 0.0724692 -0.964695 0.0949557 0.234723 
2517 2 86.0773 501.474 -608.221 -0.958605 -0.117151 0.224705 0.129845 
2542 2 80.8398 547.549 -519.541 0.151772 -0.665673 -0.710051 0.172259 
2544 2 71.3089 548.932 -536.843 -0.134834 -0.49932 0.829102 0.212344 
2603 2 -39.8506 543.271 -517.93 -0.791922 -0.604123 -0.0845962 0.0271638 
2687 2 46.5081 430.295 -519.61 -0.0234187 0.848277 0.512458 -0.131393 
2604 2 -38.2048 533.813 -515.686 -0.384903 -0.42291 0.430107 -0.698574 
2516 2 90.2715 500.571 -617.133 -0.394294 -0.181726 0.106339 0.894539 
2545 2 66.6659 550.731 -545.37 -0.225847 0.33798 0.902441 0.1427 
2602 2 -40.7122 552.384 -521.513 -0.398392 -0.256137 -0.493178 0.729694 
2503 2 94.2565 414.582 -588.906 -0.0956138 0.680287 -0.292067 0.665406 
2515 2 95.8308 497.345 -624.634 0.494688 -0.337939 -0.0274706 0.800204 
2509 2 114.078 463.208 -663.211 -0.104186 0.240288 0.42908 0.864463 
2514 2 102.499 493.916 -631.176 0.903772 -0.246174 -0.315918 0.150965 
2513 2 108.765 489.59 -637.475 0.705748 0.0481578 -0.401552 -0.581684 
2507 3 99.8844 449.612 -620.997 -0.851294 0.377538 0.362049 0.0410462 
2510 2 117.26 470.864 -657.866 -0.810231 0.352667 0.189419 0.428103 
2512 2 113.659 483.991 -643.974 -0.0115839 0.246769 -0.31268 -0.917171 
2504 2 103.584 411.468 -590.415 -0.499331 0.217191 -0.746199 0.382993 
2505 2 112.654 408.169 -592.561 -0.603553 -0.462865 -0.62957 -0.158498 
2506 1 119.369 424.87 -636.192 -0.878525 0.364515 0.306945 0.0332769 
2511 2 116.977 478.258 -651.303 -0.784214 0.342884 0.00962402 -0.517055 
2422 2 -142.023 559.4 -553.966 0.290426 -0.267892 0.442039 0.805288 
2423 2 -144.179 567.827 -549.311 -0.421081 0.140443 0.523032 0.727602 
2589 2 -102.72 647.069 -562.847 -0.736877 -0.37964 -0.543822 -0.130934 
2590 2 -93.8818 642.906 -561.328 -0.428033 -0.571869 -0.00586658 -0.699799 
2591 2 -85.5758 638.451 -558.109 0.237489 -0.274732 0.414739 -0.834334 
2592 2 -78.8936 632.997 -553.281 0.852342 0.105624 0.441913 -0.258979 
2424 2 -146.708 576.322 -544.911 -0.848259 0.485943 0.183559 0.103067 
2593 2 -72.1609 628.534 -547.522 0.748735 0.516173 0.0723181 0.409551 
2587 1 -79.4928 683.2 -582.401 -0.52148 -0.6654 -0.0120821 -0.533999 
2594 2 -66.5207 621.76 -543.057 0.0580508 0.428156 -0.529946 0.729705 
2595 2 -60.4896 613.989 -541.959 -0.581217 -0.121345 -0.590417 0.54669 
2569 2 25.6152 555.516 -609.72 -0.72787 0.447443 -0.174411 -0.48947 
2588 3 -54.3527 659.462 -577.056 -0.520215 -0.656369 0.0105447 -0.546302 
2596 2 -54.9136 606.373 -538.998 -0.778197 -0.573463 -0.256006 -0.00320739 
2560 1 82.3239 557.041 -659.86 0.287958 -0.285307 0.0509807 0.912733 
2597 2 -51.2673 597.496 -536.596 -0.534985 -0.571403 0.354655 -0.511379 
2546 2 63.7997 554.582 -554.052 -0.301808 0.893597 0.330042 0.038313 
2570 2 24.2873 563.916 -604.598 0.0281143 0.197185 -0.4524 -0.869288 
2571 2 20.7596 571.902 -600.059 0.626619 -0.286468 -0.565889 -0.45283 
2572 2 16.4465 580.833 -598.644 0.67956 -0.69842 -0.0860894 0.207356 
2561 3 65.6864 565.468 -630.315 0.288202 -0.305348 0.0204014 0.907351 
2547 2 62.3653 560.002 -562.21 -0.380128 0.773639 -0.490998 -0.126121 
2548 2 63.967 567.032 -569.018 -0.0633822 0.170004 -0.884454 -0.429909 
2549 2 64.0968 574.331 -575.662 0.203754 -0.640518 -0.665779 -0.323973 
2558 2 87.1379 602.133 -647.133 0.0793267 -0.0325738 0.993105 0.0799352 
2557 2 85.11 604.464 -637.744 -0.0283461 -0.76713 0.621112 -0.157884 
2573 2 13.0505 590.193 -598.785 0.264695 -0.420056 0.530724 0.686893 
2556 2 80.2152 607.134 -629.441 -0.22626 -0.88935 -0.360207 -0.167671 
2555 2 76.0781 607.536 -620.457 -0.20866 -0.281042 -0.935099 -0.0553712 
2554 2 72.0563 605.307 -611.614 -0.253789 0.584288 -0.769768 0.0406878 
2553 2 68.7933 601.753 -602.961 -0.173217 0.973504 0.0394665 0.143971 
2585 2 -34.9305 696.409 -602.467 0.749845 -0.349664 -0.506464 -0.24282 
2552 2 66.1059 596.184 -595.243 -0.0277893 0.520776 0.800192 0.296165 
2574 2 9.45108 599.414 -598.223 -0.476835 0.111743 0.634633 0.597816 
2576 2 0.727449 616.675 -594.365 -0.367101 0.630759 -0.414531 -0.543639 
2575 2 4.86835 608.01 -596.561 -0.782404 0.563135 0.264291 -0.0295516 
2577 2 -2.70393 625.874 -595.872 0.161205 0.0454525 -0.747609 -0.642672 
2578 2 -5.222 635.359 -597.289 0.648018 -0.533234 -0.453296 -0.300429 
2579 2 -7.9633 644.954 -596.881 0.579374 -0.72113 0.06339 0.374538 
2580 2 -12.3835 653.724 -597.394 0.106917 -0.443834 0.647638 0.610037 
2581 2 -16.5956 662.415 -599.732 -0.421681 0.255392 0.737163 0.462116 
2582 2 -20.0843 671.388 -601.896 -0.640788 0.691994 0.309742 -0.120809 
2583 2 -25.3447 679.483 -603.796 -0.389745 0.658271 -0.295798 -0.572086 
2584 2 -30.3381 687.952 -604.582 0.205482 0.175376 -0.639011 -0.720198 
2551 2 65.6825 588.421 -589.091 0.255089 -0.437251 0.7523 0.421646 
2550 2 66.0674 580.756 -582.884 0.40575 -0.911911 0.0401421 0.046628 
2598 2 -49.128 587.845 -535.823 0.0854634 -0.0878975 0.61433 -0.779467 
2599 2 -47.528 578.38 -533.399 0.728972 0.325237 0.394082 -0.455544 
2600 2 -45.0537 570.021 -528.86 0.792587 0.535067 0.003938 0.292393 
2601 2 -42.1518 561.678 -524.586 0.302843 0.261971 -0.525039 0.750994 
2559 2 88.6844 603.683 -656.752 -0.0301014 0.794141 0.599434 0.095461 
2586 2 -41.0054 703.952 -600.093 0.632282 -0.626069 -0.0456408 0.454064 
49 1 438.696 -1187.32 -384.217 -0.361436 -0.232276 -0.37708 -0.820502 
48 2 456.252 -1149.29 -405.821 0.415463 0.317763 -0.852279 -0.00611905 
47 2 463.107 -1146.73 -399.088 0.251693 0.868567 -0.271665 -0.329302 
43 2 490.813 -1140.78 -372.16 0.0807643 -0.939166 -0.131203 0.306968 
46 2 470.537 -1143.63 -393.278 -0.0916402 0.7642 0.42075 -0.480177 
44 2 484.463 -1140.17 -379.794 -0.290026 -0.681591 0.632356 0.226814 
45 2 477.816 -1141.6 -386.98 -0.405985 0.106776 0.891851 -0.168453 
42 2 497.966 -1140.31 -365.352 0.272675 -0.46695 -0.799779 0.260689 
2211 2 -224.926 252.718 -376.007 0.338673 -0.32434 0.402202 0.786344 
2289 2 -330.68 375.171 -398.54 0.26743 0.0766904 -0.951206 -0.133444 
2288 2 -325.017 372.849 -390.765 0.128132 0.745684 -0.574427 -0.312363 
2287 2 -317.931 371.537 -384.059 -0.239426 0.858506 0.301332 -0.338882 
2212 2 -228.276 260.764 -371.492 -0.349943 0.00241633 0.524924 0.77588 
2286 2 -309.723 368.546 -379.279 -0.524233 0.261218 0.810507 -0.00489387 
2301 2 -231.179 392.383 -378.979 -0.829311 -0.528281 -0.122286 -0.134938 
2285 2 -300.86 365.695 -375.853 -0.373873 -0.417709 0.713366 0.420532 
2302 2 -227.344 384.108 -375.295 -0.323178 -0.493999 0.226076 -0.774862 
2303 2 -221.404 377.287 -371.218 0.366582 -0.132033 0.49049 -0.77949 
2284 2 -292.247 361.938 -372.656 0.0876766 -0.792817 0.179101 0.575914 
2213 2 -231.728 268.611 -366.657 -0.873018 0.285953 0.34595 0.190758 
2283 2 -284.116 358.24 -368.387 0.422622 -0.758217 -0.416892 0.269627 
2304 2 -215.745 370.688 -366.517 0.852221 0.263637 0.415583 -0.177496 
2300 2 -236.289 400.363 -382.022 -0.608799 -0.159974 -0.583574 0.513044 
2282 2 -275.711 356.331 -363.465 0.483312 -0.0995281 -0.869669 -0.0133662 
2748 2 -106.353 271.29 -458.913 -0.558271 -0.785751 0.265602 -0.0195971 
2373 2 -188.936 387.218 -484.518 0.145415 -0.0116713 0.637687 0.756356 
2371 1 -144.923 370.334 -483.604 0.733913 -0.438756 0.287708 0.43138 
2370 2 -98.6226 373.525 -475.094 -0.0278557 -0.0352615 -0.93724 0.345777 
2369 2 -98.468 379.902 -467.502 0.251465 0.665591 -0.659175 0.243397 
2368 2 -99.7711 386.753 -460.465 0.387584 0.905 0.168989 0.0468618 
2747 2 -104.193 280.024 -454.98 -0.356312 -0.696596 -0.459842 0.419929 
2746 2 -103.337 288.897 -450.647 0.0202482 -0.0608337 -0.845677 0.52983 
2745 2 -101.813 297.16 -445.254 0.451833 0.639261 -0.563751 0.263396 
2744 2 -99.0017 305.629 -440.898 0.491108 0.825675 0.105612 -0.25675 
2743 2 -93.4526 313.205 -437.602 -0.0285376 0.46026 0.68361 -0.565706 
2742 2 -88.1918 320.082 -432.742 -0.420339 -0.239328 0.824308 -0.2942 
2741 2 -80.2921 324.091 -428.122 -0.437812 -0.754367 0.386493 0.29979 
2367 2 -100.066 392.826 -452.689 0.206093 0.449631 0.820171 -0.287534 
2749 1 -64.4648 266.81 -480.182 0.595669 -0.348422 -0.181572 -0.70058 
2740 2 -71.4245 327.945 -426.134 -0.0794352 -0.728707 -0.199094 0.650413 
2319 2 -95.1454 333.89 -369.581 0.545006 -0.0370338 -0.763217 -0.345105 
2320 2 -103.408 339.008 -371.538 0.680443 -0.570907 -0.396658 0.231784 
2321 2 -111.333 344.916 -371.313 0.35611 -0.601877 0.287438 0.654453 
2322 2 -117.637 352.408 -370.228 -0.28911 -0.253066 0.679602 0.624911 
2323 2 -124.58 359.507 -370.677 -0.656034 0.333125 0.640611 0.219692 
2739 2 -62.8012 332.709 -425.05 0.391619 -0.288977 -0.675565 0.55384 
2324 2 -131.514 366.416 -371.182 -0.585971 0.679914 0.166396 -0.408249 
2325 2 -139.124 372.747 -371.083 -0.0276724 0.480105 -0.333451 -0.810891 
2366 2 -100.529 400.871 -447.007 -0.164346 -0.282323 0.83351 -0.445584 
2374 2 -187.589 396.879 -482.768 -0.494488 0.570304 0.420882 0.503083 
2326 2 -146.31 378.542 -367.491 0.485125 -0.0459062 -0.574235 -0.657876 
2327 2 -151.268 386.521 -364.347 0.812877 -0.396677 -0.425066 -0.0346178 
2750 3 -58.3322 290.873 -455.403 0.62687 -0.343443 -0.194536 -0.671741 
2738 2 -55.5481 339.411 -424.746 0.68637 0.33301 -0.614129 0.202103 
2696 3 28.2839 390.741 -512.404 0.0582672 0.0850708 0.416329 0.903348 
2737 2 -51.1553 348.12 -422.818 0.591208 0.768438 -0.0716626 -0.234181 
2736 2 -46.0975 356.644 -422.563 0.216004 0.521751 0.47583 -0.674317 
2735 2 -42.0464 365.689 -422.994 -0.453762 -0.133813 0.67528 -0.565853 
2697 2 41.3309 345.038 -491.476 -0.699097 0.398479 -0.242783 -0.541789 
2734 2 -39.6194 375.253 -423.187 -0.706912 -0.628456 0.298768 -0.126714 
2751 2 -18.8461 277.232 -486.203 0.934739 -0.260525 0.0542784 -0.235465 
2698 2 40.7741 353.172 -485.946 -0.0629598 0.129303 -0.420174 -0.895975 
2699 2 38.8527 360.465 -479.647 0.570773 -0.411362 -0.298544 -0.644881 
2761 2 -15.6474 309.227 -394.826 -0.824887 0.0556278 0.12614 0.548229 
2754 2 -14.3399 293.275 -461.797 -0.750856 0.138096 0.14046 0.63041 
2752 2 -16.6371 281.642 -477.648 0.726339 -0.234505 0.250211 0.595679 
2753 2 -15.9813 287.597 -469.728 0.00180813 0.0889448 0.325607 0.941311 
2760 2 -14.5414 306.693 -404.341 -0.0963809 -0.0169106 0.124641 0.987365 
2759 2 -14.7654 304.461 -413.915 0.748761 -0.110407 0.114377 0.643494 
2758 2 -14.3895 304.157 -423.929 0.992426 -0.0187419 -0.0329131 -0.116856 
2757 2 -13.8989 301.428 -433.417 0.568766 -0.0594316 -0.14549 -0.807345 
2756 2 -14.7245 299.987 -443.184 -0.332093 -0.0224585 -0.116901 -0.935705 
2755 2 -14.8345 297.371 -452.783 -0.952486 0.112813 -0.0557664 -0.277368 
2700 2 40.554 368.849 -474.772 0.802283 -0.543007 0.151924 0.195969 
2762 2 -17.6812 311.291 -385.306 -0.958756 0.08093 0.092575 -0.256257 
2810 2 87.1534 365.943 -404.814 0.834356 -0.373859 -0.211057 0.345737 
2811 2 80.7798 370.429 -398.813 0.126091 -0.467133 0.0753848 0.871897 
2812 2 72.9217 372.852 -393.31 -0.615524 -0.0968347 0.41771 0.661265 
2813 2 66.2659 376.479 -386.935 -0.868083 0.319145 0.377968 -0.0414566 
2814 2 59.1601 381.482 -382.167 -0.403361 0.528096 0.169227 -0.727858 
2763 2 -20.049 312.326 -375.742 -0.393015 0.163957 0.0240893 -0.904476 
2815 2 50.1838 383.159 -378.441 0.261906 0.461175 -0.32116 -0.784588 
2816 2 41.0243 385.309 -375.361 0.816631 0.0733209 -0.547433 -0.167497 
2817 2 31.9972 386.308 -371.439 0.589117 -0.417348 -0.440993 0.533186 
2818 2 22.2901 386.196 -369.372 -0.00402161 -0.65498 -0.0182205 0.755416 
2764 2 -23.0862 313.228 -366.364 0.441362 0.152243 -0.0269277 -0.88391 
2733 2 -39.1288 385.137 -424.151 -0.591265 -0.540419 -0.377438 0.464644 
2701 2 40.8772 378.089 -471.224 0.240837 -0.118122 0.584275 0.765943 
2819 2 12.5168 385.553 -368.391 -0.568216 -0.409903 0.497439 0.511531 
2702 2 41.8258 387.39 -468.055 -0.450471 0.39815 0.456323 0.655989 
2732 2 -39.4437 394.991 -423.39 -0.0349505 -0.00178426 -0.734901 0.677271 
2820 2 2.757 386.157 -367.032 -0.693048 0.0754273 0.681797 -0.221694 
2703 2 42.8486 396.733 -465.016 -0.892197 0.441721 0.0495018 0.0801108 
2821 2 -7.03545 384.238 -366.501 -0.30022 0.527053 0.396826 -0.688921 
2822 2 -16.5425 381.9 -364.942 0.363477 0.660179 -0.182644 -0.631419 
2823 2 -26.1223 379.867 -364.011 0.730466 0.208234 -0.646295 -0.0732189 
2809 2 93.9646 361.893 -410.727 0.775253 0.0064788 -0.463213 -0.429388 
2824 2 -35.7795 378.049 -362.88 0.520977 -0.293545 -0.575858 0.557496 
2808 2 101.08 359.216 -417.025 0.180677 0.355468 -0.226407 -0.888672 
2807 2 108.037 357.353 -423.871 -0.586879 0.335981 0.129829 -0.725144 
2806 2 115.496 354.368 -429.586 -0.882599 0.186911 0.431011 0.017677 
2805 2 123.341 352.792 -435.293 -0.636795 -0.252262 0.368555 0.628509 
2803 1 149.787 331.954 -402.249 0.774418 -0.15523 -0.520562 0.324339 
2804 3 117.436 329.952 -389.015 0.779363 -0.19291 -0.499035 0.326104 
2299 2 -240.362 409.139 -383.903 0.0481054 0.321226 -0.571677 0.753449 
2291 3 -289.22 405.064 -389.118 -0.786973 -0.0228772 -0.498724 0.362525 
2298 2 -244.602 417.897 -385.998 0.590775 0.602785 -0.187388 0.502514 
2297 2 -250.101 426.124 -386.355 0.697623 0.513777 0.487065 -0.110108 
2290 1 -315.9 419.21 -406.87 -0.763711 -0.0546342 -0.49082 0.41576 
2346 2 -236.843 510.564 -401.594 0.497674 -0.0529828 0.690758 -0.521888 
2348 2 -222.176 497.405 -399.737 0.457003 0.639378 -0.0302926 0.617597 
2347 2 -229.365 504.134 -400.998 0.736791 0.493603 0.461881 0.0126508 
2349 2 -214.231 491.885 -398.012 -0.221254 0.351333 -0.536319 0.734829 
2344 1 -268.521 487.649 -375.208 -0.580376 0.15498 -0.569481 0.561103 
2293 2 -277.641 451.041 -397.879 -0.750508 -0.0245322 -0.504376 0.426311 
2292 2 -285.396 455.018 -402.697 -0.157841 0.39657 -0.30072 0.852869 
2296 2 -255.464 434.317 -387.863 0.317063 -0.0813689 0.662435 -0.673817 
2295 2 -262.578 440.887 -390.457 -0.280488 -0.552701 0.260579 -0.740234 
2294 2 -270.718 445.775 -393.078 -0.739029 -0.453769 -0.403018 -0.292415 
2345 3 -238.2 472.552 -366.352 -0.597261 0.16576 -0.576074 0.532862 
2431 2 -67.1379 533.842 -512.286 0.195549 0.787016 -0.550535 0.198185 
2350 2 -206.925 485.421 -396.619 -0.721874 -0.245587 -0.528858 0.372684 
2408 2 -80.9277 452.243 -512.439 0.274063 -0.640356 0.588115 0.41104 
2372 3 -141.844 401.605 -468.159 0.743156 -0.444112 0.259517 0.427942 
2365 2 -103.231 409.335 -442.664 -0.440034 -0.816381 0.24872 -0.27934 
2351 2 -201.855 477.591 -393.405 -0.719901 -0.595855 -0.094437 -0.343194 
2352 2 -196.609 469.804 -390.312 -0.193421 -0.582464 0.400391 -0.680449 
2375 2 -186.071 406.677 -482.707 -0.712755 0.627542 -0.30662 -0.0644642 
2353 2 -190.211 462.198 -390.698 0.39687 -0.100321 0.770849 -0.488079 
2376 2 -182.455 415.874 -482.004 -0.31118 0.107897 -0.587662 -0.739039 
2377 2 -179.622 425.087 -479.403 0.210231 -0.424068 -0.35151 -0.807719 
2364 2 -109.69 415.089 -437.95 -0.535693 -0.538903 -0.650058 -0.00636784 
2363 2 -117.591 419.351 -433.923 -0.422052 0.222538 -0.802425 0.358417 
2362 2 -126.131 422.456 -429.922 0.03456 0.78307 -0.262568 0.562729 
2361 2 -134.655 426.191 -426.433 0.440071 0.703742 0.457655 0.318806 
2407 2 -78.0109 443.613 -508.434 0.556295 -0.803115 -0.209599 0.040134 
2378 2 -173.682 432.074 -475.747 0.733679 -0.549815 0.200979 -0.345002 
2360 2 -143.038 428.528 -421.798 0.495422 0.0900591 0.861935 -0.059281 
2359 2 -150.8 431.884 -416.634 0.205216 -0.632781 0.579434 -0.470883 
2358 2 -157.581 433.262 -409.677 -0.156832 -0.907055 -0.25403 -0.296857 
2357 2 -164.5 435.659 -402.89 -0.405894 -0.213619 -0.888604 -0.000285292 
2356 2 -170.562 441.132 -397.22 -0.132467 0.439183 -0.78165 0.422603 
2354 2 -183.15 455.43 -392.051 0.60657 0.525823 0.594957 -0.0401205 
2355 2 -176.455 448.446 -394.179 0.412785 0.778691 -0.114323 0.458452 
2379 2 -167.073 438.902 -472.843 0.73762 -0.161453 0.589828 0.286272 
2380 2 -159.575 445.068 -470.793 0.236867 0.387072 0.471235 0.756312 
2381 2 -151.735 450.55 -468.428 -0.423187 0.687947 -0.0861686 0.583281 
2382 2 -143.209 455.57 -468.517 -0.715414 0.325725 -0.605654 -0.123569 
2388 2 -94.8057 487.63 -470.53 -0.389215 0.724841 -0.313263 0.474325 
2389 2 -85.7304 490.423 -473.093 -0.633279 0.32782 -0.689474 -0.126951 
2390 2 -77.713 495.976 -475.071 -0.34015 -0.327369 -0.707395 -0.526041 
2391 2 -69.2871 500.729 -476.862 0.104115 -0.736768 -0.189485 -0.640647 
2387 2 -103.739 484.116 -468.176 0.0836516 0.682383 0.38187 0.617682 
2386 2 -112.958 480.647 -466.891 0.564606 0.0825276 0.755357 0.322249 
2385 2 -121.619 475.938 -466.835 0.662504 -0.554758 0.411084 -0.290418 
2384 2 -128.437 468.735 -467.89 0.294725 -0.647677 -0.231632 -0.663324 
2383 2 -135.293 461.616 -468.706 -0.32933 -0.204481 -0.62713 -0.675601 
2392 2 -60.2524 504.409 -478.55 0.496506 -0.596839 0.47974 -0.408798 
2857 1 -132.793 508.398 -377.746 0.370734 0.22468 0.365983 0.823488 
2406 2 -74.1822 436.19 -503.236 0.35828 -0.286515 -0.818193 -0.346561 
2405 2 -69.1659 429.355 -497.911 0.0905226 0.421812 -0.77947 -0.45421 
2430 2 -67.645 539.884 -504.497 0.327421 0.903808 0.27156 -0.046716 
2429 2 -69.3402 547.347 -498.275 0.247828 0.366389 0.820756 -0.361525 
2851 2 -76.2365 544.912 -366.545 -0.361065 0.279497 0.88869 0.0417588 
2853 2 -89.9983 547.983 -380.364 0.159516 0.798906 -0.384096 -0.434481 
2852 2 -82.3797 546.909 -374.078 -0.221297 0.832297 0.356647 -0.362094 
2856 2 -113.881 546.768 -397.778 -0.113347 -0.902091 0.0284305 0.415423 
2855 2 -106.314 548.112 -391.45 0.264937 -0.558428 -0.716646 0.323087 
2854 2 -98.3575 548.801 -385.555 0.439671 0.235504 -0.860668 -0.10236 
2404 2 -63.2307 424.021 -492.101 -0.286908 0.885607 -0.0427488 -0.362707 
2724 2 -61.0074 467.998 -419.948 0.521421 0.70321 -0.134169 0.464344 
2648 2 -58.0388 548.537 -471.503 0.445993 -0.291226 0.592948 -0.603896 
2403 2 -56.7104 421.349 -485.167 -0.372369 0.566476 0.731222 -0.0759013 
2605 2 -35.2447 524.582 -513.721 0.259391 0.0989083 0.586512 -0.760879 
2725 2 -55.4636 459.922 -421.015 -0.0265176 0.341456 -0.648029 0.680267 
2704 2 42.8793 404.849 -459.151 -0.52667 0.339976 -0.307587 -0.715839 
2611 2 -21.5414 469.008 -512.469 -0.220156 -0.70357 0.410851 -0.536398 
2606 2 -33.7079 515.316 -510.663 0.723245 0.542234 0.341831 -0.257003 
2623 2 28.7972 540.253 -510.77 -0.785516 0.0929629 -0.0616961 -0.6087 
2607 2 -31.5896 505.745 -509.141 0.657926 0.589962 -0.291134 0.366498 
2608 2 -31.1137 495.977 -507.633 0.15042 0.204937 -0.685972 0.681775 
2528 2 35.6705 487.45 -513.759 0.962005 0.0817064 -0.214265 0.148194 
2610 2 -26.6564 477.173 -510.272 -0.615431 -0.720274 -0.315809 -0.0521006 
2609 2 -29.8406 486.163 -507.699 -0.434159 -0.360853 -0.679934 0.467954 
2393 2 -51.0287 506.356 -481.275 0.683457 0.0490286 0.727564 0.0336599 
2686 2 50.498 428.749 -510.674 -0.245882 0.195277 0.949008 0.028168 
2402 2 -50.3356 418.751 -478.111 -0.308514 -0.32845 0.852037 0.266406 
2685 2 54.5462 427.113 -501.833 -0.127373 -0.599656 0.77336 0.161563 
2394 2 -41.2028 506.539 -482.459 0.434121 0.595658 0.353537 0.57597 
2731 2 -39.5681 404.845 -422.704 0.533257 0.588912 -0.454512 0.402789 
2705 2 41.1093 412.363 -452.934 0.206563 -0.0328446 -0.425409 -0.8805 
2730 2 -38.5476 414.674 -423.203 0.719214 0.674072 0.100871 -0.134845 
2706 2 40.2996 419.807 -446.374 0.835906 -0.311024 -0.163173 -0.421781 
2726 2 -50.5467 451.283 -421.378 -0.62672 -0.325834 -0.591927 0.38817 
2707 2 39.6165 426.434 -439.007 0.874858 -0.342409 0.0456037 0.339559 
2727 2 -45.9175 442.459 -420.585 -0.580457 -0.765469 -0.0469132 -0.273724 
2728 2 -41.2671 433.846 -421.9 -0.230915 -0.410121 0.687292 -0.553271 
2401 2 -43.4866 417.021 -471.208 -0.0635744 -0.8284 0.388518 0.398455 
2400 2 -37.2745 414.837 -463.788 0.266197 -0.822943 -0.449662 0.222954 
2399 3 -46.7082 463.028 -480.581 -0.10209 0.820938 0.0518348 -0.55942 
2395 2 -31.2994 506.292 -481.947 -0.200202 0.56914 -0.287862 0.74373 
2396 2 -21.7533 504.546 -480.084 -0.645768 0.0813948 -0.694828 0.305895 
2729 2 -39.0311 424.491 -424.577 0.360114 0.290583 0.572856 -0.676547 
2708 2 38.0413 432.571 -431.419 0.334277 -0.258553 0.276455 0.863123 
2709 2 35.7386 438.729 -424.001 -0.391117 0.0852999 0.387572 0.830385 
2397 2 -12.2007 501.699 -479.779 -0.649265 -0.461391 -0.520402 -0.307824 
2529 2 32.3847 484.851 -504.74 0.547719 -0.0227886 -0.152305 0.822367 
2398 1 -14.9582 456.154 -467.789 -0.0824649 0.818042 -0.0125983 -0.569077 
2530 2 30.7649 482.529 -495.224 -0.33079 -0.0944731 -0.115038 0.93189 
2531 2 30.0297 479.995 -485.661 -0.934124 -0.151659 -0.0475389 0.319613 
2532 2 30.3264 477.25 -476.09 -0.846203 -0.108136 0.0891015 -0.514109 
2534 3 67.0293 510.09 -492.693 0.15318 -0.299828 -0.907041 -0.252817 
2533 1 73.4048 491.903 -463.516 0.147506 -0.30973 -0.905286 -0.250532 
2659 2 25.64 495.879 -436.633 -0.799787 -0.268703 -0.360991 0.397272 
2660 2 29.4919 489.267 -430.368 -0.853305 -0.278266 -0.149755 -0.414743 
2661 2 34.4266 485.583 -422.59 -0.205861 -0.205108 0.115659 -0.949829 
2662 2 37.1055 482.353 -413.588 0.586855 -0.0569934 0.232937 -0.773365 
2663 2 40.6797 479.677 -404.732 0.985952 0.0989581 0.125633 -0.0481902 
2664 2 42.6379 477.79 -395.205 0.650255 0.104879 -0.00599847 0.752418 
2713 2 30.1998 460.073 -391.696 0.810225 -0.0508364 -0.300825 -0.500455 