ITEM: TIMESTEP
10000000
ITEM: NUMBER OF ATOMS
4067
ITEM: BOX BOUNDS pp pp pp
-4.6310929470000001e+03 4.6704658980000004e+03
-4.6310929470000001e+03 4.6704658980000004e+03
-4.6310929470000001e+03 4.6704658980000004e+03
ITEM: ATOMS id type x y z c_q[1] c_q[2] c_q[3] c_q[4] 
2278 2 211.12 -99.0506 -374.779 0.0372495 0.971904 -0.229748 0.0350755 
2279 2 211.98 -99.7181 -384.57 -0.0986931 0.40665 -0.908071 0.0174 
2280 2 212.89 -99.444 -394.454 0.0363657 -0.548596 -0.824928 -0.131201 
2282 2 214.158 -91.4242 -412.329 0.289699 -0.640942 0.655771 0.274283 
2281 2 213.512 -96.8317 -404.032 0.248982 -0.953301 -0.140066 -0.0980079 
2283 2 215.325 -84.8389 -419.622 -0.074211 0.020981 0.903349 0.421917 
2284 2 214.214 -77.4637 -426.164 -0.447516 0.628198 0.61404 0.167485 
2285 2 210.952 -70.0362 -431.886 -0.495257 0.820372 -0.054932 -0.280522 
2277 2 209.358 -100.364 -365.109 0.00659636 0.788128 0.599867 0.137733 
2286 2 206.061 -62.1287 -435.273 -0.122812 0.465222 -0.588901 -0.64937 
2299 2 246.154 -62.3833 -368.724 0.302233 0.550493 0.699821 0.340387 
2298 2 238.544 -59.9325 -362.847 0.406359 -0.0901317 0.887095 -0.199529 
2300 2 254.467 -61.2713 -374.055 -0.187883 0.819383 -0.000447602 0.541583 
2301 2 263.148 -58.1644 -377.688 -0.571742 0.569569 -0.569494 0.156137 
2287 2 200.681 -53.9424 -436.563 0.471321 -0.0124559 -0.692719 -0.545748 
2289 2 189.918 -37.8032 -438.706 0.397528 -0.686944 0.306329 0.525586 
2291 3 208.48 -49.5793 -391.666 0.748541 0.574379 0.322277 0.0768939 
2290 1 189.158 -20.4999 -394.839 0.711206 0.61629 0.336569 0.0330727 
2371 1 229.257 61.3763 -380.331 0.409528 0.0178596 0.434393 0.802042 
2288 2 194.126 -46.5544 -437.121 0.636986 -0.667939 -0.384667 -0.011724 
2370 2 252.727 87.3114 -412.006 -0.492123 -0.277682 0.790976 -0.234657 
2302 2 271.288 -53.472 -380.824 -0.537091 -0.160117 -0.750671 -0.349841 
2303 2 280.493 -50.0136 -382.205 0.0113437 -0.588034 -0.441507 -0.677613 
2304 2 288.39 -44.1606 -383.191 0.499613 -0.753494 0.247481 -0.348406 
2319 2 273.899 19.0559 -483.035 0.155584 -0.173815 -0.0340827 0.971813 
2320 2 270.153 18.8559 -473.905 -0.696698 -0.156103 0.0732792 0.696329 
2321 2 267.202 18.3077 -464.392 -0.990846 0.0605433 0.11349 -0.0409807 
2322 2 265.024 19.3656 -454.863 -0.653836 0.0579329 0.0178144 -0.754205 
2317 1 319.927 24.7235 -474.259 -0.748289 -0.0525081 0.201487 -0.629849 
2323 2 263.977 19.4718 -445.012 0.17317 -0.0564914 0.021096 -0.983044 
2324 2 265.305 19.3086 -435.122 0.884429 -0.0596771 0.066976 -0.457973 
2325 2 266.646 19.3991 -425.289 0.913227 0.0323336 0.101115 0.393378 
2318 3 307.235 13.6267 -443.699 -0.762179 -0.0388165 0.227053 -0.604998 
2326 2 269.152 19.5919 -415.642 0.207609 0.0699731 0.18305 0.958382 
2327 2 271.366 22.6881 -406.61 -0.659461 0.104272 0.135756 0.731989 
2314 2 351.087 10.9603 -432.111 -0.252254 0.943558 -0.127993 0.172293 
2313 2 345.247 5.24699 -426.534 0.0349001 0.549955 0.696413 0.459718 
2312 2 339.638 -0.366482 -420.576 0.40125 -0.172344 0.866383 0.242233 
2311 2 334.871 -5.12714 -413.345 0.377504 -0.80426 0.449599 -0.0922891 
2328 2 271.044 25.8362 -397.255 -0.987123 0.0376174 0.104107 -0.115479 
2329 2 269.222 25.5492 -387.552 -0.516085 -0.134393 0.167895 -0.8291 
2307 2 307.415 -23.3899 -391.977 -0.316117 0.859775 0.0648292 0.395795 
2310 2 329.197 -10.1539 -406.944 0.226512 -0.845912 -0.291699 -0.384756 
2308 2 313.807 -18.0326 -397.219 -0.521642 0.429936 -0.73547 0.0461417 
2309 2 321.806 -14.822 -402.133 -0.314731 -0.292315 -0.806226 -0.406812 
2306 2 301.301 -30.2991 -388.297 0.156527 0.408708 0.717212 0.542277 
2315 2 354.969 15.7915 -439.769 -0.341635 0.592144 -0.721566 -0.109512 
2316 2 358.455 21.1542 -447.311 -0.115405 -0.201407 -0.909762 -0.344167 
2305 2 295.894 -37.9151 -385.23 0.513592 -0.362599 0.727337 0.275182 
2330 2 269.288 22.1406 -378.274 0.35138 0.0505422 0.190003 -0.915356 
2331 2 269.849 18.1132 -369.29 0.933061 0.130124 0.0017633 -0.335353 
2369 2 259.2 93.3193 -407.572 -0.465325 -0.800534 0.285452 0.247255 
2368 2 265.545 98.9849 -402.321 -0.147648 -0.816484 -0.332905 0.448027 
2400 2 274.587 206.816 -376.143 -0.195588 0.310052 0.182496 -0.912309 
2367 2 270.79 102.834 -394.816 0.240087 -0.233978 -0.892558 0.301583 
2366 2 275.544 106.452 -386.861 0.2914 0.503393 -0.812161 0.045565 
2365 2 281.127 105.989 -378.751 -0.00495855 0.963447 -0.0731482 -0.257673 
2401 2 268.693 204.497 -368.478 0.587093 0.441315 -0.0583264 -0.676137 
2364 2 285.211 104.028 -369.97 -0.230969 0.650935 0.720927 -0.0565822 
2402 2 261.944 200.508 -362.415 0.944966 0.228081 -0.194643 0.130894 
3952 2 -700.076 702.739 -367.909 0.386698 -0.824943 0.275751 0.306423 
3951 2 -696.411 696.068 -361.565 0.40047 -0.755486 -0.517526 -0.0321213 
4047 2 -585.672 672.281 -496.514 -0.566282 0.496338 -0.182299 0.63225 
4048 2 -577.481 675.962 -492.523 -0.847089 0.109462 -0.499132 -0.14603 
4045 1 -577.284 626.407 -489.146 -0.915802 0.249541 -0.302203 0.0878034 
4044 2 -559.033 590.232 -465.008 0.180942 0.676812 -0.705388 0.107762 
4043 2 -557.816 594.389 -456.096 0.18903 0.976061 0.0784319 -0.0736305 
4042 2 -553.265 598.905 -448.528 -0.063974 0.548713 0.742811 -0.378224 
4041 2 -548.181 604.112 -441.89 -0.371387 -0.150163 0.887888 -0.226225 
4040 2 -542.925 610.249 -436.114 -0.420514 -0.811589 0.391582 0.10562 
4039 2 -540.706 618.659 -431.385 -0.332045 -0.74278 -0.468524 0.344251 
4038 2 -540.159 627.221 -426.458 0.00633278 -0.0502664 -0.876361 0.478983 
4037 2 -540.308 635.439 -420.95 0.3923 0.677158 -0.565534 0.260247 
4036 2 -542.246 644.138 -416.684 0.51352 0.83948 0.177615 0.0048708 
4046 3 -558.191 642.047 -464.472 -0.918648 0.248447 -0.30073 0.0626158 
4035 2 -544.001 653.076 -412.758 0.363215 0.373044 0.729276 -0.443925 
4034 2 -547.202 660.623 -407.352 -0.0123409 -0.371296 0.809781 -0.454138 
4033 2 -551.15 667.32 -401.29 -0.391654 -0.871719 0.103462 -0.275696 
4032 2 -554.606 673.482 -394.408 -0.37196 -0.683831 -0.623365 0.0737308 
4031 2 -558.948 678.743 -387.26 -0.223466 0.136484 -0.903618 0.338984 
4056 2 -516.374 673.671 -446.223 -0.520322 -0.377861 -0.115327 -0.757091 
4055 2 -523.41 676.62 -452.563 -0.908749 -0.191378 -0.362699 -0.0774516 
4030 2 -562.836 684.875 -380.502 0.144831 0.78799 -0.473451 0.365979 
3939 2 -608.951 655.202 -390.167 -0.353573 -0.526437 0.0169948 0.773021 
4054 2 -530.94 678.633 -458.67 -0.56618 0.285418 -0.358057 0.685399 
4053 2 -538.722 681.651 -463.992 0.191623 0.507072 -0.0731285 0.837144 
4049 2 -569.237 679.393 -488.26 -0.475948 -0.339629 -0.396904 -0.707526 
4052 2 -545.768 682.76 -470.793 0.848542 0.193858 0.349381 0.346883 
4050 2 -560.837 681.664 -483.615 0.244926 -0.425167 0.0465037 -0.870105 
3940 2 -616.936 652.069 -385.188 -0.866511 -0.226428 0.352761 0.271014 
4051 2 -553.231 683.109 -477.326 0.832504 -0.115715 0.38788 -0.37828 
3941 2 -624.656 650.439 -379.214 -0.760696 0.209119 0.280131 -0.546934 
4029 2 -566.424 691.961 -374.554 0.421276 0.855666 0.296697 0.0482952 
3938 3 -637.703 696.248 -376.4 0.0102153 0.27292 0.0219366 -0.961732 
3937 1 -621.139 697.454 -407.176 0.00155677 0.255536 0.0132527 -0.966707 
4028 2 -569.651 699.129 -368.633 0.308801 0.294508 0.849042 -0.311505 
3942 2 -631.992 650.645 -372.605 -0.0645373 0.407336 -0.0814222 -0.907349 
3943 2 -639.255 652.988 -366.338 0.685732 0.150627 -0.427221 -0.569706 
4027 2 -572.304 705.578 -361.569 -0.0924876 -0.500086 0.76944 -0.386423 
4057 2 -509.737 671.357 -439.363 0.351911 -0.283112 0.275632 -0.848548 
4058 2 -502.576 669.201 -432.954 0.902207 -0.11137 0.301818 -0.287271 
4059 2 -496.657 668.922 -425.013 0.796917 0.281738 0.199094 0.495892 
4060 2 -490.808 666.463 -417.396 0.0748532 0.330082 -0.113177 0.934149 
4061 2 -484.963 663.884 -409.811 -0.675669 0.0948683 -0.196459 0.704184 
4062 2 -481.055 661.978 -400.915 -0.993396 -0.0839524 0.0547936 -0.0558063 
4063 2 -481.822 660.69 -391.115 -0.544565 0.114297 0.102262 -0.824577 
4064 2 -484.911 660.062 -381.712 0.2456 0.118542 0.0628167 -0.960043 
4065 2 -486.897 658.3 -372.233 0.916869 0.101453 0.039417 -0.384063 
4066 2 -486.998 655.751 -362.596 0.814328 0.10376 -0.0437654 0.569375 
3953 2 -702.618 710.289 -373.767 0.0361343 -0.276697 0.800932 0.529755 
3954 2 -704.833 718.552 -378.64 -0.416191 0.492623 0.66208 0.381782 
3955 2 -706.774 727.544 -382.436 -0.619995 0.77296 0.0558327 -0.122561 
3956 2 -709.419 736.935 -384.34 -0.201844 0.593846 -0.627913 -0.460793 
3957 2 -712.656 745.062 -388.882 0.385793 -0.0630965 -0.709464 -0.586381 
3958 2 -717.038 753.933 -389.549 0.723164 -0.559267 -0.40301 -0.0428652 
3959 2 -722.593 762.025 -387.984 0.617736 -0.589175 0.162562 0.494821 
3960 2 -726.543 770.706 -385.396 -0.0869972 -0.273151 0.392055 0.874136 
3961 2 -732.004 777.034 -380.122 -0.669244 0.148891 0.518489 0.510993 
3962 2 -737.12 784.374 -375.945 -0.786566 0.525809 0.181153 -0.268368 
3996 2 -677.772 779.251 -437.144 -0.34567 0.0686516 -0.0273339 0.935442 
3995 2 -678.02 777.549 -446.912 0.463361 -0.0316449 0.0358267 0.884879 
3994 2 -677.774 777.47 -456.729 0.998072 0.00630215 -0.0118554 0.0605927 
3997 2 -675.702 778.894 -427.489 -0.94354 0.107121 -0.204055 0.237949 
3998 2 -671.312 779.704 -418.64 -0.698704 -0.196628 -0.266278 -0.634229 
3993 2 -678.288 778.484 -466.629 0.646473 0.0155629 0.0410588 -0.761672 
3931 2 -674.696 752.685 -371.902 -0.40083 -0.870628 -0.113373 -0.261705 
3963 2 -742.634 791.756 -372.298 -0.19436 0.406928 -0.341165 -0.824767 
3932 2 -669.769 746.135 -377.416 0.135891 -0.666157 0.639556 -0.3588 
3930 2 -679.68 759.531 -366.689 -0.47218 -0.407602 -0.756416 0.19683 
3933 2 -663.219 743.162 -384.239 0.372675 0.189691 0.90615 -0.0634243 
3999 2 -665.436 780.707 -410.765 0.0317105 -0.479171 -0.0541382 -0.875476 
4000 2 -656.963 782.027 -405.853 0.677623 -0.426239 0.377102 -0.46577 
4001 2 -647.89 784.4 -402.688 0.800418 0.04905 0.540689 0.254127 
3934 2 -656.771 740.357 -391.241 0.207277 0.837133 0.429325 0.268188 
3936 2 -643.01 739.168 -405.021 -0.409228 0.214346 -0.880224 0.108602 
3935 2 -650.791 739.414 -399.026 -0.156086 0.844873 -0.320123 0.399184 
3991 1 -632.358 772.652 -475.62 -0.84805 -0.0626221 0.0225389 -0.52572 
3990 2 -587.25 766.952 -462.897 0.15877 -0.61042 0.769152 0.102881 
3989 2 -588.025 763.201 -453.787 0.181314 -0.981984 0.00370136 -0.0530886 
3981 2 -621.579 743.314 -387.254 -0.199004 -0.579658 -0.712297 -0.342093 
3982 2 -615.379 745.629 -394.64 0.233066 -0.94594 0.0253029 -0.224138 
3988 2 -589.046 758.727 -445.028 0.101462 -0.621968 -0.741462 -0.230424 
3980 2 -628.048 741.068 -380.087 -0.36424 0.114823 -0.922968 -0.0477075 
3983 2 -610.767 749.498 -402.533 0.268754 -0.502501 0.813536 -0.115855 
3984 2 -605.329 750.997 -410.613 0.24835 0.334905 0.894215 0.162909 
3985 2 -600.044 752.102 -418.965 0.0329464 0.915021 0.343056 0.209675 
3986 2 -596.017 753.302 -427.825 -0.152664 0.855041 -0.478147 0.130281 
3987 2 -591.725 754.458 -436.632 -0.180954 0.228109 -0.938503 -0.185565 
3992 3 -634.063 769.204 -440.812 -0.8503 -0.0719995 0.0361663 -0.520093 
4002 2 -638.873 786.092 -398.777 0.306131 0.544784 0.246334 0.740819 
4003 2 -629.561 786.685 -395.558 -0.505097 0.518076 -0.203888 0.659472 
4004 2 -620.627 789.234 -392.139 -0.860564 0.155901 -0.480449 -0.0655231 
4005 2 -612.595 792.464 -387.3 -0.521343 -0.188532 -0.394028 -0.733075 
4006 2 -605.436 795.97 -381.47 0.273603 -0.452785 -0.134689 -0.837846 
4007 2 -598.814 800.495 -375.553 0.895008 -0.21727 0.293306 -0.256372 
3979 2 -634.767 739.604 -372.91 -0.305023 0.7366 -0.562636 0.218685 
3978 2 -643.018 737.679 -367.885 -0.0225196 0.85882 0.203855 0.46943 
4008 2 -592.554 802.619 -368.221 0.849702 0.0943791 0.253078 0.452825 
3977 2 -650.457 734.368 -362.142 0.28523 0.310132 0.848231 0.320884 
561 2 -267.334 -380.008 -301.84 0.212134 0.507494 -0.664948 -0.505265 
560 2 -259.33 -384.278 -297.737 -0.222326 0.83621 -0.0590552 -0.497832 
453 2 -293.24 -434.249 -218.682 0.252633 -0.960565 -0.110537 0.0356779 
480 2 -265.376 -402.076 -288.358 -0.372247 0.701931 0.563577 -0.226068 
559 2 -251.577 -389.2 -294.171 -0.560206 0.594342 0.561501 -0.132826 
479 2 -258.326 -404.983 -282.029 -0.412785 0.101447 0.89706 0.120831 
478 2 -251.585 -408.612 -275.684 -0.097005 -0.64 0.636002 0.420108 
563 3 -245.193 -369.757 -256.078 0.833989 0.437663 0.318146 -0.10815 
477 2 -244.772 -411.931 -269.32 0.240648 -0.903723 -0.118379 0.333705 
558 2 -242.826 -393.43 -292.635 -0.528075 -0.126016 0.744548 0.388466 
557 2 -233.396 -394.768 -290.053 -0.185603 -0.725332 0.283895 0.59904 
476 2 -238.086 -416.037 -263.191 0.406593 -0.475284 -0.779807 0.0262509 
475 2 -232.189 -420.54 -256.55 0.228249 0.357672 -0.831837 -0.357799 
481 1 -257.87 -444.134 -308.437 0.123618 -0.513198 -0.0565231 -0.847438 
474 2 -227.346 -425.893 -249.773 -0.200876 0.850385 -0.32809 -0.358959 
482 3 -227.938 -437.826 -291.463 0.16838 -0.489746 -0.0728187 -0.852346 
556 2 -224.637 -394.93 -285.419 0.320288 -0.706501 -0.474933 0.415586 
483 2 -231.512 -481.9 -318.695 -0.675268 -0.265366 -0.255775 -0.638885 
473 2 -223.117 -430.914 -242.466 -0.351756 0.821818 0.442921 -0.0685889 
484 2 -224.975 -481.825 -311.239 0.136363 -0.370479 -0.0252492 -0.91843 
472 2 -219.224 -435.947 -234.846 -0.271079 0.181205 0.9176 0.227356 
471 2 -216.657 -441.755 -227.228 0.0701373 -0.607547 0.727769 0.310354 
470 2 -213.478 -446.979 -219.41 0.269871 -0.95006 -0.0359222 0.152527 
555 2 -216.525 -395.679 -279.943 0.485554 -0.130078 -0.864023 0.0279567 
485 2 -218.34 -480.325 -304.075 0.830154 -0.258974 0.309442 -0.384737 
452 2 -292.459 -439.092 -210.117 0.164502 -0.543516 -0.805401 -0.169877 
570 2 -217.91 -370.805 -211.366 0.415876 0.463651 -0.211351 0.753263 
502 2 -213.102 -365.816 -225.254 -0.561159 0.572879 0.492506 0.338154 
501 2 -210.937 -375.403 -226.548 -0.184528 -0.00889939 0.666254 0.722479 
569 2 -223.075 -363.008 -214.761 0.805713 0.526349 0.213049 0.168503 
469 2 -211.241 -451.105 -210.697 0.21315 -0.587295 -0.771488 -0.120247 
486 2 -211.529 -478.174 -297.094 0.803439 -0.00409416 0.371838 0.464979 
554 2 -208.832 -396.2 -273.721 0.336898 0.582732 -0.689898 -0.26639 
500 2 -207.433 -384.563 -227.26 0.423326 -0.609106 0.343659 0.57592 
499 2 -200.752 -391.837 -226.783 0.686718 -0.592197 -0.412258 0.0881147 
553 2 -201.591 -393.579 -267.531 0.053169 0.885506 0.185026 -0.422868 
498 2 -193.51 -398.413 -228.558 0.561719 0.0355811 -0.641251 -0.52154 
497 2 -187.784 -405.915 -231.292 -0.124531 0.420043 -0.44083 -0.783405 
487 2 -205.707 -475.049 -289.711 0.0537177 0.299385 0.25095 0.918971 
496 2 -182.497 -413.582 -234.665 -0.678655 0.568273 0.0124927 -0.465121 
495 2 -180.903 -421.956 -239.608 -0.751238 0.351707 0.322822 0.455774 
488 2 -199.756 -471.223 -282.658 -0.631311 0.430551 0.11386 0.634908 
489 2 -196.048 -464.88 -276.086 -0.906634 0.326712 -0.235977 -0.124853 
490 2 -192.724 -458.314 -269.46 -0.476698 -0.0356106 -0.34177 -0.809126 
491 2 -188.504 -453.314 -261.992 0.471529 -0.322023 -0.223862 -0.78984 
492 2 -185.713 -446.795 -255.162 0.887338 -0.450155 0.0587482 -0.0808756 
493 2 -183.788 -438.661 -249.805 0.530241 -0.271521 0.431031 0.677741 
494 2 -182.49 -430.497 -244.377 -0.0824291 0.17324 0.492772 0.848746 
552 2 -196.288 -390.639 -259.555 -0.190568 0.353449 0.88255 -0.24467 
551 2 -191.467 -384.324 -253.643 -0.403396 -0.468052 0.770246 -0.157861 
550 2 -188.291 -377.544 -247.246 -0.387919 -0.907258 0.098757 0.129031 
525 2 -149.29 -362.821 -232.021 0.138487 -0.989118 0.0132651 0.0478632 
524 2 -150.92 -368.658 -224.22 0.109843 -0.612238 -0.732736 -0.276037 
523 2 -150.565 -373.667 -215.694 -0.0588819 0.203863 -0.941484 -0.261877 
549 2 -185.672 -368.788 -243.627 -0.193913 -0.519086 -0.628192 0.54619 
568 2 -227.938 -354.616 -216.791 0.584366 0.236195 0.5934 -0.500605 
567 2 -231.749 -345.878 -219.475 -0.0153051 -0.255824 0.546514 -0.797272 
562 1 -261.2 -343.41 -272.667 0.853245 0.376567 0.304976 -0.19277 
566 2 -235.861 -338.04 -224.013 -0.6774 -0.511907 0.117079 -0.515144 
565 2 -240.357 -330.6 -228.692 -0.840426 -0.381981 -0.327196 0.201785 
564 2 -245.754 -323.323 -232.855 -0.372853 0.106049 -0.517301 0.762977 
504 2 -215.531 -346.607 -229.148 -0.311262 0.30548 -0.677581 -0.592184 
505 2 -214.986 -336.86 -230.263 0.293813 -0.337449 -0.6502 -0.614037 
537 2 -223.017 -290.213 -272.07 0.137189 -0.200299 0.0927546 -0.965638 
506 2 -214.886 -327.048 -231.805 0.582141 -0.783588 -0.186706 -0.110647 
538 2 -219.303 -291.689 -263.009 0.786787 -0.0593053 0.310171 -0.530323 
503 2 -214.568 -356.206 -227.033 -0.604249 0.771939 -0.142848 -0.136341 
539 2 -213.87 -294.324 -255.232 0.913331 0.24721 0.0972999 0.308619 
540 2 -210.26 -297.674 -246.591 0.363836 0.338198 -0.110957 0.860775 
507 2 -215.467 -317.665 -234.817 0.44147 -0.627908 0.499105 0.402157 
526 2 -150.425 -360.582 -241.577 0.0695303 -0.629374 0.761908 0.136198 
527 2 -151.288 -357.993 -251.135 0.0196944 0.19808 0.9507 0.237794 
548 2 -184.721 -359.984 -239.267 0.187772 0.152862 -0.839093 0.487132 
528 2 -150.457 -353.45 -259.924 -0.13274 0.828796 0.515471 0.172531 
529 2 -148.248 -349.668 -268.852 -0.204271 0.923313 -0.322295 0.0434958 
530 2 -145.725 -346.823 -277.985 -0.00222615 0.340173 -0.929735 -0.140958 
531 2 -147.084 -344.539 -287.483 0.162369 -0.477832 -0.863068 -0.0206743 
532 2 -150.064 -343.005 -296.779 0.155742 -0.972464 -0.0699334 0.158645 
533 2 -153.656 -340.655 -305.743 0.00885854 -0.674086 0.705367 0.219058 
534 2 -156.824 -337.533 -314.624 -0.175484 0.030071 0.97312 0.146078 
547 2 -184.305 -351.046 -234.861 0.471528 0.747908 -0.403295 0.235897 
546 2 -185.492 -342.452 -230.149 0.492741 0.785292 0.347248 -0.141214 
535 1 -194.117 -311.152 -302.953 0.903599 0.209921 0.103279 0.358853 
536 3 -182.334 -322.395 -272.028 0.895579 0.224239 0.136973 0.359016 
541 2 -205.428 -302.558 -239.396 -0.407781 0.112258 -0.426332 0.799596 
542 2 -199.492 -307.794 -233.365 -0.799734 -0.295941 -0.43705 0.286063 
543 2 -194.403 -315.036 -229.03 -0.696926 -0.635663 -0.0231125 -0.331199 
544 2 -189.854 -323.587 -227.321 -0.300222 -0.367273 0.596783 -0.647169 
545 2 -188.108 -333.352 -227.313 0.264609 0.171536 0.795647 -0.517207 
2276 2 209.272 -102.008 -355.436 0.0325885 0.0763689 0.993536 0.0774131 
2275 2 211.712 -104.205 -346.099 -0.03487 -0.780218 0.597312 0.182379 
2274 2 211.441 -104.062 -336.155 0.00662549 -0.989354 -0.139565 -0.040699 
2255 2 195.149 -167.852 -261.885 0.252039 0.593551 -0.341491 -0.683782 
2256 2 185.635 -165.333 -261.357 0.723712 0.0325087 -0.616497 -0.308408 
2257 2 176.725 -162.157 -258.714 0.739381 -0.417679 -0.387026 0.359264 
2258 2 168.28 -158.2 -255.305 0.221714 -0.51647 0.183715 0.806443 
2259 2 160.712 -153.243 -251.377 -0.46533 -0.198171 0.589352 0.629969 
2260 2 152.854 -147.629 -249.575 -0.777776 0.466207 0.387783 0.165346 
2261 2 148.328 -139.306 -246.828 -0.582558 0.542098 -0.121961 -0.593197 
2264 3 189.491 -118.997 -262.686 -0.28078 -0.180097 -0.892965 0.302227 
2262 2 143.233 -131.788 -242.726 0.101119 0.241854 -0.477257 -0.838753 
2254 2 204.262 -171.403 -263.59 -0.418877 0.612424 0.114522 -0.660579 
2263 1 174.568 -96.5553 -240.459 -0.334598 -0.205487 -0.86819 0.303424 
2253 2 213.981 -172.966 -264.091 -0.698496 0.280037 0.62736 -0.200255 
2266 2 213.534 -79.3028 -262.262 -0.0174726 -0.562157 -0.802008 0.201139 
2265 2 213.822 -74.0757 -253.88 0.0795773 0.336521 -0.9014 0.260575 
2252 2 223.835 -173.212 -264.801 -0.616095 -0.363271 0.59431 0.367773 
2267 2 212.396 -82.7098 -271.403 -0.188672 -0.975933 -0.0702405 0.0838041 
2273 2 210.696 -103.576 -326.269 -0.050162 -0.459352 -0.886551 -0.0225092 
2268 2 211.099 -86.0601 -280.571 -0.229063 -0.652819 0.718816 -0.068276 
2272 2 210.349 -102.867 -316.36 -0.014059 0.445896 -0.894873 0.0134984 
2271 2 209.719 -99.1063 -307.168 0.166513 0.961164 -0.20792 0.0721513 
2269 2 209.429 -90.0057 -289.536 -0.0090706 0.0116019 0.967767 -0.251415 
2270 2 209.069 -94.7585 -298.278 0.181637 0.698182 0.687259 -0.0850012 
2251 2 233.464 -174.022 -266.935 -0.0075049 -0.637188 0.0759365 0.766921 
2250 2 242.95 -174.612 -269.502 0.6501 -0.362497 -0.502831 0.439462 
2235 2 248.342 -83.459 -322.596 -0.209252 0.897765 -0.321367 -0.21669 
2249 2 251.783 -176.045 -273.69 0.820642 0.0367697 -0.54215 -0.176827 
2233 2 250.564 -92.2279 -305.213 -0.0225616 0.333007 0.911907 0.238793 
2234 2 250.709 -88.1421 -314.161 -0.271065 0.886709 0.372841 -0.035497 
2238 2 319.47 -137.723 -343.477 -0.880523 -0.353156 -0.00730407 0.316081 
2232 2 250.647 -96.4434 -296.304 0.197351 -0.587078 0.75781 0.20522 
2231 2 252.738 -100.177 -287.403 0.224605 -0.966667 -0.0743836 0.0978493 
2230 2 256.295 -104.155 -279.027 0.27815 -0.478505 -0.828867 -0.0815127 
2229 2 258.996 -110.151 -271.571 -0.00232249 0.323961 -0.880833 -0.34522 
2228 2 260.933 -116.685 -264.436 -0.317309 0.878468 -0.304512 -0.186766 
2227 2 265.136 -121.976 -257.073 -0.344356 0.778285 0.525063 0.00011093 
2226 2 268.718 -127.492 -249.634 -0.206917 0.0235385 0.933918 0.290566 
2225 2 271.631 -135.07 -243.854 0.195267 -0.615684 0.637157 0.420518 
2224 2 274.942 -142.173 -237.903 0.40993 -0.895689 -0.0387256 0.167923 
2248 2 259.873 -176.123 -279.478 0.409251 0.387477 -0.224326 -0.795017 
2247 2 267.59 -174.703 -285.44 -0.344036 0.383629 0.282963 -0.80895 
2239 2 317.002 -144.575 -336.664 -0.738324 -0.229847 0.439661 -0.456888 
2240 2 312.793 -151.73 -331.252 -0.210783 0.189619 0.369247 -0.885026 
2246 2 275.296 -171.97 -290.996 -0.821953 0.0521778 0.458998 -0.333155 
2245 2 282.817 -169.752 -296.936 -0.765592 -0.315644 0.339588 0.446001 
2244 2 288.736 -166.683 -304.154 -0.170525 -0.323878 -0.111784 0.923866 
2241 2 308.034 -157.37 -324.657 0.542801 0.351813 -0.00898684 -0.762571 
2243 2 296.081 -164.12 -310.323 0.646826 -0.199516 -0.415126 0.607848 
2242 2 302.401 -161.203 -317.422 0.93883 0.168066 -0.300229 -0.0146698 
2236 1 285.54 -104.928 -342.105 0.233596 0.170794 0.24314 -0.925821 
2237 3 279.049 -124.483 -313.744 0.264221 0.174327 0.234703 -0.919082 
2223 2 279.416 -149.967 -233.789 0.490294 -0.470542 -0.709467 -0.186703 
2222 2 283.339 -157.614 -228.815 0.0530409 0.321203 -0.803039 -0.499142 
2221 2 286.748 -165.212 -223.525 -0.386906 0.844041 -0.211636 -0.305137 
2220 2 292.035 -172.277 -219.02 -0.516068 0.656185 0.550312 0.0158505 
2343 2 266.19 -61.3 -300.214 0.110405 -0.181103 0.558407 -0.801994 
2219 2 298.619 -177.047 -213.324 -0.338185 -0.0722351 0.887752 0.303823 
2218 2 304.401 -184.104 -209.562 0.142702 -0.667348 0.502944 0.530406 
2297 2 231.689 -56.0964 -356.727 -0.0154859 -0.779506 0.422466 -0.462226 
2296 2 224.924 -51.2206 -351.467 -0.360512 -0.846789 -0.270483 -0.282523 
2295 2 219.142 -43.3814 -349.278 -0.541974 -0.281621 -0.716793 0.336395 
2294 2 211.739 -36.9444 -347.78 -0.0980315 0.498623 -0.562684 0.652037 
2373 2 216.731 49.4942 -336.414 0.23038 -0.223453 -0.500213 -0.804226 
2293 2 205.91 -28.9909 -347.726 0.552956 0.720439 -0.0395288 0.416707 
2292 2 201.465 -20.3402 -349.277 0.710431 0.456635 0.468044 -0.260207 
2374 2 218.073 58.7001 -332.936 0.754066 -0.548095 -0.0786984 -0.353247 
2375 2 220.114 67.4981 -328.981 0.718304 -0.435538 0.340342 0.422508 
2376 2 221.193 76.5447 -325.036 0.237294 0.0949174 0.530753 0.808074 
2377 2 225.34 84.4757 -320.889 -0.405246 0.584361 0.201319 0.673624 
2378 2 231.582 91.8339 -318.576 -0.680276 0.596268 -0.414109 0.101006 
2372 3 245.494 85.223 -360.647 0.440271 0.0280393 0.471383 0.763658 
2342 2 262.404 -52.8726 -303.758 -0.542984 -0.519492 0.228236 -0.619036 
2332 2 269.333 15.0732 -359.912 0.823608 0.111292 -0.117133 0.543657 
2333 2 268.327 12.3218 -350.424 -0.00372182 -0.0759441 -0.18985 0.978865 
2334 2 267.443 8.76422 -341.243 -0.726472 -0.315615 -0.070029 0.6064 
2335 2 264.842 3.13806 -333.647 -0.904275 -0.298664 0.241532 -0.186408 
2358 2 289.587 75.4519 -320.32 -0.393434 0.898249 -0.133132 -0.143649 
2336 2 261.699 -3.17449 -326.638 -0.361693 0.0187155 0.467999 -0.806105 
2357 2 289.305 66.9639 -315.363 -0.342622 0.629786 0.596014 0.361591 
2337 2 257.932 -9.96229 -320.546 0.389405 0.434502 0.323165 -0.745074 
2356 2 290.967 58.865 -310.067 0.0385254 -0.207226 0.867724 0.450141 
2355 2 292.441 50.2371 -305.497 0.424304 -0.745893 0.413222 0.304724 
2354 2 294.485 41.8148 -300.661 0.512083 -0.791907 -0.325806 -0.0671165 
2338 2 253.815 -17.8954 -316.178 0.812733 0.561717 -0.115086 -0.10341 
2353 2 298.675 33.8644 -296.384 0.308199 -0.113292 -0.841164 -0.429675 
2345 3 293.809 -17.4879 -296.874 -0.406125 0.271706 0.748834 0.447757 
2339 2 251.487 -26.7594 -312.332 0.306389 0.373416 -0.431177 0.762084 
2340 2 254.365 -35.4167 -308.601 -0.430822 -0.141244 -0.591457 0.666799 
2341 2 257.873 -44.3659 -306.02 -0.77161 -0.551971 -0.307568 0.0731245 
2344 1 308.859 -47.0862 -285.874 -0.382438 0.19373 0.792534 0.433705 
2352 2 305.944 27.8897 -293.469 -0.0235545 0.638761 -0.494659 -0.588848 
2351 2 313.959 22.8371 -290.504 -0.433264 0.77141 0.208119 -0.417008 
2350 2 320.949 16.4919 -287.549 -0.562217 0.311109 0.739098 0.20213 
2349 2 327.839 10.3493 -283.89 -0.201725 -0.387788 0.737876 0.514263 
2348 2 333.107 2.53549 -281.232 0.393073 -0.806014 0.131724 0.422474 
2347 2 337.957 -6.03616 -279.839 0.634926 -0.618746 -0.456631 -0.074231 
2346 2 342.429 -14.7586 -278.687 0.296318 0.00468356 -0.740193 -0.603563 
2359 2 288.754 82.7029 -327.145 -0.164814 0.568884 -0.727142 -0.347089 
2360 2 287.696 89.2697 -334.421 0.0927833 -0.220902 -0.9232 -0.300493 
2361 2 287.856 94.5523 -342.753 0.283424 -0.886344 -0.346831 -0.117357 
2379 2 238.602 98.7632 -318.554 -0.527625 0.13536 -0.647271 -0.533226 
2380 2 244.08 106.958 -317.774 0.0856931 -0.480892 -0.451928 -0.746432 
2381 2 250.431 114.521 -316.547 0.517183 -0.671636 0.0894771 -0.522897 
2363 2 288.121 102.724 -360.575 -0.155785 -0.170869 0.971802 0.0462175 
2406 2 256.975 185.267 -326.989 -0.907257 -0.0712224 -0.0816752 -0.406375 
2405 2 255.835 188.611 -336.138 -0.893312 -0.14842 -0.132848 0.402885 
2404 2 257.045 192.025 -345.387 -0.288515 -0.0823244 -0.103398 0.948309 
2382 2 258.35 120.215 -315.115 0.743953 -0.290559 0.601513 0.017091 
2407 2 258.448 184.591 -317.191 -0.247029 -0.00415959 -0.0845467 -0.965304 
2403 2 259.078 195.603 -354.378 0.523575 0.0135149 -0.180704 0.832486 
2408 2 258.44 186.407 -307.483 0.608404 -0.158625 -0.0350197 -0.776824 
2362 2 287.402 99.9695 -351.066 0.172655 -0.83368 0.524368 0.0143775 
2409 2 260.02 189.17 -298.102 0.954743 -0.222745 0.181762 0.0762393 
2383 2 266.865 125.053 -313.714 0.400973 0.273345 0.618649 0.617881 
2398 1 311.369 224.911 -352.729 0.594422 0.0937357 -0.404622 0.688591 
2410 2 263.828 193.816 -290.226 0.553137 -0.00340337 0.366131 0.748316 
2411 2 267.632 199.036 -282.67 -0.289317 0.339073 0.301284 0.842943 
2384 2 275.351 130.005 -313.173 -0.287474 0.586116 0.13596 0.745213 
2397 2 338.623 230.169 -314.583 0.227833 0.0616241 0.843022 0.483331 
2396 2 334.585 222.376 -310.017 0.510272 -0.607875 0.590721 0.14546 
2399 3 298.066 201.665 -330.166 0.587367 0.102175 -0.405796 0.692741 
2385 2 282.896 135.633 -310.109 -0.827528 0.481283 -0.234244 0.169394 
2387 2 294.119 150.565 -304.124 -0.0050064 -0.476387 -0.424977 -0.769691 
2386 2 288.823 142.531 -306.297 -0.588141 0.171347 -0.598392 -0.51639 
2388 2 301.298 157.205 -302.979 0.583185 -0.610695 0.143749 -0.516027 
2389 2 309.132 162.795 -300.581 0.749411 -0.357955 0.536866 0.148417 
2390 2 315.538 170.107 -298.627 0.275891 0.139911 0.641719 0.701788 
2391 2 320.866 178.327 -297.585 -0.422363 0.567308 0.335674 0.622168 
2416 2 294.688 220.034 -250.567 0.895663 -0.103494 0.410749 -0.13551 
2417 2 301.762 220.624 -243.585 0.735687 0.0934778 0.3154 0.592071 
2415 2 286.346 219.945 -255.929 0.413959 -0.454613 0.237424 -0.75206 
2414 2 279.727 217.058 -262.756 -0.320045 -0.282712 -0.247477 -0.869713 
2413 2 274.69 212.137 -269.756 -0.815264 0.0956777 -0.360446 -0.443023 
2412 2 271.759 205.566 -276.611 -0.855489 0.389923 -0.0312429 0.339296 
2392 2 325.529 186.943 -296.199 -0.621344 0.739536 -0.20527 0.15774 
2393 2 330.3 195.329 -298.407 -0.379366 0.429397 -0.723671 -0.384707 
2394 2 332.483 204.127 -302.498 0.145714 -0.262935 -0.787734 -0.537687 
2395 2 332.925 213.179 -306.702 0.515308 -0.783533 -0.209141 -0.277117 
2418 2 307.453 222.531 -235.684 -0.0269201 0.377371 0.0341573 0.92504 
2419 2 314.216 223.193 -228.498 -0.599914 0.402848 -0.303915 0.620849 
2420 2 322.49 223.952 -223.222 -0.810033 -0.0604748 -0.575488 -0.0948865 
2421 2 331.866 224.214 -219.901 -0.411981 -0.531266 -0.377954 -0.636537 
2422 2 341.663 224.541 -218.13 0.372251 -0.642772 0.196866 -0.639935 
2423 2 351.338 226.726 -217.192 0.724796 -0.199343 0.653084 -0.0917262 
2424 2 361.06 228.541 -216.365 0.519688 0.411254 0.537286 0.521649 
2425 1 371.629 248.077 -257.971 -0.659007 0.293026 0.650972 -0.236815 
2426 3 336.595 247.939 -257.979 -0.659779 0.277581 0.632848 -0.295202 
2443 2 236.694 312.992 -222.498 0.506716 0.140059 -0.470304 -0.708828 
2442 2 243.231 307.471 -227.513 -0.260525 0.452316 -0.197802 -0.829706 
2444 2 230.149 317.871 -217.09 0.921808 -0.101175 -0.364461 -0.084862 
2445 2 223.279 320.451 -210.446 0.571842 -0.45246 -0.197129 0.655298 
2441 2 249.809 303.228 -233.607 -0.831474 0.356665 0.233949 -0.355962 
2440 2 257.485 299.656 -238.868 -0.787481 -0.0382989 0.490106 0.371756 
2439 2 263.83 295.553 -245.233 -0.133571 -0.324884 0.25432 0.901072 
2429 2 341.439 268.593 -294.915 0.428364 0.378564 -0.567129 -0.592923 
2430 2 332.284 272.097 -293.8 0.792257 -0.0882494 -0.602639 -0.0369793 
2431 2 322.806 273.477 -291.277 0.559511 -0.356882 -0.257617 0.702294 
2427 2 360.664 267.961 -299.35 -0.592514 0.381105 0.504379 -0.499286 
2428 2 351.031 267.129 -296.984 -0.0561129 0.626274 -0.0642072 -0.774926 
2432 2 314.653 273.436 -285.763 -0.278107 -0.430044 0.200121 0.835267 
2433 2 306.729 274.406 -279.981 -0.826118 -0.069065 0.398495 0.392379 
2434 2 299.892 276.516 -273.029 -0.806483 0.336663 0.258333 -0.411713 
2435 2 292.894 279.612 -266.805 -0.183079 0.472833 -0.120826 -0.853412 
2436 2 285.184 282.836 -261.468 0.552036 0.143375 -0.46191 -0.679219 
2437 2 277.999 286.637 -255.726 0.869473 -0.273897 -0.409124 0.0401804 