ITEM: TIMESTEP
10000000
ITEM: NUMBER OF ATOMS
4067
ITEM: BOX BOUNDS pp pp pp
-4.6310929470000001e+03 4.6704658980000004e+03
-4.6310929470000001e+03 4.6704658980000004e+03
-4.6310929470000001e+03 4.6704658980000004e+03
ITEM: ATOMS id type x y z c_q[1] c_q[2] c_q[3] c_q[4] 
2371 1 -88.1032 -404.894 -528.054 0.705402 -0.534894 0.341777 0.315411 
2375 2 -125.139 -368.835 -543.039 -0.0821317 -0.154148 -0.688111 -0.70427 
2374 2 -128.325 -377.894 -540.89 -0.557922 0.471549 -0.600561 -0.325102 
2372 3 -84.1467 -370.557 -522.316 0.708311 -0.549149 0.327971 0.298607 
2373 2 -130.653 -387.195 -538.086 -0.554332 0.794071 0.101478 0.227751 
2370 2 -43.1655 -401.457 -514.299 0.475576 0.876005 -0.056415 0.0571006 
2376 2 -122.221 -359.388 -543.527 0.482137 -0.654926 -0.266067 -0.517518 
2343 2 -78.3075 -334.803 -591.458 0.31842 0.750631 0.568416 0.109836 
2342 2 -83.3733 -331.259 -583.64 0.293964 0.10329 0.935318 -0.167621 
2341 2 -90.726 -328.454 -577.572 0.147522 -0.67913 0.585773 -0.417002 
2340 2 -98.3025 -324.694 -572.562 -0.271939 -0.861019 -0.119351 -0.412857 
2339 2 -105.455 -318.928 -568.556 -0.558199 -0.506242 -0.657367 -0.000176171 
2338 2 -110.059 -310.48 -566.164 -0.238473 0.0925828 -0.788413 0.559431 
2337 2 -114.146 -301.54 -564.809 0.343285 0.653215 -0.399891 0.543648 
2345 3 -75.0683 -284.712 -578.181 0.898523 -0.011024 -0.329678 -0.289562 
2352 2 -72.4377 -249.989 -552.065 -0.943611 -0.283796 0.0551147 0.161312 
2353 2 -74.6901 -255.404 -544.096 -0.626989 -0.195771 0.370699 -0.656613 
2354 2 -76.6867 -262.105 -537.16 0.141663 0.0973423 0.39476 -0.902564 
2355 2 -77.2386 -269.358 -530.486 0.716605 0.379098 0.303742 -0.500503 
2336 2 -117.391 -292.195 -564.156 0.686483 0.692399 0.221039 -0.021598 
2335 2 -119.898 -282.607 -563.135 0.389984 0.274122 0.723162 -0.499806 
2380 2 -98.8461 -327.955 -546.375 -0.556013 0.732626 -0.275972 0.279193 
2381 2 -91.829 -321.438 -548.874 -0.545136 0.203528 -0.771614 -0.256934 
2382 2 -84.4655 -315.374 -551.339 -0.156784 -0.540612 -0.570733 -0.597847 
2334 2 -119.91 -272.65 -563.801 -0.340434 -0.306095 0.590127 -0.664952 
2383 2 -76.603 -309.748 -553.47 0.443988 -0.789034 0.0986736 -0.412994 
2384 2 -69.3662 -303.378 -555.902 0.520825 -0.511485 0.677721 0.088428 
2333 2 -120.689 -262.885 -561.897 -0.647267 -0.755414 0.0395016 -0.0939909 
2385 2 -63.2565 -297.021 -560.369 0.370836 0.224157 0.783667 0.445084 
2332 2 -119.739 -254.237 -557.086 -0.306694 -0.585024 -0.644067 0.385829 
2331 2 -116.749 -246.02 -552.499 0.227679 0.067124 -0.85415 0.462692 
2330 2 -115.708 -236.84 -548.933 0.500271 0.719006 -0.430796 0.217197 
2329 2 -114.567 -227.587 -545.638 0.545468 0.778894 0.235187 -0.201187 
2379 2 -105.673 -335.076 -545.081 -0.231877 0.654032 0.363919 0.62132 
2378 2 -111.918 -342.737 -544.079 0.383073 0.0833817 0.738602 0.548425 
2328 2 -115.565 -219.216 -540.52 0.276544 0.362693 0.792563 -0.404748 
2327 2 -116.601 -211.785 -534.136 -0.103111 -0.347607 0.838723 -0.406302 
2356 2 -76.7163 -278.091 -525.76 0.812325 0.540255 -0.0326154 0.21723 
2377 2 -118.181 -350.29 -543.863 0.70001 -0.519146 0.490344 -0.00604455 
2357 2 -74.0598 -286.796 -521.895 0.290985 0.416694 -0.395288 0.765141 
2407 2 -60.8815 -227.594 -555.574 0.821163 0.311257 0.449351 0.163992 
2406 2 -67.8487 -223.457 -561.335 0.694723 -0.0923145 0.454442 -0.549836 
2405 2 -73.2373 -218.355 -567.843 -0.141479 -0.316107 0.250279 -0.904113 
2351 2 -68.7666 -245.908 -560.376 -0.394125 -0.285632 -0.0977876 0.868054 
2404 2 -78.6531 -215.534 -575.723 -0.790579 -0.295289 -0.161649 -0.511526 
2358 2 -70.4798 -295.437 -518.697 -0.319665 -0.142113 -0.546988 0.760541 
2350 2 -63.7949 -242.844 -568.321 0.516452 -0.147857 -0.269909 0.799103 
2403 2 -81.5708 -214.217 -585.099 -0.937208 -0.0274806 -0.129642 0.322613 
2400 2 -89.2233 -210.155 -613.343 0.988253 0.0496822 0.143348 -0.0184046 
2349 2 -58.2096 -242.694 -576.576 0.953746 -0.00982942 -0.2693 0.133231 
2402 2 -83.1 -213.366 -594.812 -0.308012 0.075118 -0.0912077 0.944016 
2401 2 -86.51 -211.574 -603.89 0.582971 0.201063 0.020676 0.786951 
2359 2 -69.1254 -304.677 -515.28 -0.755342 -0.508247 -0.386476 0.14758 
2386 2 -55.4937 -291.804 -563.612 -0.108586 0.6879 0.366247 0.617143 
2344 1 -55.3698 -295.859 -604.936 0.900612 -0.0483264 -0.317011 -0.293371 
2348 2 -53.6488 -244.581 -585.127 0.672219 0.123916 -0.246562 -0.687003 
2408 2 -52.6349 -231.354 -551.668 0.357741 0.545633 -0.0131022 0.757717 
2398 1 -46.1693 -218.441 -630.75 0.880658 0.20884 -0.0637135 0.420438 
2347 2 -49.3957 -247.822 -593.512 -0.144391 0.260389 -0.125166 -0.946405 
2399 3 -45.637 -235.133 -600.005 0.885528 0.203738 -0.0834931 0.409096 
2387 2 -47.7525 -286.036 -565.703 -0.559738 0.663643 -0.315835 0.382778 
2388 2 -39.9031 -280.089 -566.962 -0.471371 0.122787 -0.853844 -0.18353 
2346 2 -44.5498 -250.008 -601.811 -0.793374 0.254765 0.131005 -0.537112 
2409 2 -45.0557 -235.539 -546.866 -0.421685 0.317904 -0.335711 0.780011 
2410 2 -37.1996 -238.536 -541.583 -0.840178 -0.225284 -0.490493 0.0525828 
2389 2 -32.7078 -275.362 -571.824 -0.162331 -0.614794 -0.660166 -0.399822 
2390 2 -25.4561 -271.891 -577.619 0.203439 -0.911539 0.0755902 -0.34928 
2411 2 -29.1881 -242.349 -537.139 -0.477876 -0.455539 -0.215073 -0.719627 
2412 2 -20.8737 -244.192 -531.947 0.308697 -0.500616 0.238739 -0.772718 
2391 2 -18.8368 -268.89 -584.367 0.378205 -0.547866 0.746183 -0.00389213 
2392 2 -13.0182 -265.573 -591.667 0.168897 0.167533 0.897118 0.372272 
2396 2 -1.9674 -243.217 -621.762 0.268772 -0.701264 -0.624704 -0.213859 
2393 2 -8.75599 -260.168 -598.716 -0.142766 0.811173 0.472214 0.314053 
2394 2 -5.21377 -254.755 -606.275 -0.319341 0.861522 -0.393242 0.034103 
2395 2 -2.10469 -249.593 -614.113 -0.0527473 0.105919 -0.934552 -0.335577 
2424 2 74.3864 -283.427 -543.148 -0.40383 -0.314546 -0.856924 0.0605248 
2423 2 68.2655 -279.356 -536.713 -0.204323 0.473804 -0.776906 0.360803 
2422 2 63.3364 -275.01 -529.288 0.147724 0.91853 -0.210115 0.300552 
2425 1 49.2843 -273.677 -581.865 -0.872937 0.363363 0.159202 -0.283908 
2426 3 32.8433 -255.535 -556.845 -0.869381 0.394024 0.160843 -0.251102 
2397 2 -2.70185 -236.71 -629.135 0.326673 -0.929094 0.146627 0.0925687 
2427 2 14.2126 -252.431 -605.206 0.490954 -0.219511 0.396461 0.744041 
2428 2 15.0575 -244.428 -599.407 -0.277313 0.105136 0.424912 0.855274 
2429 2 14.3458 -236.815 -593.13 -0.829593 0.442224 0.131231 0.314629 
2430 2 14.4723 -228.729 -587.296 -0.830238 0.306717 -0.204174 -0.418262 
2421 2 57.7064 -271.012 -522.136 0.374667 0.716148 0.580046 0.101508 
2420 2 49.5205 -268.161 -517.3 0.496484 0.0238081 0.850356 -0.172719 
2413 2 -11.6835 -244.703 -528.383 0.76888 0.0416481 0.532441 -0.351561 
2431 2 15.2843 -221.812 -580.354 -0.143077 0.0325266 -0.329334 -0.932743 
2432 2 16.2042 -215.269 -572.978 0.586413 -0.406048 -0.160728 -0.68221 
2414 2 -3.69941 -248.762 -524.275 0.721789 0.501955 0.225007 0.420041 
2415 2 3.58042 -253.67 -519.705 0.0756961 0.541098 -0.262407 0.795378 
2452 1 95.5266 -215.269 -573.876 0.852441 -0.428449 0.0727384 0.290662 
2416 2 11.8534 -258.272 -516.981 -0.630604 0.176975 -0.603959 0.45415 
2419 2 39.9977 -266.999 -514.987 0.290751 -0.646149 0.460385 -0.534791 
2417 2 20.7284 -262.293 -515.171 -0.711897 -0.335919 -0.590225 -0.178874 
2418 2 30.2574 -264.9 -514.365 -0.279323 -0.700614 -0.146537 -0.640035 
2451 2 129.759 -218.65 -541.615 -0.37415 -0.613765 -0.625298 0.303821 
2450 2 129.049 -210.375 -536.25 0.0276321 0.102798 -0.87167 0.478393 
2326 2 -119.507 -205.501 -527.128 -0.311087 -0.879983 0.254867 -0.25278 
2325 2 -122.268 -201.68 -518.482 -0.259397 -0.83372 -0.487412 -0.00736479 
2433 2 19.7225 -208.509 -566.809 0.908314 -0.355841 0.218554 0.0240295 
2434 2 23.8111 -202.058 -560.519 0.47517 -0.0730786 0.508758 0.71417 
2281 2 -42.9199 -153.036 -528.312 -0.245123 -0.76187 -0.596807 -0.0573602 
2282 2 -38.8433 -156.087 -536.741 -0.23748 -0.937014 0.118902 -0.226871 
2283 2 -35.5579 -161 -544.689 -0.149384 -0.553964 0.805087 -0.150474 
2292 2 -30.0686 -70.8444 -577.934 0.940704 0.239058 0.13742 0.197592 
2293 2 -27.0605 -74.1823 -569.151 0.518621 0.212142 -0.0569934 0.826305 
2294 2 -23.7418 -77.4388 -560.43 -0.357925 0.0452477 -0.274246 0.891421 
2295 2 -20.707 -81.1824 -551.763 -0.873162 -0.283381 -0.222087 0.328574 
2284 2 -36.1075 -165.025 -553.659 0.0108458 0.298115 0.953345 -0.0462975 
2296 2 -18.7472 -87.5 -544.346 -0.796553 -0.319405 0.0909705 -0.505181 
2435 2 27.6439 -194.539 -555.471 -0.138714 0.390432 0.292303 0.861905 
2285 2 -35.6714 -166.281 -563.415 -0.00275913 0.861145 0.508254 0.00997525 
2436 2 33.6459 -188.613 -550.439 -0.76596 0.36738 -0.15331 0.50481 
2437 2 39.6883 -184.771 -543.44 -0.812638 0.0673429 -0.423744 -0.394366 
2438 2 46.0679 -180.657 -537.097 -0.198919 -0.243262 -0.350302 -0.882351 
2439 2 51.7886 -175.28 -531.026 0.438802 -0.503301 0.0402461 -0.743318 
2286 2 -35.6955 -166.112 -573.326 -0.101155 0.899204 -0.424427 -0.0325773 
2290 1 -35.5878 -112.112 -600.207 0.967667 0.0354946 0.129297 -0.213641 
2291 3 -28.8334 -121.679 -567.261 0.973166 0.0705002 0.110873 -0.188904 
2297 2 -16.8666 -93.5661 -536.647 -0.102194 -0.111191 0.316716 -0.936421 
2287 2 -36.1957 -164.085 -582.962 -0.0634164 0.30487 -0.940513 -0.135893 
2288 2 -35.8737 -161.482 -592.599 0.0867934 -0.567024 -0.813293 -0.0974966 
2289 2 -36.1675 -159.232 -602.251 0.126955 -0.990266 -0.0569617 0.00343664 
2453 3 89.8947 -187.399 -553.342 0.822961 -0.480507 0.0521712 0.298541 
2454 2 59.5092 -193.27 -594.996 0.51498 -0.263393 0.498866 0.645409 
2455 2 61.6742 -184.312 -591.338 -0.241368 0.155359 0.473124 0.832922 
2456 2 62.5437 -175.388 -587.084 -0.725862 0.533579 0.161129 0.403057 
2457 2 64.7085 -166.381 -583.447 -0.785608 0.470344 -0.220889 -0.335864 
2458 2 65.0233 -157.929 -578.218 -0.231355 0.00375958 -0.434251 -0.870567 
2459 2 66.8923 -150.49 -571.915 0.576475 -0.32577 -0.266237 -0.700478 
2460 2 68.3536 -143.19 -565.355 0.922206 -0.381272 0.0625525 0.0159899 
2461 2 69.4154 -136.596 -558.02 0.507197 -0.220838 0.398726 0.731436 
2462 2 70.1847 -128.779 -552.056 -0.264271 0.206612 0.398324 0.853704 
2463 2 71.7758 -120.724 -546.535 -0.862517 0.34887 0.0699412 0.359807 
2464 2 73.4556 -114.166 -539.227 -0.836198 0.199376 -0.292342 -0.418997 
2298 2 -15.2822 -99.5426 -528.984 0.696692 0.222805 0.254774 -0.63251 
2299 2 -14.3337 -106.046 -521.562 0.882959 0.427346 -0.154847 0.117394 
2465 2 76.9392 -108.434 -531.907 -0.198253 0.0641076 -0.291539 -0.933591 
2466 2 76.9335 -102.734 -523.828 0.570016 -0.208397 -0.241194 -0.757283 
2300 2 -15.6836 -114.252 -516.3 0.432217 0.116051 -0.555266 0.701 
2280 2 -47.1091 -149.536 -519.978 -0.237877 -0.0968945 -0.95727 0.13289 
2440 2 59.7237 -171.665 -526.288 0.824699 -0.257971 0.470528 -0.178678 
2441 2 68.4225 -169.056 -522.295 0.728439 0.335277 0.431052 0.413715 
2442 2 77.5447 -170.529 -518.724 0.0644412 0.521992 0.0241863 0.850168 
2443 2 86.4745 -170.812 -514.453 -0.518746 0.267474 -0.537388 0.608748 
2467 2 77.7534 -96.8667 -515.871 0.906581 -0.418811 -0.034859 -0.0386473 
2449 2 125.654 -203.659 -529.9 0.181614 0.753065 -0.51224 0.370837 
2448 2 121.354 -197.917 -523.113 0.377229 0.874055 0.284086 0.114106 
2447 2 117.796 -190.469 -517.786 0.329434 0.316644 0.821606 -0.340843 
1963 2 12.1934 -757.148 -419.305 0.384347 -0.593296 0.695123 0.130697 
1964 2 15.8532 -750.938 -426.052 0.0587578 0.124157 0.922945 0.35959 
1965 2 17.5236 -744.293 -433.239 -0.220587 0.718319 0.586167 0.302931 
1966 1 -1.34315 -706.332 -412.649 -0.934767 -0.345881 -0.0702178 -0.0405858 
1962 2 10.2361 -764.556 -412.972 0.375665 -0.911405 -0.095595 -0.138125 
1961 2 8.07942 -769.064 -404.423 0.0406415 -0.507751 -0.81654 -0.27166 
1960 2 6.39441 -771.447 -395.005 -0.125557 0.316819 -0.936631 -0.0811372 
1959 2 6.09271 -774.334 -385.594 -0.146462 0.934771 -0.322239 -0.0302168 
1958 2 4.25039 -777.471 -376.372 -0.0880856 0.794992 0.571248 0.184131 
1957 2 2.47248 -780.51 -367.166 0.0939492 -0.0219889 0.983836 0.150851 
1967 3 3.35114 -728.383 -385.822 -0.943386 -0.313459 -0.0612651 -0.089515 
1968 2 -16.4124 -681.461 -375.486 -0.619339 -0.419595 0.0965925 -0.656529 
1969 2 -12.4959 -688.124 -369.427 0.197112 -0.0827188 0.319521 -0.923153 
1970 2 -8.87607 -693.749 -362.187 0.8361 -0.0175644 0.479869 -0.265242 
2369 2 -43.7449 -393.522 -508.394 0.335107 0.597891 0.652429 -0.323367 
2368 2 -43.9331 -384.845 -503.605 -0.0701547 -0.119324 0.84847 -0.510821 
2367 2 -45.3922 -375.565 -500.264 -0.485997 -0.776711 0.303868 -0.261135 
2366 2 -46.272 -365.858 -498.313 -0.581499 -0.693647 -0.358891 0.227838 
2360 2 -65.1208 -313.518 -513.385 -0.586186 -0.519371 0.204552 -0.587196 
2361 2 -61.7413 -321.947 -509.593 0.00315352 -0.136713 0.502841 -0.853493 
2317 1 -84.4854 -236.812 -462.284 -0.1246 0.574142 -0.793974 -0.156335 
2362 2 -59.5901 -330.499 -504.874 0.657902 0.376961 0.396403 -0.517619 
2318 3 -84.3627 -221.775 -493.919 -0.143934 0.593553 -0.771922 -0.176391 
2363 2 -58.0844 -339.497 -501.042 0.715997 0.673289 0.0337975 0.181351 
2364 2 -54.7638 -348.624 -499.17 0.271466 0.597441 -0.35983 0.663244 
2365 2 -48.6328 -356.267 -498.998 -0.234563 -0.064762 -0.666976 0.704222 
2316 2 -49.0957 -258.696 -484.561 -0.900807 -0.376702 -0.0328688 0.21345 
2311 2 -40.2265 -217.291 -506.34 -0.0842169 0.0174879 0.660985 -0.745453 
2195 2 63.4446 -356.713 -366.698 0.0680617 -0.672902 0.668507 0.309305 
2196 2 61.1674 -351.421 -374.8 -0.0858809 0.0912689 0.941678 0.31231 
2197 2 59.9392 -345.36 -382.484 -0.307883 0.789896 0.510145 0.144995 
2313 2 -44.1468 -236.469 -503.588 0.846569 0.464518 -0.214965 0.146059 
2315 2 -48.0371 -251.678 -491.565 -0.345226 -0.199104 -0.32192 0.858804 
2314 2 -46.2866 -244.759 -498.397 0.485041 0.12237 -0.37091 0.782424 
2209 1 21.5603 -303.501 -482.909 0.858841 -0.0871307 0.121462 0.489947 
2211 2 -19.6898 -292.153 -463.037 0.945539 -0.257675 0.0869423 -0.178886 
2212 2 -15.9767 -287.462 -455.144 0.691474 -0.0705938 0.388014 0.605248 
2213 2 -11.2272 -282.328 -448.14 -0.127663 0.244768 0.387712 0.879472 
2207 2 69.0124 -310.919 -472.353 0.039237 -0.679607 -0.732522 -0.00246365 
2210 3 30.4762 -295.474 -450.025 0.883458 -0.0271345 0.136706 0.447299 
2206 2 70.1008 -312.205 -462.512 0.0116189 0.280581 -0.957938 -0.0591064 
2201 2 59.8188 -326.012 -416.45 0.0999296 -0.980948 -0.0636169 -0.153972 
2202 2 62.3677 -322.925 -425.481 0.200025 -0.651744 0.730396 0.0417425 
2203 2 65.1061 -319.863 -434.519 0.137463 0.175994 0.96232 0.155143 
2204 2 68.3846 -316.779 -443.31 -0.0682299 0.880125 0.460048 0.0952946 
2205 2 69.617 -314.616 -452.887 -0.112771 0.878534 -0.463267 -0.029055 
2214 2 -7.59869 -275.183 -442.248 -0.721959 0.497226 0.0342212 0.479969 
2215 2 -2.94352 -268.074 -437.225 -0.817377 0.225975 -0.486766 -0.209497 
2216 2 4.17402 -262.257 -433.656 -0.38936 -0.206613 -0.532338 -0.722721 
2217 2 11.064 -256.217 -430.024 0.377629 -0.489862 -0.137074 -0.77372 
2218 2 18.0455 -250.85 -425.587 0.837139 -0.477925 0.197221 -0.178578 
2219 2 23.5466 -244.078 -420.919 0.67634 -0.0519467 0.583091 0.447069 
2220 2 30.685 -238.2 -417.463 0.0274334 0.350745 0.482432 0.802175 
2221 2 36.8412 -230.889 -414.903 -0.58738 0.690403 0.112281 0.407089 
2208 2 68.1906 -310.785 -482.223 0.0202523 -0.991345 0.124367 0.0368392 
2312 2 -40.9529 -227.133 -505.261 0.525284 0.577043 0.295841 -0.550977 
2200 2 58.0764 -329.139 -407.159 0.0396773 -0.553797 -0.813076 -0.175049 
2199 2 57.9254 -334.254 -398.663 -0.0610802 0.310276 -0.922842 -0.219911 
2198 2 59.2763 -339.431 -390.316 -0.246827 0.922531 -0.266276 -0.130805 
2222 2 41.4084 -222.211 -414.099 -0.706112 0.449124 -0.49305 -0.237896 
2223 2 46.0238 -213.526 -413.253 -0.27955 0.0765042 -0.737604 -0.609868 
2319 2 -120.69 -206.573 -460.038 0.14134 -0.981121 0.130405 0.0204867 
2324 2 -122.3 -200.715 -508.6 -0.0212931 -0.0895111 -0.995533 0.0211768 
2323 2 -122.906 -199.687 -498.808 0.045268 0.828657 -0.555216 0.0548985 
2322 2 -122.126 -200.612 -489.008 -0.0549739 0.96609 0.247124 -0.050766 
2320 2 -120.82 -203.774 -469.567 0.016168 -0.539107 0.841774 0.0227954 
2321 2 -120.833 -202.094 -479.298 -0.107086 0.333731 0.934946 0.0550621 
2262 2 -124.157 -172.039 -367.131 0.653759 0.139908 -0.456862 -0.586772 
2261 2 -116.321 -175.385 -372.137 -0.0938483 0.481557 -0.153322 -0.857781 
2260 2 -108.549 -178.604 -377.325 -0.73666 0.410963 0.239923 -0.480497 
2259 2 -102.149 -181.149 -384.296 -0.867291 -0.0119207 0.386018 0.314093 
2258 2 -93.7418 -182.978 -389.306 -0.374038 -0.410496 0.322413 0.766576 
2263 1 -126.257 -127.064 -381.131 0.369475 -0.212792 0.863322 -0.269969 
2265 2 -112.096 -90.0566 -406.767 -0.0635051 0.657248 -0.611 0.436659 
2266 2 -105.689 -93.9032 -413.277 -0.425593 -0.0943666 -0.869644 0.2317 
2264 3 -100.208 -140.193 -400.56 0.347358 -0.144919 0.873859 -0.307753 
2267 2 -98.6483 -98.8411 -418.23 -0.437568 -0.76705 -0.440461 -0.16175 
2268 2 -92.3689 -103.866 -423.907 -0.116583 -0.84502 0.247657 -0.459365 
2257 2 -85.5983 -183.742 -394.878 0.351159 -0.428217 -0.142313 0.820405 
2269 2 -85.1017 -108.12 -429.2 0.150454 -0.258081 0.835281 -0.461588 
2270 2 -79.7761 -114.431 -434.556 0.363393 0.517586 0.7725 -0.0574037 
2271 2 -75.5286 -119.819 -441.727 0.229974 0.943087 0.126962 0.20391 
2272 2 -71.6462 -123.165 -450.21 -0.076584 0.636036 -0.72243 0.26017 
2616 2 -77.6607 -164.003 -384.515 -0.417855 0.0404988 -0.689156 -0.59061 
2617 2 -72.2807 -155.739 -384.138 0.236744 -0.488275 -0.460025 -0.702792 
2256 2 -79.1945 -184.758 -402.282 0.893712 -0.141527 -0.315303 0.286065 
2273 2 -67.2356 -125.668 -458.738 -0.255515 -0.116287 -0.938556 0.200751 
2618 2 -67.6195 -146.956 -383.006 0.736757 -0.632983 0.169547 -0.166657 
2274 2 -63.3575 -129.82 -466.827 -0.234389 -0.804784 -0.544187 -0.0352997 
2619 2 -62.688 -138.439 -381.753 0.527236 -0.314835 0.629286 0.476341 
2275 2 -60.3724 -133.866 -475.35 -0.1207 -0.952525 0.25992 -0.102809 
2255 2 -71.7901 -187.92 -407.983 0.66867 0.15264 -0.456678 -0.566592 
2620 2 -59.2386 -129.232 -380.647 -0.0718719 0.264051 0.527072 0.804554 
2508 2 -64.5692 -90.1669 -455.043 -0.618223 -0.378322 -0.554652 -0.408699 
2276 2 -59.0202 -136.711 -484.758 -0.0128216 -0.323684 0.930455 -0.171223 
2254 2 -63.6116 -190.444 -412.981 0.0315371 0.495733 -0.152276 -0.854439 
2277 2 -57.1151 -139.908 -493.963 0.210132 0.520769 0.825006 -0.0633267 
2621 2 -55.8563 -120.437 -377.846 -0.762275 0.497678 0.151504 0.385098 
2509 2 -54.7992 -90.3787 -453.684 -0.058453 -0.689933 -0.107218 -0.713499 
2301 2 -18.6376 -123.136 -513.083 -0.302952 -0.287539 -0.562612 0.713449 
2302 2 -19.6761 -132.85 -511.624 -0.758821 -0.625356 0.00158134 0.181985 
2310 2 -40.3696 -207.382 -506.76 -0.553821 -0.545935 0.421867 -0.466117 
2278 2 -54.3875 -143.413 -502.778 0.161896 0.960517 0.142784 0.175528 
2279 2 -50.1833 -146.057 -511.275 0.0210622 0.682302 -0.69681 0.220174 
2307 2 -36.1445 -178.443 -504.366 0.34411 0.333952 -0.685603 0.547734 
2303 2 -21.8756 -142.159 -509.165 -0.638368 -0.33694 0.581192 -0.375732 
2309 2 -38.8588 -197.676 -507.764 -0.712814 -0.665991 -0.055381 0.212803 
2308 2 -38.1046 -187.924 -506.341 -0.234197 -0.344722 -0.652855 0.632534 
2304 2 -26.5858 -150.716 -507.67 -0.0740679 0.157431 0.581334 -0.794846 
2468 2 77.8232 -89.3936 -509.487 0.626936 -0.277563 0.391551 0.613675 
2444 2 95.2528 -174.195 -511.239 -0.741941 -0.375025 -0.553468 -0.0505376 
2238 2 36.7447 -149.963 -505.756 -0.948839 0.142984 0.17657 -0.21928 
2306 2 -32.9607 -169.051 -503.43 0.686527 0.672689 -0.27268 0.0426168 
2305 2 -30.0202 -159.761 -505.409 0.588695 0.544847 0.258853 -0.538122 
2469 2 79.0584 -80.9131 -504.469 -0.189563 0.0314267 0.432491 0.880925 
2224 2 49.1539 -204.22 -414.234 0.226386 -0.655256 -0.514665 -0.504489 
2225 2 54.0133 -196.421 -417.762 0.570067 -0.752651 0.283575 -0.167706 
2226 2 58.8272 -188.138 -420.483 0.533192 -0.177458 0.740725 0.368158 
2239 2 32.9194 -147.99 -496.824 -0.317425 0.161308 -0.0037468 -0.934456 
2470 2 78.168 -73.2942 -498.223 -0.785901 0.361532 0.197163 0.461282 
2494 2 26.7247 -66.6626 -500.179 0.63568 -0.650863 -0.362923 0.201433 
2227 2 65.3134 -180.897 -421.959 0.124936 0.459651 0.595325 0.647071 
2228 2 72.6899 -174.442 -423.398 -0.410434 0.709934 -0.0374523 0.571083 
2493 2 31.2943 -74.4378 -496.075 0.400123 -0.225247 -0.789339 -0.407566 
2240 2 29.8637 -147.403 -487.414 0.607226 0.251118 -0.0328154 -0.753087 
2241 2 25.2078 -149.656 -478.951 0.97687 0.0793602 -0.196692 -0.0272003 
2242 2 21.3557 -151.379 -470.025 0.675405 0.0295288 -0.248524 0.69368 
2253 2 -53.7642 -190.65 -413.93 -0.488095 0.520615 0.431505 -0.551839 
2252 2 -43.9084 -189.823 -414.362 -0.717013 0.0147182 0.691563 -0.0861196 
2251 2 -35.0638 -187.016 -418.065 -0.632144 -0.45755 0.29794 0.549795 
2250 2 -27.1531 -182.529 -421.656 -0.0988799 -0.489117 -0.255438 0.828093 
2249 2 -20.2437 -176.448 -425.21 0.493747 -0.10694 -0.54572 0.668556 
2248 2 -13.5416 -170.566 -429.308 0.836513 0.356886 -0.413986 0.038655 
2247 2 -5.40031 -166.476 -433.216 0.533965 0.547483 -0.1086 -0.635098 
2246 2 2.81201 -164.618 -438.46 -0.220247 0.443562 0.19349 -0.846939 
2245 2 9.5765 -161.168 -444.904 -0.814092 0.0134483 0.410489 -0.410576 
2244 2 14.8601 -157.4 -452.361 -0.867737 -0.286786 0.156142 0.374708 
2243 2 18.6688 -154.312 -460.95 -0.147463 -0.223437 -0.134391 0.954081 
2560 1 33.3099 -156.055 -403.336 -0.594827 0.454274 0.324732 0.578242 
2488 2 54.4592 -111.664 -474.363 0.377793 -0.85917 0.0952944 0.331689 
2489 2 49.5923 -104.909 -479.7 -0.0803016 -0.379887 0.697638 0.602112 
2487 2 60.1499 -117.752 -469.07 0.490767 -0.544594 -0.670333 -0.114967 
2486 2 65.2404 -123.792 -463.148 0.129495 0.350713 -0.825907 -0.422029 
2565 2 84.814 -126.197 -398.165 -0.859857 0.401727 -0.0564232 -0.309965 
2490 2 43.5866 -97.776 -482.875 -0.463041 0.465948 0.717123 0.232853 
2564 2 81.1634 -131.246 -405.941 -0.718202 0.350018 0.0099216 0.601311 
2491 2 38.648 -90.5809 -487.441 -0.484833 0.825525 -0.00635222 -0.288799 
2563 2 78.8888 -138.841 -411.982 -0.0149642 0.13278 0.416398 0.89931 
2492 2 34.6169 -82.5001 -491.442 -0.148549 0.5755 -0.66201 -0.456591 
2562 2 77.0862 -146.389 -418.103 0.70125 -0.270229 0.354497 0.556379 
2485 2 70.274 -128.206 -455.923 -0.14057 0.902458 -0.253671 -0.318528 
2511 2 -35.4898 -86.3696 -453.169 0.760291 -0.076049 0.626775 0.152736 
2510 2 -44.986 -89.0643 -453.834 0.531416 -0.567732 0.380928 -0.500172 
2484 2 75.3955 -131.65 -448.192 -0.318904 0.758331 0.552025 -0.136026 
2512 2 -26.5444 -82.5323 -451.331 0.315224 0.378155 0.484064 0.723405 
2513 2 -18.0114 -78.1254 -449.012 -0.296572 0.695229 0.0362569 0.653749 
2483 2 80.802 -132.457 -439.955 -0.270915 0.0367435 0.961495 0.0279689 
2480 3 73.7215 -87.1049 -438.757 0.0877715 -0.846249 -0.117119 0.512291 
2471 2 77.7848 -66.0027 -491.595 -0.904684 0.248357 -0.200119 -0.282522 
2514 2 -9.1695 -73.6405 -448.583 -0.707061 0.467084 -0.51473 0.130191 
2237 3 65.5119 -151.049 -462.505 0.751657 -0.125344 -0.222903 0.607959 
2515 2 -0.655115 -68.5915 -448.076 -0.580932 -0.203255 -0.634708 -0.467281 
2482 2 87.1508 -132.248 -432.393 -0.211896 -0.682496 0.655432 0.244352 
2481 2 92.423 -133.164 -424.122 0.0780331 -0.946951 -0.112891 0.290604 
2516 2 8.46102 -65.0337 -446.972 -0.0167933 -0.540474 -0.257857 -0.800697 
2229 2 80.8881 -168.899 -423.851 -0.534204 0.566948 -0.62307 0.0705678 
2561 3 39.9103 -124.755 -389.068 -0.591763 0.468532 0.261348 0.601657 
2559 2 -5.38121 -147.459 -377.658 -0.402615 -0.562158 -0.503089 0.518441 
2558 2 -3.7693 -137.809 -376.067 0.10013 -0.0125571 -0.772715 0.62668 
2557 2 -3.32675 -128.663 -372.202 0.45409 0.674541 -0.487497 0.318029 
2556 2 -0.465412 -119.705 -369.197 0.531243 0.808543 0.125363 -0.219824 
2555 2 3.71543 -111.129 -366.628 0.0704738 0.389406 0.683325 -0.613566 
2554 2 9.79798 -103.478 -365.124 -0.56323 -0.252588 0.697679 -0.363614 
2552 2 20.3498 -86.881 -365.382 -0.310656 -0.599905 -0.374119 0.635328 
2551 2 24.8614 -78.4706 -367.924 0.321441 -0.0650583 -0.626881 0.706727 
2550 2 29.7831 -69.8722 -368.617 0.7071 0.507211 -0.464597 0.164002 
2566 2 83.6897 -119.059 -391.347 -0.230329 0.212029 -0.271639 -0.910057 
2553 2 15.1404 -95.2826 -365.638 -0.702165 -0.656841 0.250927 0.11207 
2567 2 81.0511 -113.473 -383.575 0.619068 -0.0890648 -0.267114 -0.733125 
2472 2 79.3964 -60.3984 -483.687 -0.285794 -0.00204368 -0.268065 -0.920032 
2568 2 78.5585 -108.689 -375.214 0.930226 -0.322242 -0.106841 0.139375 
2517 2 17.195 -61.4667 -444.01 0.628176 -0.558706 0.219561 -0.49501 
2236 1 82.0827 -147.352 -492.993 0.778554 -0.123459 -0.25196 0.561363 
2569 2 75.6355 -103.073 -367.634 0.374814 -0.390886 0.0335474 0.839999 
2614 1 -38.8211 -188.585 -373.851 -0.775896 0.507464 -0.252319 -0.277131 
2622 2 -54.5671 -111.398 -373.816 -0.771803 0.368082 -0.259949 -0.448623 
2623 2 -53.7971 -103.302 -368.245 -0.211931 -0.0752302 -0.537961 -0.812419 
2549 2 33.484 -60.745 -369.397 0.612033 0.641278 0.140968 -0.440802 
2230 2 88.0946 -163.773 -428.243 -0.398777 -0.215573 -0.824247 -0.339296 
2624 2 -51.0115 -94.915 -363.91 0.565837 -0.398072 -0.31502 -0.649715 
2495 2 20.0673 -59.3533 -500.883 0.338582 -0.610518 0.29601 0.651926 
2231 2 95.9852 -160.582 -433.332 0.0361281 -0.751782 -0.429249 -0.499264 
2446 2 111.958 -183.96 -513.209 0.0793398 -0.431155 0.728714 -0.526106 
2445 2 104.083 -178.66 -510.336 -0.345857 -0.786619 0.0248316 -0.510879 
2479 1 104.402 -87.5483 -422.115 0.0526649 -0.870045 -0.0895718 0.481898 
2232 2 103.163 -156.004 -438.344 0.299338 -0.891295 0.2062 -0.271056 
2233 2 108.943 -151.678 -445.093 0.294765 -0.433629 0.849482 0.0588153 
2234 2 113.277 -147.876 -453.042 0.0589202 0.476824 0.824209 0.299746 
2235 2 116.828 -143.755 -461.314 -0.181056 0.936929 0.160656 0.252135 
2506 1 -73.6984 -50.1447 -478.303 0.32372 0.633381 0.252522 0.655947 
2645 2 -70.374 16.6418 -370.341 0.979485 0.158827 -0.0792897 0.0953759 
2644 2 -67.3711 19.9247 -379.167 0.676556 0.23139 0.0427427 -0.697785 
2643 2 -66.457 26.2634 -386.65 -0.126095 0.0271655 0.353562 -0.926475 
2505 2 -61.1755 -10.4488 -500.508 -0.407025 0.610786 0.166453 -0.658456 
2518 2 25.448 -56.4513 -441.335 0.823513 -0.0665074 0.549849 0.122759 
2519 2 34.1011 -54.1042 -437.368 0.465517 0.471943 0.370233 0.650762 
2473 2 81.6557 -55.5801 -475.263 0.485784 -0.245316 -0.0909525 -0.834003 
2474 2 84.8667 -51.4264 -466.868 0.959726 -0.184859 0.0795307 -0.196031 
2475 2 87.3119 -47.8994 -457.946 0.752731 0.0083052 0.15847 0.638917 
2498 2 -0.672155 -38.3913 -500.832 -0.472211 0.804932 0.085864 -0.348896 
2501 2 -23.8281 -21.0278 -506.893 0.541461 -0.559263 -0.493617 0.387799 
2500 2 -15.2079 -25.6399 -505.062 0.530762 0.0158067 -0.767789 -0.358528 
2502 2 -33.3664 -18.5415 -506.812 -0.0988696 -0.622202 0.212609 0.746919 
2499 2 -7.54316 -31.819 -503.677 -0.00838422 0.552297 -0.48068 -0.681061 
2497 2 7.04493 -44.6119 -499.775 -0.643199 0.417809 0.633693 0.100816 
2496 2 13.8988 -51.6385 -500.448 -0.305605 -0.231115 0.65152 0.654762 
2503 2 -42.8725 -16.0056 -505.237 -0.671287 -0.168532 0.567549 0.445936 
2504 2 -51.9125 -13.3971 -502.377 -0.766795 0.311194 0.531844 -0.179795 
2507 3 -38.6734 -50.7277 -476.558 0.345605 0.585159 0.238013 0.693899 
2548 2 37.8403 -51.8425 -369.321 -0.00847864 0.27428 0.650979 -0.70776 
2520 2 43.423 -53.5058 -434.258 -0.308388 0.508613 -0.0207611 0.803604 
2522 2 60.6185 -46.7764 -427.449 -0.727495 -0.108466 -0.580191 -0.349807 
2521 2 51.7464 -50.2616 -430.098 -0.729978 0.421698 -0.439056 0.310697 
2641 1 -19.862 31.3892 -381.258 0.747717 0.164628 -0.336635 0.548173 
2523 2 69.6103 -44.5586 -423.942 -0.199923 -0.424136 -0.26213 -0.843461 
2524 2 77.7356 -42.1429 -418.82 0.447493 -0.489741 0.135222 -0.735948 
2525 2 86.4453 -40.0518 -414.636 0.873474 -0.137983 0.461778 -0.0690256 
2545 2 49.1341 -24.7239 -368.819 -0.318101 -0.598561 -0.452561 0.579418 
2546 2 44.9632 -33.6271 -370.125 -0.678017 -0.726685 0.101589 0.0436068 
2547 2 42.216 -43.1068 -370.873 -0.583329 -0.227924 0.603828 -0.493122 
2476 2 90.2212 -46.4342 -448.636 -0.00708893 0.219243 0.0733425 0.972884 
2477 2 94.394 -45.0791 -439.759 -0.73676 0.258045 -0.0278545 0.624357 
2544 2 53.2458 -15.9746 -366.571 0.246297 0.0375748 -0.767544 0.590594 
2526 2 94.6756 -38.136 -409.309 0.564879 0.358537 0.455675 0.587131 
2543 2 56.062 -7.0618 -363.254 0.574903 0.705442 -0.388974 0.143307 
2478 2 97.8251 -41.7133 -431.137 -0.948784 0.149668 -0.234894 -0.149107 
2527 2 103.922 -36.6965 -406.085 -0.0362244 0.542154 0.0369291 0.838685 
2534 3 102.452 1.4129 -377.076 -0.685599 -0.388429 0.614819 0.0327823 
2528 2 112.649 -35.7507 -401.515 -0.680293 0.320488 -0.33278 0.568987 
2532 2 145.622 -26.4782 -383.96 0.770255 -0.326162 0.544948 -0.0579335 
2531 2 136.805 -30.5368 -385.873 0.423397 -0.628485 0.0702979 -0.648691 
2530 2 128.78 -34.1839 -390.478 -0.35872 -0.355771 -0.43352 -0.746195 
2529 2 120.456 -35.8567 -395.543 -0.823037 -1.2488e-05 -0.524359 -0.218304 
2533 1 133.18 17.8409 -373.474 -0.6843 -0.305363 0.660686 0.0445152 
2535 2 101.851 51.7591 -363.88 0.591431 0.542753 0.00729569 -0.596301 
4041 2 -169.567 937.274 -392.667 -0.368136 -0.704251 -0.432707 0.425759 
4042 2 -172.454 928.519 -396.15 -0.678846 -0.67574 0.257071 -0.128291 
4040 2 -166.72 945.158 -387.442 0.155973 -0.0243127 -0.873137 0.461209 
4039 2 -163.639 952.317 -381.227 0.402129 0.683844 -0.600935 0.0975996 
4044 2 -176.312 909.634 -400.171 0.255564 0.527201 0.606777 -0.537185 
4043 2 -173.674 918.784 -397.427 -0.287883 -0.18179 0.775007 -0.53239 
4038 2 -159.224 957.562 -374.178 0.246301 0.897444 0.187775 -0.314118 
4037 2 -154.925 963.809 -367.795 -0.1038 0.313967 0.844845 -0.42058 
3991 1 -83.8978 982.867 -398.531 0.37125 0.0401241 0.0853303 0.923733 
3993 2 -98.8094 940.829 -383.119 0.316125 -0.10343 0.0327617 0.942494 
3994 2 -100.227 942.408 -373.576 -0.565362 -0.0294556 0.0705681 0.821291 
3992 3 -80.4756 985.458 -363.737 0.300498 0.0604132 0.0710371 0.949213 
4036 2 -150.424 972.011 -364.548 -0.507343 -0.497151 0.653768 -0.260828 
3995 2 -101.178 943.163 -363.81 -0.985691 0.122601 -0.115163 0.0109164 
3936 2 -9.71117 984.277 -362.504 -0.479628 0.613734 0.39452 -0.487484 