ITEM: TIMESTEP
10000000
ITEM: NUMBER OF ATOMS
4067
ITEM: BOX BOUNDS pp pp pp
-4.6310929470000001e+03 4.6704658980000004e+03
-4.6310929470000001e+03 4.6704658980000004e+03
-4.6310929470000001e+03 4.6704658980000004e+03
ITEM: ATOMS id type x y z c_q[1] c_q[2] c_q[3] c_q[4] 
3621 2 -101.691 690.356 -709.231 -0.58337 0.598913 0.310393 -0.45237 
3620 2 -92.4336 687.121 -710.688 -0.760231 0.0481316 0.624427 0.172693 
3619 2 -83.1833 684.894 -713.232 -0.399049 -0.462985 0.393258 0.686843 
3618 2 -73.7653 685.06 -716.38 0.253809 -0.539228 -0.18149 0.782224 
3617 2 -64.9994 686.459 -720.766 0.767787 -0.132598 -0.517853 0.353197 
3622 2 -110.829 693.92 -708.118 -0.0781646 0.523572 -0.263203 -0.806528 
3623 2 -119.207 698.163 -704.829 0.565554 0.0558429 -0.552507 -0.609726 
3624 2 -126.286 704.289 -701.682 0.829615 -0.399001 -0.377214 0.101227 
3616 2 -56.4155 688.633 -725.168 0.750908 0.354796 -0.411259 -0.375664 
3615 2 -47.6063 689.753 -729.55 0.123148 0.511737 -0.0152865 -0.850133 
3636 2 -184.732 800.256 -704.823 -0.379024 0.414374 -0.595829 -0.574129 
3635 2 -183.142 790.789 -702.69 -0.593658 0.803744 -0.019261 -0.0345624 
3634 2 -180.728 781.538 -699.908 -0.466108 0.441438 0.645757 0.413369 
3633 2 -176.445 772.927 -697.4 -0.0650163 -0.266501 0.735294 0.619752 
3632 2 -171.722 765.004 -694.052 0.360787 -0.762013 0.290185 0.452726 
3631 2 -167.483 756.392 -691.809 0.636097 -0.696364 -0.330421 -0.035777 
3630 2 -163.214 747.55 -690.461 0.387921 -0.130354 -0.746953 -0.52401 
3659 2 -111.701 795.445 -687.912 -0.32273 -0.110823 -0.891955 -0.296613 
3658 2 -117.857 789.804 -682.697 -0.479275 0.644457 -0.591782 0.0690313 
3610 2 -92.1874 769.783 -739.046 -0.184542 -0.744123 -0.588565 -0.256547 
3614 3 -82.3188 728.172 -726.572 -0.101085 -0.396949 -0.0255149 0.9119 
3625 2 -133.188 710.275 -697.91 0.41532 -0.579384 0.0704503 0.697753 
3626 2 -140.963 716.046 -695.638 -0.308085 -0.214891 0.580835 0.722174 
3627 2 -147.827 722.735 -693.44 -0.75083 0.360408 0.497539 0.242518 
3628 2 -153.228 730.532 -690.828 -0.630203 0.696796 0.0268838 -0.341461 
3629 2 -158.68 738.765 -690.151 -0.130197 0.492105 -0.530811 -0.677584 
3657 2 -124.064 784.287 -677.169 -0.214699 0.849771 0.204623 0.435801 
3609 2 -98.7822 768.932 -731.678 -0.336064 -0.0437904 -0.936528 -0.0897677 
3611 2 -86.4407 770.16 -747.105 0.176853 -0.897282 0.264954 -0.305625 
3660 2 -105.265 799.379 -694.184 0.019393 -0.776751 -0.512901 -0.364985 
3608 2 -104.849 765.825 -724.583 -0.345816 0.729648 -0.570687 0.149473 
3607 2 -109.605 762.053 -716.816 -0.102861 0.876695 0.366772 0.293776 
3606 2 -111.786 756.811 -708.794 0.0345848 0.237538 0.921418 0.305561 
3605 2 -112.962 751.518 -700.48 0.209863 -0.626966 0.729552 0.174999 
3604 2 -113.373 746.762 -691.749 0.266862 -0.959811 -0.0683073 -0.0536903 
3603 2 -115.683 743.388 -682.692 0.0429879 -0.620797 -0.757611 -0.19695 
3602 2 -118.439 740.957 -673.552 -0.165773 0.162739 -0.967346 -0.101376 
3661 2 -99.9245 803.229 -701.619 0.276685 -0.894567 0.281772 -0.209284 
3612 2 -80.2964 771.807 -754.599 0.331517 -0.37663 0.863231 -0.0554839 
3662 2 -94.8007 807.146 -709.167 0.214316 -0.306715 0.906246 0.196754 
3663 2 -92.2879 812.182 -717.368 -0.0209402 0.473714 0.772428 0.422507 
3668 3 -129.387 834.814 -710.367 -0.887068 -0.16009 0.108791 -0.419102 
3637 2 -185.131 810.184 -705.741 0.303816 -0.179216 -0.637893 -0.684595 
3638 2 -186.209 819.95 -704.683 0.683886 -0.599467 -0.299043 -0.288984 
3639 2 -186.774 829.755 -703.635 0.636883 -0.613918 0.286244 0.368169 
3664 2 -89.5995 818.848 -724.174 -0.322544 0.905593 0.194405 0.195124 
3665 2 -87.7699 825.353 -731.519 -0.374993 0.723873 -0.557239 -0.157713 
3667 1 -129.858 848.191 -742.705 -0.895668 -0.152103 0.0909247 -0.407892 
3666 2 -85.6601 832.357 -738.159 -0.0943373 0.0103121 -0.916078 -0.38961 
3656 2 -131.699 779.319 -673.51 0.254598 0.419156 0.717507 0.494643 
3669 2 -174.526 853.195 -728.392 0.0480855 -0.0979127 -0.0374271 -0.993328 
3670 2 -172.039 854.087 -718.838 0.79125 -0.0790765 0.0959546 -0.598718 
3671 2 -170.073 854.527 -709.113 0.941956 -0.0537641 0.148259 0.29639 
3672 2 -167.199 856.548 -699.909 0.297107 0.272482 0.164024 0.900321 
3613 1 -56.8602 731.073 -750.322 -0.0946009 -0.387452 -0.00930712 0.916976 
3673 2 -161.708 858.341 -691.891 -0.459998 0.271514 -0.00150885 0.845387 
3655 2 -139.785 776.219 -668.726 0.488358 -0.268387 0.829369 0.0402659 
3674 2 -157.208 860.291 -683.391 -0.946332 0.186409 -0.15321 0.215023 
3675 2 -153.236 863.325 -674.787 -0.799473 -0.0387105 -0.175209 -0.573277 
3717 2 -91.0962 972.696 -695.831 0.508677 0.502342 0.699041 -0.0155507 
3718 2 -84.2964 967.249 -700.557 0.291048 0.891739 0.0295662 0.34528 
3719 2 -77.7449 962.452 -706.166 -0.17292 0.704786 -0.55371 0.408388 
3716 2 -98.2947 975.936 -689.785 0.351542 -0.311961 0.820884 -0.324421 
3720 2 -70.3373 960.196 -712.333 -0.424381 -0.0390252 -0.899009 0.1008 
3715 2 -104.095 976.957 -681.833 0.0947229 -0.882728 0.34914 -0.299868 
3714 2 -109.391 977.144 -673.476 -0.165676 -0.822365 -0.498812 -0.217839 
3722 3 -84.8416 939.684 -666.842 0.225147 0.528203 -0.203089 -0.793136 
3721 1 -51.6235 935.274 -676.93 0.225377 0.526611 -0.208554 -0.792711 
3476 2 -265.845 496.573 -619.032 -0.027401 0.931662 0.260211 -0.252083 
3477 2 -270.55 495.981 -627.746 0.165599 0.790266 -0.557782 -0.192185 
3478 1 -300.667 531.771 -621.415 0.885994 -0.0847143 0.437154 0.129359 
3479 3 -273.877 540.064 -600.531 0.911384 -0.0388218 0.405112 0.0612884 
3475 2 -262.944 496.44 -609.56 -0.156912 0.443078 0.879419 -0.0753805 
3474 2 -259.743 497.462 -600.188 -0.116463 -0.319876 0.940263 -0.00467309 
3473 2 -254.804 500.601 -592.095 -0.275055 -0.869255 0.36226 0.193668 
3472 2 -252.053 505.282 -583.854 -0.115051 -0.792092 -0.531153 0.277905 
3471 2 -250.271 509.976 -575.368 0.123579 0.0648413 -0.95197 0.272538 
3470 2 -249.385 516.907 -568.415 0.33157 0.758031 -0.540415 0.152977 
3469 2 -246.941 523.407 -561.345 0.406133 0.887545 0.0995772 -0.193399 
3468 2 -243.329 529.886 -554.823 0.0361583 0.491284 0.771487 -0.402667 
3467 2 -240.158 537 -548.797 -0.272037 -0.260488 0.874837 -0.304633 
3466 2 -237.934 544.183 -542.253 -0.39981 -0.837241 0.369783 -0.0493997 
3465 2 -237.686 551.628 -535.823 -0.338161 -0.722605 -0.535827 0.276367 
3464 2 -235.995 560.379 -531.523 0.163268 0.0385194 -0.840217 0.51565 
3463 2 -233.526 569.523 -528.553 0.496233 0.651937 -0.517142 0.247579 
3489 2 -231.138 585.123 -591.27 0.027481 -0.708549 -0.248917 -0.659729 
3488 2 -240.626 582.59 -589.724 -0.542161 -0.263493 -0.718031 -0.347944 
3487 2 -250.255 582.232 -587.522 -0.551374 0.367375 -0.703786 0.256334 
3486 2 -260.157 582.547 -588.375 -0.115386 0.67973 -0.115427 0.715074 
3485 2 -269.896 584.01 -589.286 0.625113 0.435668 0.500452 0.411065 
3480 2 -315.175 571.574 -600.623 -0.674485 0.483626 -0.38488 0.403787 
3481 2 -306.212 575.097 -598.524 -0.66505 -0.106994 -0.676402 -0.297895 
3482 2 -296.835 577.985 -597.423 -0.10917 -0.503337 -0.375908 -0.770343 
3484 2 -279.167 584.723 -593.014 0.825364 -0.0567932 0.537462 -0.163352 
3483 2 -288.363 582.889 -596.158 0.508304 -0.494061 0.276503 -0.648904 
3528 2 -261.642 681.231 -562.878 0.932756 0.0149742 -0.333771 0.135419 
3529 2 -268.501 680.19 -555.774 0.485841 -0.325796 -0.255586 0.769735 
3530 2 -275.706 679.2 -549.083 -0.291231 -0.438341 0.0416638 0.849297 
3531 2 -283.362 677.307 -543.14 -0.847053 -0.245914 0.359827 0.304224 
3527 2 -253.429 682.774 -568.215 0.589268 0.416866 -0.2433 -0.647913 
3526 2 -244.499 682.252 -572.496 -0.0960285 0.536369 0.0209818 -0.83824 
3525 2 -235.28 679.889 -575.302 -0.687467 0.428279 0.416001 -0.413412 
3524 2 -227.43 674.013 -576.868 -0.636337 0.0679469 0.655908 0.400304 
3533 3 -236.22 657.708 -534.933 0.119843 0.669817 0.537247 0.498345 
3490 2 -222.098 588.89 -592.466 0.531854 -0.59153 0.301698 -0.52555 
3491 2 -212.699 592.174 -592.413 0.749368 -0.099236 0.641496 0.130703 
3523 2 -219.686 668.548 -579.71 -0.0921798 -0.445029 0.369281 0.810607 
3522 2 -212.634 662.981 -583.795 0.632349 -0.538254 -0.131077 0.541513 
3462 2 -228.219 577.678 -526.547 0.465703 0.746806 0.134639 -0.455274 
3461 2 -221.002 584.396 -526.584 -0.200362 0.389104 0.609676 -0.66087 
3460 2 -213.539 590.888 -526.8 -0.677392 -0.258131 0.635986 -0.264633 
3532 1 -262.669 644.516 -516.309 0.0872235 0.673702 0.57167 0.460121 
3521 2 -206.405 657.389 -589.176 0.838975 -0.197841 -0.441146 -0.24974 
3492 2 -203.391 595.044 -590.927 0.454101 0.361241 0.511082 0.634107 
3581 2 -169.918 689.054 -663.238 0.0339767 -0.63645 -0.00701941 0.770537 
3582 2 -179.57 688.988 -660.972 -0.696305 -0.419745 0.402017 0.421135 
3507 2 -101.176 617.826 -662.915 0.742833 -0.0393788 -0.619009 -0.251946 
3580 2 -160.29 690.12 -661.257 0.470886 -0.397261 -0.681834 0.394401 
3508 2 -109.959 621.805 -660.844 0.663154 -0.547793 -0.272906 0.430896 
3509 2 -118.069 626.747 -657.902 0.0250356 -0.564908 0.278681 0.776266 
3583 2 -188.77 686.71 -657.945 -0.781192 0.0723749 0.547192 -0.291689 
3584 2 -197.808 685.206 -654.09 -0.255955 0.511507 0.293279 -0.766051 
3579 2 -151.005 691.746 -658.144 0.589667 0.238829 -0.76519 -0.0986779 
3585 2 -207.16 683.484 -651.384 0.465226 0.544666 -0.238223 -0.65586 
3520 2 -199.886 653.781 -595.638 0.340737 0.293931 -0.33081 -0.829499 
3519 2 -192.027 650.704 -600.814 -0.382209 0.466418 0.0334971 -0.797025 
3493 2 -194.228 598.105 -588.829 -0.203872 0.620316 -0.0908006 0.75193 
3494 2 -184.868 599.709 -586.12 -0.721827 0.302215 -0.537433 0.31432 
3518 2 -183.656 648.781 -605.615 -0.833777 0.261308 0.403136 -0.272057 
3495 2 -175.297 600.693 -583.703 -0.736845 -0.0612855 -0.540949 -0.400845 
3586 1 -199.429 685.503 -604.876 -0.377053 -0.309272 -0.724881 -0.486548 
3510 2 -126.603 630.963 -655.374 -0.653927 -0.141781 0.517479 0.533379 
3511 2 -134.638 635.223 -651.371 -0.80395 0.365196 0.355686 -0.306242 
3512 2 -142.446 639 -646.703 -0.280386 0.416229 -0.0530517 -0.863321 
3513 2 -149.567 641.408 -640.379 0.543779 0.281851 -0.231385 -0.755861 
3514 2 -156.253 641.826 -633.087 0.920791 -0.0352957 -0.380828 -0.0766025 
3515 2 -163.339 642.774 -626.297 0.61369 -0.332612 -0.147238 0.700767 
3516 2 -170.301 644.637 -619.465 -0.179366 -0.388838 0.178005 0.885972 
3517 2 -177.495 646.75 -613.071 -0.7851 -0.0814916 0.327265 0.519495 
3496 2 -166.374 603.517 -580.293 -0.244785 -0.487866 -0.291766 -0.785455 
3497 2 -157.268 605.344 -576.857 0.439131 -0.570729 0.238885 -0.651434 
3499 2 -137.959 609.074 -574.387 0.611103 0.395402 0.478769 0.490908 
3498 2 -147.651 606.961 -575.222 0.724824 -0.189395 0.659254 -0.064372 
3500 2 -128.342 609.181 -571.936 0.0945814 0.608322 0.169607 0.769566 
3501 2 -118.802 610.753 -570.127 -0.465069 0.650758 -0.362606 0.478269 
3505 1 -84.9861 613.284 -618.806 0.658495 -0.444438 -0.492616 0.355231 
3506 3 -118.778 621.635 -614.183 0.681387 -0.43636 -0.462384 0.362633 
3502 2 -109.34 613.127 -571.057 -0.704947 0.0805826 -0.704065 -0.0291284 
3503 2 -99.52 614.446 -571.562 -0.473416 -0.570753 -0.427986 -0.516669 
3504 2 -89.6799 613.812 -571.884 0.0532331 -0.708724 0.129104 -0.691526 
3543 2 -171.517 686.931 -518.435 0.150613 0.418863 0.729945 0.518701 
3544 2 -164.791 692.793 -522.691 -0.374966 0.809691 0.0942322 0.4415 
3588 2 -172.421 693.167 -566.92 -0.499124 0.471534 -0.696345 -0.208887 
3578 2 -142.411 693.807 -653.748 0.226528 0.820286 -0.196412 -0.487072 
3453 2 -168.195 641.84 -521.785 -0.649658 -0.295574 0.666788 -0.214416 
3587 3 -170.425 699.552 -618.45 -0.380285 -0.338097 -0.719522 -0.472611 
3454 2 -175.185 634.921 -522.208 -0.147408 0.259371 0.649631 -0.699269 
3455 2 -180.467 626.571 -522.279 0.460343 0.712295 0.185056 -0.496463 
3577 2 -134.102 697.081 -649.549 -0.138179 0.669437 0.509987 -0.522181 
3459 2 -205.946 597.124 -527.758 -0.602362 -0.648275 0.190777 0.424859 
3545 2 -158.729 699.882 -526.173 -0.701943 0.518177 -0.479777 -0.0926402 
3456 2 -185.966 618.34 -522.589 0.665763 0.532208 -0.522927 0.00785896 
3458 2 -199.614 604.535 -525.894 -0.119799 -0.592863 -0.477544 0.63727 
3457 2 -192.443 611.037 -524.058 0.453883 -0.0368093 -0.75947 0.464586 
3589 2 -167.124 700.625 -570.972 -0.152276 -0.286455 -0.781066 -0.533564 
3576 2 -126.233 701.791 -645.76 -0.464996 -0.0129582 0.843957 -0.267111 
3542 2 -177.228 679.43 -515.549 0.51324 -0.319561 0.745122 0.281531 
3561 2 -30.3028 703.946 -548.307 -0.16997 -0.632394 0.641293 0.399915 
3640 1 -214.543 833.16 -665.648 -0.728764 -0.655183 -0.0599385 -0.189857 
3642 2 -232.634 817.423 -625.005 0.793609 0.378665 0.457098 -0.133634 
3643 2 -226.522 810.113 -622.404 0.561565 0.596104 -0.00109584 0.57385 
3644 2 -219.824 803.417 -619.537 -0.174108 0.39745 -0.518297 0.736945 
3645 2 -212.774 796.607 -618.392 -0.568398 -0.260233 -0.707052 0.330575 
3575 2 -118.322 706.834 -642.552 -0.516037 -0.656744 0.496871 0.235611 
3601 2 -121.893 738.874 -664.568 -0.172606 0.856443 -0.478304 0.0890969 
3654 2 -147.58 773.274 -663.46 0.3294 -0.818536 0.306979 -0.356732 
3546 2 -153.053 707.881 -526.25 -0.279264 -0.0881257 -0.814497 -0.50084 
3574 2 -111.046 710.124 -636.622 -0.0678894 -0.874339 -0.226209 0.423972 
3641 3 -201.04 801.031 -662.885 -0.709537 -0.671403 -0.109204 -0.183986 
3566 2 -62.5164 722.552 -580.716 0.508092 -0.403594 -0.746042 0.149587 
3600 2 -126.105 739.312 -655.58 0.12219 0.888621 0.399087 0.190137 
3567 2 -70.9754 724.396 -585.453 0.204967 -0.860377 -0.157403 0.439278 
3547 2 -147.246 715.087 -529.628 0.266075 -0.625909 -0.275661 -0.679303 
3590 2 -161.595 707.871 -574.848 0.334779 -0.790555 -0.241435 -0.452389 
3653 2 -155.101 772.624 -656.961 -0.151092 -0.798498 -0.417636 -0.40639 
3568 2 -79.126 726.323 -590.639 -0.274643 -0.721084 0.578249 0.265022 
3570 2 -92.0424 724.239 -605.278 -0.058736 0.738766 0.55671 -0.375298 
3569 2 -86.3863 725.924 -597.341 -0.288454 0.121247 0.940212 -0.134514 
3652 2 -161.891 771.699 -649.822 -0.31003 -0.283196 -0.891374 -0.170685 
3573 2 -106.886 714.601 -628.945 0.153767 -0.268843 -0.916064 0.254767 
3572 2 -102.683 718.099 -620.69 0.252997 0.552654 -0.793921 0.0159864 
3599 2 -128.756 738.508 -646.068 0.128105 0.362058 0.918336 0.0957198 
3548 2 -139.834 721.692 -529.285 0.664527 -0.664336 0.287496 -0.185493 
3549 2 -133.311 729.133 -529.36 0.617598 0.0343839 0.653815 0.435794 
3571 2 -97.9395 721.214 -612.604 0.165986 0.955617 -0.0938761 -0.224569 
3651 2 -167.865 772.175 -641.957 -0.24586 0.586431 -0.728347 0.25527 
3550 2 -125.144 734.422 -527.744 0.0270883 0.483664 0.36607 0.794561 
3650 2 -175.391 773.623 -635.709 0.124873 0.905631 0.0389433 0.403389 
3598 2 -131.261 737.971 -636.546 0.140482 -0.509953 0.848572 -0.0117563 
3551 2 -117.551 740.004 -524.698 -0.677486 0.49946 -0.044115 0.538151 
3646 2 -206.339 789.271 -619.644 -0.572285 -0.695361 -0.28355 -0.329488 
3649 2 -182.446 775.553 -629.134 0.374474 0.561828 0.71361 0.186759 
3648 2 -190.78 779.291 -625.374 0.475168 -0.0922705 0.822761 -0.297936 
3647 2 -198.937 782.887 -621.084 0.0582217 -0.75579 0.401242 -0.514195 
3591 2 -155.77 714.9 -578.756 0.487727 -0.689791 0.534924 -0.0129409 
3592 2 -150.291 721.255 -584.085 0.16823 0.0589473 0.938307 0.296318 
3593 2 -146.8 726.569 -591.595 -0.0969491 0.838863 0.459898 0.274597 
3594 2 -143.052 730.104 -600.023 -0.180414 0.897507 -0.360945 0.177906 
3595 2 -138.972 732.808 -608.696 -0.245032 0.259378 -0.934078 -0.0134035 
3552 2 -111.605 746.39 -519.812 -0.843811 0.225436 -0.441264 -0.206029 
3596 2 -134.493 734.534 -617.377 -0.0212677 -0.57115 -0.808903 -0.137883 
3597 2 -132.07 736.665 -626.782 0.0771414 -0.996122 -0.0234324 -0.0352408 
3560 3 -67.6931 737.536 -535.049 0.283401 -0.755893 -0.42106 0.413543 
3697 2 -71.8943 850.577 -662.873 -0.66278 0.680924 -0.203286 -0.236095 
3696 2 -68.427 841.35 -661.713 -0.601777 0.54644 0.524359 0.253605 
3553 2 -105.588 751.803 -514.268 -0.305722 -0.286826 -0.375685 -0.826515 
3691 2 -59.8637 854.125 -570.762 0.619107 -0.11063 0.722543 -0.287052 
3690 2 -69.3963 856.664 -569.945 0.195377 -0.628665 0.409214 -0.631785 
3565 2 -55.5984 718.464 -574.984 0.278973 0.28686 -0.84281 -0.359941 
3562 2 -37.2859 707.265 -554.506 -0.378569 0.179013 0.896797 0.14281 
3563 2 -43.6892 711.515 -560.768 -0.393815 0.792112 0.443033 -0.145568 
3564 2 -49.3615 715.518 -567.882 -0.0350751 0.866802 -0.305193 -0.392786 
3692 2 -50.5229 851.124 -571.62 0.525585 0.509827 0.626323 0.2675 
3693 2 -41.1543 849.396 -574.392 0.162192 0.802733 0.0470692 0.571925 
3694 1 -47.9319 837.206 -619.431 0.706071 -0.611496 -0.283723 0.216883 
3559 1 -39.8604 735.001 -514.12 0.232551 -0.732037 -0.518667 0.375534 
3676 2 -149.837 864.987 -665.635 0.00241921 -0.163351 -0.0273856 -0.986185 
3698 2 -72.6406 860.371 -663.366 -0.296773 0.275235 -0.517066 -0.754198 
3695 3 -70.6404 863.57 -614.73 0.686094 -0.642492 -0.291395 0.177672 
3677 2 -146.185 865.238 -656.444 0.760437 -0.255156 0.0752772 -0.592422 
3678 2 -141.662 867.523 -647.972 0.953101 -0.0653506 0.23545 0.178583 
3689 2 -78.6359 859.746 -571.362 -0.385336 -0.66116 -0.180215 -0.617985 
3688 2 -86.6335 865.161 -573.704 -0.782278 -0.339863 -0.521774 0.0169083 
3687 2 -93.2937 871.3 -577.435 -0.405542 0.183807 -0.539991 0.714255 
3679 2 -137.54 869.443 -639.213 0.535642 0.0824198 0.163595 0.824337 
3680 2 -134.092 870.918 -630.003 -0.404462 0.281481 -0.0741384 0.866996 
3681 2 -128.635 871.362 -621.817 -0.908283 0.224301 -0.313993 0.161615 
3682 2 -122.508 873.578 -614.397 -0.761189 -0.036524 -0.367422 -0.53316 
3683 2 -116.421 876.67 -607.186 -0.089862 -0.272502 -0.074294 -0.955064 
3685 2 -106.495 877.421 -590.038 0.93317 0.10088 0.282074 0.198623 
3686 2 -100.609 875.938 -582.279 0.376734 0.477055 -0.0819282 0.789796 
3684 2 -111.307 877.25 -598.699 0.745756 -0.144169 0.170254 -0.627756 
3713 2 -113.97 973.963 -665.218 -0.218753 -0.0943502 -0.946908 -0.215894 
3712 2 -118.896 968.035 -658.948 -0.438711 0.686729 -0.579087 -0.0243578 
3711 2 -121.121 961.726 -651.656 -0.31945 0.902281 0.220626 0.187521 
3710 2 -121.062 954.763 -644.738 -0.0783471 0.286469 0.88739 0.352612 
3709 2 -117.712 946.914 -639.669 0.138106 -0.488751 0.698281 0.504433 
3708 2 -113.847 939.687 -634.051 0.405888 -0.887539 0.0107155 0.21775 
3707 2 -110 931.135 -630.962 0.527088 -0.546079 -0.611337 -0.224148 
3706 2 -106.044 922.073 -632.032 0.250967 0.0693417 -0.667394 -0.697705 
3705 2 -100.476 915.189 -636.399 -0.388371 0.465897 -0.233735 -0.759918 
3704 2 -94.8463 907.722 -639.373 -0.763654 0.572609 0.223054 -0.197983 
3729 2 -84.3271 964.288 -635.525 0.443338 -0.715036 -0.0492345 0.538286 
3730 2 -92.1164 970.261 -635.179 -0.164387 -0.397114 0.524052 0.735287 
3731 2 -99.4461 976.901 -634.155 -0.615223 0.0891637 0.700976 0.349547 
3732 2 -107.218 983.029 -634.394 -0.626685 0.527424 0.475703 -0.320621 
3733 2 -116.614 986.277 -634.282 -0.115378 0.607698 -0.0818147 -0.781471 
3734 2 -125.931 988.963 -632.357 0.560736 0.359426 -0.462339 -0.585346 
3735 2 -135.306 990.361 -629.287 0.819223 -0.0838151 -0.556327 0.111126 
3748 1 -149.747 930.753 -566.878 -0.363831 0.500176 0.697121 0.362592 
3749 3 -152.607 961.541 -583.313 -0.351975 0.490436 0.693363 0.39349 
3750 2 -105.353 940.246 -579.736 0.0690005 0.148662 -0.702885 -0.692164 
3751 2 -107.963 949.809 -580.206 0.636425 -0.432205 -0.478006 -0.423878 
3752 2 -110.099 959.367 -579.003 0.688685 -0.683973 0.0793582 0.227146 
3753 2 -112.019 969.025 -578.796 0.2522 -0.386851 0.560667 0.687309 
3754 2 -114.238 978.594 -577.707 -0.378419 0.232777 0.672903 0.591452 
3755 2 -116.775 988.13 -577.343 -0.680716 0.625693 0.343776 0.164169 
3756 2 -119.154 997.774 -577.752 -0.55234 0.714172 -0.192435 -0.38451 
3747 2 -195.862 940.243 -564.061 0.419252 0.0866615 0.333973 -0.83975 
3746 2 -197.382 946.697 -571.523 -0.377138 -0.210847 0.285151 -0.85557 
3745 2 -198.962 953.636 -578.393 -0.915889 -0.372922 -0.0918636 -0.116776 
3744 2 -197.702 961.08 -584.881 -0.610156 -0.319616 -0.259848 0.676782 
3743 2 -196.342 968.474 -591.339 0.140522 -0.0360645 -0.441473 0.885469 
3736 2 -144.451 990.411 -625.781 0.476554 -0.393573 -0.274635 0.736595 
3737 2 -152.956 989.93 -620.662 -0.340062 -0.498998 0.0516524 0.795418 
3742 2 -193.105 975.045 -597.957 0.831789 0.23224 -0.324303 0.386031 
3738 2 -161.502 987.961 -616.057 -0.80628 -0.322261 0.475257 0.142094 
3741 2 -187.289 980.727 -603.629 0.743188 0.426943 -0.0860662 -0.507921 
3740 2 -179.121 982.475 -608.928 -0.0428307 0.472727 0.141745 -0.868679 
3739 2 -170.173 984.554 -612.695 -0.672714 0.220709 0.502937 -0.49578 
3703 2 -88.7136 901.277 -643.542 -0.715329 0.155236 0.535502 0.42124 
3728 2 -77.9485 956.647 -635.17 0.663601 -0.462 -0.573209 -0.132744 
3702 2 -83.3342 894.185 -647.876 -0.0455427 -0.243984 0.463367 0.850699 
3727 2 -73.1696 948.36 -632.456 0.252 0.0327301 -0.778971 -0.573261 
3726 2 -67.0302 940.832 -630.457 -0.255397 0.66921 -0.383787 -0.582785 
3701 2 -78.4002 886.56 -651.843 0.652263 -0.546427 0.0987339 0.515968 
3725 2 -62.903 931.837 -630.121 -0.675834 0.70006 0.196704 -0.120299 
3700 2 -74.1975 878.606 -656.016 0.821158 -0.429972 -0.33965 -0.159568 
3699 2 -73.1671 869.513 -659.784 0.363052 -0.204967 -0.514757 -0.749137 
3757 2 -121.742 1007.23 -578.603 -0.0562195 0.166845 -0.698164 -0.693952 
3724 2 -58.0809 923.288 -631.457 -0.556698 0.206178 0.635639 0.493498 
3723 2 -52.6233 915.47 -634.152 -0.038198 -0.377863 0.50474 0.775241 
3829 1 -235.487 1048.46 -602.673 -0.727545 0.224609 -0.461467 -0.455277 
3831 2 -269.834 1067.32 -576.348 0.0611234 -0.269126 -0.700075 -0.658582 
3832 2 -266.705 1076.66 -577.055 0.524329 -0.6924 -0.239193 -0.434106 
3836 2 -244.624 1107.41 -571.131 -0.669136 0.617858 -0.241709 0.33479 
3833 2 -262.929 1085.77 -577.834 0.713862 -0.521891 0.421843 0.2002 
3835 2 -251.337 1101.42 -575.167 -0.230072 0.510306 0.219387 0.799077 
3834 2 -258.195 1094.47 -576.702 0.329834 0.238194 0.616608 0.673994 
3837 2 -237.135 1113.81 -570.08 -0.753304 0.213887 -0.521862 -0.338297 
3838 2 -230.647 1120.33 -566.377 -0.180936 -0.236368 -0.443891 -0.845194 
3839 2 -225.138 1126.75 -561.342 0.510164 -0.436883 -0.0824 -0.736258 
3830 3 -219.605 1075.2 -586.753 -0.687783 0.240459 -0.505647 -0.462012 
3840 2 -219.697 1132.11 -555.086 0.905439 -0.257783 0.336825 -0.0166183 
3841 2 -214.032 1137.26 -548.978 0.429529 0.0376273 0.42672 0.794984 
3842 2 -209.45 1143.72 -543.092 -0.366328 0.374748 0.273778 0.806482 
3843 2 -205.292 1150.77 -537.624 -0.788673 0.500409 -0.187631 0.303941 
3794 2 -196.62 1093.83 -515.465 0.570105 0.0775528 -0.375235 -0.72675 
3793 2 -192.252 1091.46 -523.932 -0.180595 0.234078 -0.0737025 -0.95245 
3758 2 -123.41 1016.97 -578.533 0.504581 -0.451796 -0.597341 -0.42949 
3759 2 -125.282 1026.56 -580.269 0.715448 -0.672431 0.0752547 0.17409 
3828 2 -190.917 1045 -617.668 -0.263568 -0.176749 0.914028 -0.252675 
3791 2 -185.294 1090.9 -542.431 -0.880823 -0.0773872 0.174747 0.433157 
3790 2 -183.002 1090.21 -552.033 -0.12211 -0.100461 0.0682288 0.985059 
3789 2 -180.155 1089.11 -561.408 0.711477 -0.128724 -0.102701 0.683142 
3788 2 -179.421 1086.63 -570.942 0.963744 -0.147532 -0.0462845 -0.217463 
3787 2 -178.368 1084.15 -580.469 0.453211 -0.0219624 -0.143075 -0.879572 
3786 2 -176.401 1079.94 -589.233 -0.378136 0.203994 -0.200902 -0.880362 
3785 2 -174.224 1078.12 -598.659 -0.959863 0.12672 0.0875524 -0.234391 
3827 2 -187.31 1050.55 -610.226 -0.354812 -0.849006 0.38453 0.0737164 
3826 2 -182.342 1053.89 -602.311 -0.0820854 -0.889359 -0.344942 0.288647 
3825 2 -178.803 1055.7 -593.254 0.141018 -0.269765 -0.939555 0.156773 
3824 2 -177.229 1058.18 -583.874 0.159958 0.656571 -0.736341 0.033617 
3784 2 -171.24 1077.72 -608.024 -0.707151 -0.0498087 0.147848 0.689636 
3760 2 -126.11 1036.36 -579.785 0.264409 -0.207794 0.601489 0.724652 
3823 2 -177.619 1061.66 -574.53 0.175784 0.972454 0.15259 0.0122325 
3822 2 -176.641 1066.37 -565.92 0.0691624 0.459792 0.850981 -0.24421 
3821 2 -173.899 1071.43 -557.884 -0.205218 -0.353529 0.89191 -0.19339 
3761 2 -125.957 1046.2 -578.415 -0.335696 0.388567 0.555136 0.65433 
3762 2 -124.761 1056.02 -578.143 -0.716945 0.668792 0.163083 0.110054 
3780 2 -168.699 1092.97 -641.598 0.217419 0.102676 0.410164 -0.879745 
3781 2 -168.316 1085.31 -635.269 0.911321 0.215079 0.111305 -0.332937 
3782 2 -167.954 1080.9 -626.422 0.81796 0.17164 -0.149817 0.528239 
3783 2 -168.486 1076.88 -617.466 0.129857 -0.133966 0.0296077 0.981995 
3820 2 -170.422 1075.3 -549.454 -0.24454 -0.93193 0.251016 0.093266 
3779 2 -170.596 1100.47 -647.619 -0.453518 -0.322279 0.302901 -0.773763 
3763 2 -126.006 1065.84 -577.991 -0.596144 0.502183 -0.389641 -0.490514 
3764 2 -126.822 1075.51 -575.837 -0.0554984 0.164532 -0.655398 -0.735053 
3776 3 -163.011 1119.16 -604.488 -0.0978251 -0.200394 0.449016 -0.86525 
3778 2 -170.934 1109.53 -651.624 -0.849827 -0.516088 0.0643226 -0.0854954 
3765 2 -128.337 1085.18 -574.757 0.609487 -0.323344 -0.526977 -0.496255 
3766 2 -131.756 1094.17 -572.468 0.692182 -0.708992 0.0217788 0.133188 
3767 2 -133.796 1103.82 -572.107 0.42469 -0.460873 0.386653 0.67656 
3768 2 -136.832 1113.09 -570.08 -0.158597 0.0504841 0.662588 0.730257 
3769 2 -138.372 1122.77 -568.494 -0.694707 0.499372 0.43372 0.28266 
3770 2 -141.532 1132.12 -567.399 -0.481128 0.727317 -0.141193 -0.468606 
3771 2 -147.065 1140.28 -568.446 0.191642 0.403133 -0.701911 -0.555048 
3772 2 -153.871 1146.99 -571.23 0.580885 -0.338896 -0.714039 -0.194603 
3773 2 -160.693 1153.79 -573.615 0.581887 -0.754431 -0.091684 0.289543 
3777 2 -170.106 1118.48 -655.884 -0.595222 -0.377622 -0.351543 0.61606 
3775 1 -172.632 1148.95 -619.942 -0.117012 -0.246025 0.43793 -0.856736 
3885 2 -124.774 1076.28 -542.104 0.91746 -0.381826 0.1044 -0.0397021 
3792 2 -188.225 1090.78 -532.936 -0.878719 0.0950767 0.185918 -0.429242 
3819 2 -169.087 1081.72 -542.024 -0.220244 -0.648442 -0.667636 0.292024 
3886 2 -122.092 1082.91 -535.098 0.544946 -0.103467 0.430371 0.712116 
3818 2 -168.24 1088.8 -535.165 0.047248 0.0724257 -0.909983 0.405528 
3887 2 -118.683 1090.05 -529.176 -0.237192 0.282363 0.366289 0.854309 
3817 2 -166.039 1096.05 -528.682 0.371586 0.729922 -0.558369 0.131762 
3888 2 -114.698 1096.96 -523.364 -0.863396 0.361923 -0.0478155 0.348243 
3844 2 -199.808 1157.74 -533.189 -0.673734 0.186532 -0.620957 -0.354544 
3816 2 -163.68 1102.19 -521.326 0.314707 0.900473 0.201738 -0.222284 
3774 2 -166.199 1161.87 -575.027 0.151154 -0.554903 0.499032 0.648229 
3883 1 -158.584 1057.8 -514.902 -0.647782 0.47282 0.270197 0.532741 
3815 2 -161.941 1108.94 -514.297 0.0679715 0.361511 0.85736 -0.360033 
3889 2 -111.659 1102.29 -515.601 -0.816436 0.27487 -0.097716 -0.498327 
3870 2 -221.882 1163.52 -514.075 -0.596517 -0.0247647 -0.438903 0.671504 
3869 2 -225.921 1168.78 -521.399 0.089979 0.302659 -0.276024 0.907806 
3863 2 -236.52 1197.26 -570.29 -0.917689 -0.0392103 -0.0271896 0.394424 
3862 2 -235.417 1198.49 -579.989 -0.247556 -0.106067 -0.0341165 0.962446 
3861 2 -233.674 1199.98 -589.625 0.590986 -0.0463653 -0.138976 0.793266 
3860 2 -229.59 1202.94 -598.153 0.958042 0.149642 -0.244466 -8.19358e-05 
3859 2 -225.018 1205.06 -606.672 0.563695 0.261806 -0.0406341 -0.782339 
3858 2 -221.033 1207.73 -615.286 -0.292151 0.14492 0.202027 -0.923488 
3864 2 -236.307 1196.66 -560.493 -0.881922 -0.20054 0.0704447 -0.420755 
3865 2 -235.614 1191.68 -551.956 -0.232624 -0.155601 0.348855 -0.894413 
3866 2 -234.455 1185.19 -544.541 0.562234 0.0839648 0.334809 -0.751496 
3867 2 -231.859 1179.48 -536.918 0.928866 0.287413 0.176795 -0.152794 
3868 2 -229.74 1173.83 -529.046 0.767009 0.332328 -0.0244109 0.548324 
3845 2 -193.193 1164.73 -531.301 -0.0555603 -0.398859 -0.510744 -0.759582 
3846 2 -186.823 1172.22 -529.979 0.614541 -0.671116 0.0108405 -0.414518 
3856 1 -182.978 1230.13 -598.443 0.585742 0.102477 -0.333605 0.731514 
3847 2 -182.001 1180.76 -529.416 0.626343 -0.555211 0.478065 0.26625 
3857 3 -193.77 1210.95 -571.191 0.580577 0.0983555 -0.316586 0.74366 
3848 2 -178.778 1190.09 -530.23 0.220494 0.108747 0.74352 0.621879 
3849 2 -174.464 1198.99 -531.241 -0.222765 0.717523 0.384939 0.536059 
3850 2 -168.054 1205.99 -534.152 -0.496825 0.790056 -0.278607 0.226615 
3851 2 -161.723 1212.43 -538.142 -0.312712 0.286107 -0.869938 -0.252116 
3852 2 -157.915 1218.68 -544.794 0.080966 -0.473932 -0.768199 -0.422732 
3853 2 -154.959 1225.43 -551.512 0.352564 -0.924897 -0.0796916 -0.117959 
3854 2 -152.42 1232.41 -558.123 0.314617 -0.597713 0.70706 0.209336 
3855 2 -150.527 1238.93 -565.338 0.0192821 0.236709 0.899181 0.36752 
114 2 395.835 -381.289 -503.143 0.662288 0.659352 -0.191297 -0.300059 
115 2 389.28 -388.703 -502.924 0.652746 0.0825296 -0.706925 0.259553 
116 2 380.846 -393.86 -503.163 0.317352 -0.360734 -0.479344 0.734431 
117 2 372.064 -398.054 -500.912 -0.361528 -0.614492 0.0293282 0.700598 
118 2 363.539 -402.259 -498.137 -0.819318 -0.254126 0.479766 0.184289 
119 2 354.927 -404.371 -493.758 -0.693047 0.211321 0.464183 -0.509473 
120 2 346.67 -405.713 -488.575 -0.0253651 0.485457 0.113803 -0.866451 
95 2 352.582 -370.068 -483.511 -0.275925 -0.365385 0.745671 0.48408 
94 2 360.298 -375.412 -480.154 0.213 -0.806862 0.197713 0.51431 
93 2 368.57 -380.171 -477.49 0.546518 -0.642428 -0.490352 0.219452 
121 2 338.14 -406.79 -483.773 0.583378 0.297284 -0.370398 -0.65886 
122 2 329.881 -406.099 -478.479 0.882166 0.00828671 -0.410451 0.230746 
123 2 322.405 -407.752 -472.206 0.411101 -0.279738 -0.24759 0.83153 
124 2 315.543 -409.473 -465.209 -0.395461 -0.320347 0.0317767 0.86022 
125 2 309.963 -411.672 -457.269 -0.894815 -0.113731 0.260666 0.344129 
126 2 304.754 -411.372 -448.806 -0.822943 0.266653 0.241901 -0.439482 
127 2 298.41 -408.484 -441.712 -0.11626 0.224675 -0.200675 -0.946432 
129 2 291.884 -399.868 -425.201 0.948684 -0.241221 -0.16512 -0.120608 
128 2 294.434 -404.719 -433.44 0.598639 -0.0491271 -0.283392 -0.747601 
130 1 321.565 -422.964 -396.78 0.140744 0.74742 0.613738 0.211849 
131 3 339.367 -420.777 -426.772 0.168213 0.716358 0.640562 0.219581 
70 2 350.903 -397.776 -417.084 0.879138 -0.464631 -0.0899635 0.0560425 
69 2 355.724 -405.574 -420.507 0.580552 -0.117778 -0.557743 -0.581387 