ITEM: TIMESTEP
10000000
ITEM: NUMBER OF ATOMS
4067
ITEM: BOX BOUNDS pp pp pp
-4.6310929470000001e+03 4.6704658980000004e+03
-4.6310929470000001e+03 4.6704658980000004e+03
-4.6310929470000001e+03 4.6704658980000004e+03
ITEM: ATOMS id type x y z c_q[1] c_q[2] c_q[3] c_q[4] 
3504 2 -348.005 1551.93 -541.874 0.556689 0.665658 -0.192877 -0.458034 
3503 2 -339.67 1557.35 -542.596 0.0378893 0.593007 0.347318 -0.725449 
3498 2 -298.097 1583.57 -543.154 0.68928 0.249082 -0.628528 0.260391 
3497 2 -290.454 1589.57 -545.223 0.68761 0.565451 -0.251275 -0.379893 
3491 2 -237.942 1603.56 -566.916 0.849953 -0.0063592 -0.520537 0.0811178 
3492 2 -246.883 1602.89 -562.703 0.493472 -0.43179 -0.311122 0.687929 
3493 2 -256.171 1602.52 -559.281 -0.214892 -0.575763 0.0748418 0.785314 
3494 2 -265.362 1600.81 -555.948 -0.791182 -0.272954 0.51036 0.197635 
3495 2 -274.397 1598.38 -552.727 -0.602246 0.116602 0.516322 -0.597591 
3496 2 -282.211 1593.77 -548.714 0.0449123 0.523636 0.234112 -0.817912 
3499 2 -305.873 1577.53 -542.431 0.263616 -0.451618 -0.506842 0.685317 
3500 2 -314.542 1572.92 -541.427 -0.350365 -0.714641 0.0183312 0.605142 
3501 2 -323.397 1568.42 -542.113 -0.690778 -0.485984 0.502046 0.185998 
3502 2 -332.259 1563.93 -542.133 -0.518178 -0.0283079 0.718128 -0.463662 
3506 3 -300.842 1530.51 -545.505 -0.235253 0.584348 0.284213 0.722784 
3505 1 -328.561 1510.36 -553.057 -0.205998 0.580451 0.247985 0.74776 
3515 2 -258.88 1539.5 -527.442 -0.54853 0.547057 -0.422869 -0.470133 
3514 2 -258.941 1530.17 -530.448 -0.808096 0.564559 0.108486 0.128395 
3513 2 -259.38 1521.11 -534.391 -0.364944 0.251236 0.512313 0.735684 
3512 2 -260.667 1512.34 -538.792 0.343038 -0.161235 0.508879 0.772897 
3511 2 -264.849 1503.7 -541.252 0.76678 -0.4773 0.373214 0.211999 
3510 2 -271.896 1497.19 -543.747 0.573696 -0.584692 0.0322112 -0.572687 
3509 2 -278.734 1490.95 -547.345 -0.0711596 -0.383862 -0.408687 -0.824961 
3508 2 -285.904 1485.97 -552.079 -0.717108 0.00150848 -0.484226 -0.501278 
3507 2 -292.168 1480.72 -557.66 -0.867593 0.347853 -0.315292 0.163925 
3490 2 -228.108 1603.57 -568.802 0.580961 0.446128 -0.470185 -0.492322 
3516 2 -259.292 1549.31 -526.402 -0.00701236 -0.00300444 -0.647845 -0.761734 
3517 2 -258.993 1559.08 -525.032 0.580507 -0.48578 -0.432895 -0.489522 
3518 2 -259.233 1568.8 -523.546 0.747828 -0.643037 0.131056 0.100404 
3489 2 -218.744 1602.21 -571.678 -0.0929681 0.597257 -0.021132 -0.796363 
3519 2 -258.969 1578.51 -521.596 0.339731 -0.280797 0.52802 0.7259 
3488 2 -210.174 1601.77 -576.612 -0.637789 0.356881 0.380117 -0.566897 
3520 2 -259.869 1587.79 -518.307 -0.397758 0.205277 0.487489 0.74967 
3463 2 -211.419 1526.25 -517.408 -0.521403 0.767533 -0.124271 0.351552 
3521 2 -260.648 1596.72 -514.2 -0.847581 0.473672 0.175982 0.162086 
3462 2 -217.028 1518.62 -514.308 -0.175827 0.642554 0.488473 0.563563 
3487 2 -201.863 1599.54 -581.534 -0.838459 -0.00854219 0.519009 0.165958 
3486 2 -193.607 1598.15 -587.128 -0.309768 -0.395705 0.265531 0.822773 
3485 2 -185.68 1599.83 -592.755 0.409642 -0.352959 -0.291171 0.789198 
3484 2 -177.144 1601.64 -597.382 0.820837 -0.0554699 -0.512323 0.246324 
3483 2 -169.649 1603.58 -603.643 0.787189 0.279052 -0.335185 -0.436021 
3479 3 -147.804 1603.45 -562.78 0.402384 -0.103166 -0.649645 0.636714 
3482 2 -161.497 1606.38 -608.406 0.0936637 0.498741 0.112282 -0.854329 
3481 2 -153.134 1611.32 -610.545 -0.578325 0.165992 0.612091 -0.513158 
3480 2 -144.929 1616.27 -613 -0.780999 -0.38929 0.466186 0.145481 
3466 2 -191.704 1548.05 -521.156 0.289037 -0.700713 -0.236846 -0.607752 
3465 2 -198.32 1540.7 -520.386 -0.232132 -0.278903 -0.70458 -0.609832 
3475 2 -129.977 1609.64 -522.545 0.521698 -0.29597 0.710714 0.367584 
3464 2 -204.781 1533.28 -519.601 -0.660754 0.333304 -0.633472 -0.225891 
3467 2 -185.026 1555.26 -522.416 0.670663 -0.541308 0.504773 -0.0490063 
3468 2 -177.03 1560.96 -522.876 0.566839 0.0890246 0.718825 0.392503 
3469 2 -168.253 1565.72 -523.274 0.0676892 0.601354 0.447326 0.658553 
3474 2 -134.224 1600.72 -522.348 0.726055 -0.658678 0.17381 -0.0936882 
3470 2 -159.927 1570.96 -523.95 -0.527935 0.705448 -0.0632944 0.468638 
3472 2 -145.719 1584.6 -522.163 -0.266163 -0.152631 -0.685586 -0.660177 
3473 2 -140.245 1592.92 -522.245 0.301528 -0.614384 -0.303931 -0.662751 
3471 2 -152.811 1577.89 -523.721 -0.735632 0.354359 -0.550585 -0.173586 
3476 2 -124.706 1617.99 -524.073 -0.0482756 0.285038 0.689568 0.664017 
3559 1 -385.942 1662.47 -574.385 -0.664541 -0.329741 -0.566716 -0.358454 
3561 2 -380.643 1672.29 -528.529 0.642556 -0.348751 0.596078 -0.331944 
3562 2 -370.776 1672.3 -528.741 0.634568 0.242476 0.676724 0.283855 
3558 2 -369.794 1651.15 -617.272 -0.343702 -0.588454 0.379784 0.625583 
3563 2 -360.892 1672.84 -528.893 0.113806 0.646663 0.324219 0.680998 
3542 2 -231.177 1640.72 -549.74 0.444251 -0.0875439 -0.883003 0.123623 
3541 2 -222.656 1641.98 -544.977 0.387669 0.617681 -0.609432 -0.311087 
3543 2 -239.492 1639.52 -554.978 0.3485 -0.762202 -0.357568 0.411996 
3544 2 -247.936 1641.48 -559.869 -0.138155 -0.822995 0.372642 0.405869 
3545 2 -255.716 1642.05 -565.817 -0.513126 -0.106548 0.808514 0.267681 
3557 2 -359.925 1650.59 -617.52 0.241292 -0.675014 -0.188222 0.671347 
3556 2 -350.681 1647.59 -615.513 0.626286 -0.349687 -0.685776 0.123275 
3555 2 -341.169 1646.26 -613.06 0.527743 0.312131 -0.707803 -0.350823 
3554 2 -332.643 1647.06 -608.078 0.162689 0.867367 -0.159176 -0.442572 
3560 3 -351.168 1662.84 -570.238 -0.655249 -0.338373 -0.57522 -0.353941 
3553 2 -324.572 1647.94 -602.345 -0.263492 0.644089 0.593379 -0.404504 
3552 2 -317.65 1648.09 -595.35 -0.366545 -0.0646517 0.928139 -0.00484105 
3551 2 -309.153 1647.71 -590.255 -0.232568 -0.731938 0.476016 0.428472 
3550 2 -300.072 1647.1 -586.556 0.202409 -0.797223 -0.212459 0.527567 
3549 2 -290.866 1646.11 -582.998 0.543933 -0.308904 -0.759888 0.176874 
3547 2 -273.061 1645.91 -574.399 0.0681689 0.833036 -0.0687654 -0.544679 
3548 2 -282.167 1645.61 -578.307 0.412957 0.455017 -0.746597 -0.25499 
3546 2 -264.428 1644.99 -569.651 -0.437778 0.556161 0.640101 -0.29884 
3573 2 -271.833 1707.03 -538.247 -0.426702 -0.289627 -0.506813 -0.690783 
3574 2 -263.264 1710.96 -535.31 0.186034 -0.537121 -0.122463 -0.81357 
3575 2 -254.865 1714.85 -531.412 0.765429 -0.417457 0.429804 -0.234771 
3572 2 -280.16 1702.19 -540.337 -0.774169 0.302799 -0.554504 -0.0387435 
3571 2 -288.791 1697.57 -541.807 -0.411752 0.656427 -0.0763166 0.627486 
3570 2 -297.245 1692.6 -541.159 0.242867 0.460344 0.549515 0.653554 
3569 2 -305.712 1687.58 -541.294 0.675033 -0.125458 0.683059 0.249043 
3568 2 -314.093 1683.5 -537.907 0.505292 -0.638427 0.513941 -0.270103 
3567 2 -323.413 1681.38 -535.222 0.0779222 -0.802576 -0.0706694 -0.587201 
3566 2 -332.632 1680.35 -531.848 -0.413654 -0.51157 -0.640709 -0.395826 
3565 2 -342.154 1679.07 -529.216 -0.596422 0.196445 -0.77183 0.0998458 
3564 2 -351.518 1675.86 -528.89 -0.428426 0.679592 -0.224213 0.551665 
3576 2 -246.29 1719.16 -528.912 0.668465 0.150969 0.609158 0.399111 
3577 2 -236.889 1721.56 -526.978 0.123827 0.573102 0.173917 0.791185 
3578 2 -227.345 1722.92 -524.689 -0.470659 0.465391 -0.435522 0.610092 
3579 2 -217.584 1721.88 -523.183 -0.826785 -0.0348172 -0.557594 0.0655948 
3540 2 -213.776 1641.28 -540.63 -0.0186405 0.848196 0.0115432 -0.529228 
3580 2 -208.373 1719.71 -520.368 -0.715646 -0.424189 -0.262485 -0.488892 
3539 2 -205.371 1642.18 -535.557 -0.373686 0.50724 0.717756 -0.296466 
3477 2 -121.332 1627.21 -524.892 -0.553134 0.694168 0.228256 0.400091 
3538 2 -197.728 1643.79 -529.355 -0.441282 -0.257146 0.859722 0.00485764 
3537 2 -190.773 1644.07 -522.297 -0.165448 -0.831219 0.401616 0.346997 
3478 1 -125.801 1629.17 -571.813 0.40968 -0.0924741 -0.629645 0.653573 
3587 3 -181.188 1731.7 -552.454 0.8221 -0.416853 -0.387684 0.00930354 
3586 1 -157.467 1708.08 -562.598 0.841292 -0.376422 -0.387305 0.0230067 
3588 2 -160.843 1736.78 -599.876 -0.316622 0.0488014 0.527995 0.786505 
3589 2 -163.503 1744.99 -595.039 -0.881478 0.399474 0.218578 0.125067 
3590 2 -166.674 1752.89 -590.013 -0.62587 0.3831 -0.189229 -0.652467 
3591 2 -169.741 1760.48 -584.371 0.0543526 0.13441 -0.410853 -0.9001 
3585 2 -168.37 1694.29 -518.782 -0.189233 0.411012 -0.666918 0.592013 
3584 2 -175.679 1700.62 -516.656 0.308247 0.768341 -0.132273 0.545105 
3592 2 -172.26 1767.47 -577.883 0.773442 -0.135858 -0.221191 -0.578277 
3581 2 -200.48 1716.23 -515.617 -0.136371 -0.614724 0.290513 -0.7205 
3582 2 -192.354 1710.74 -514.776 0.502125 -0.172875 0.63336 -0.562885 
3536 2 -183.623 1643.66 -515.431 0.199246 -0.827281 -0.403162 0.3367 
3583 2 -184.168 1705.16 -514.317 0.626761 0.504863 0.568928 0.169128 
3593 2 -174.326 1772.53 -569.598 0.943237 -0.142394 0.00495941 0.300005 
3669 2 5.74402 1770.59 -550.615 -0.489083 0.856124 -0.157607 -0.054856 
3594 2 -174.585 1774.88 -559.976 0.329734 0.109209 0.102798 0.932085 
3595 2 -171.857 1776.04 -550.555 -0.395828 0.292523 0.199389 0.847345 
3596 2 -168.585 1781.53 -543.005 -0.901916 0.314482 -0.184774 0.231315 
3597 2 -163.849 1786.58 -536.022 -0.688703 0.0886954 -0.417241 -0.586286 
3598 2 -159.669 1792.97 -529.84 -0.00178407 -0.321388 -0.42234 -0.847547 
3620 2 -88.9639 1810.15 -557.868 0.0860124 0.579721 -0.377552 -0.716924 
3621 2 -97.8734 1814.37 -558.089 0.539798 0.00273354 -0.756105 -0.370022 
3622 2 -106.101 1819.75 -559.611 0.578249 -0.589124 -0.560617 0.0653377 
3623 2 -112.986 1826.2 -562.539 0.301269 -0.838467 0.181465 0.41627 
3624 2 -118.424 1832.97 -567.331 -0.122313 -0.402788 0.772438 0.475543 
3625 2 -123.449 1839.79 -572.326 -0.456993 0.410571 0.775586 0.145104 
3626 2 -129.18 1845.74 -577.719 -0.407202 0.896703 0.0863043 -0.150538 
3627 2 -132.896 1852.67 -583.72 -0.182838 0.603319 -0.628724 -0.455283 
3628 2 -136.308 1860.25 -589.007 0.234325 -0.150919 -0.857243 -0.432955 
3629 2 -139.007 1868.29 -594.176 0.485805 -0.782223 -0.306105 -0.241702 
3630 2 -137.996 1877.15 -598.332 0.484689 -0.664816 0.546168 0.157468 
3696 2 -89.1216 1884.56 -616.97 0.899453 0.159532 0.298084 0.276912 
3631 2 -134.562 1885.18 -602.917 0.153461 0.0469116 0.812551 0.560367 
3697 2 -83.3668 1884.52 -608.945 0.378985 0.24089 0.0978469 0.888126 
3649 2 -67.3512 1912.71 -542.534 -0.378563 -0.787179 -0.0792128 -0.48038 
3614 3 -73.6179 1834.83 -525.129 -0.259044 0.561144 0.480898 -0.621892 
3619 2 -79.5195 1807.25 -556.968 -0.446472 0.664302 0.317064 -0.508759 
3632 2 -131.852 1893.93 -606.779 -0.339725 0.687285 0.401271 0.501206 
3633 2 -128.254 1902.64 -609.724 -0.584057 0.715483 -0.381403 0.0386448 
3618 2 -69.7844 1806.44 -555.652 -0.645807 0.0876613 0.755284 -0.06924 
3698 2 -78.9208 1883.99 -600.107 -0.486388 0.228678 -0.214133 0.815647 
3699 2 -73.1673 1882.66 -592.034 -0.916672 -0.0308891 -0.398373 -0.00753066 
3650 2 -59.5051 1907.07 -544.787 0.0170189 -0.458453 0.656489 -0.598794 
3634 2 -123.829 1910.9 -612.861 -0.335345 0.0957177 -0.835297 -0.425041 
3648 2 -73.6869 1920.1 -540.985 -0.631573 -0.497117 -0.588086 0.0902534 
3635 2 -119.029 1918.63 -616.643 0.0844762 -0.625794 -0.594473 -0.497842 
3599 2 -154.295 1800.12 -525.599 0.639892 -0.56928 -0.00575327 -0.516165 
3700 2 -65.4846 1882.83 -585.761 -0.560402 -0.352989 -0.365812 -0.653858 
3617 2 -60.0202 1806.48 -554.014 -0.441515 -0.534126 0.558965 0.455336 
3600 2 -148.607 1807.66 -522.669 0.851288 -0.287753 0.426527 0.102871 
3701 2 -56.6692 1883.58 -581.352 0.0779352 -0.583828 -0.0945449 -0.802578 
3601 2 -141.473 1813.33 -518.543 0.440144 0.118539 0.559034 0.692606 
3636 2 -113.375 1925.51 -621.043 0.549408 -0.777551 0.10767 -0.286309 
3647 2 -81.7044 1925.54 -538.783 -0.393232 0.214932 -0.763134 0.465618 
3602 2 -134.514 1819.32 -514.947 -0.267127 0.523531 0.193279 0.785622 
3651 2 -53.3462 1899.62 -546.951 0.562961 0.101942 0.737689 -0.358466 
3616 2 -50.14 1806.45 -553.757 0.0820483 -0.730741 -0.0548859 0.67548 
3652 2 -45.7333 1893.33 -548.378 0.76497 0.497517 0.331455 0.239657 
3653 2 -38.1704 1887.44 -545.752 0.373815 0.619208 -0.114855 0.68092 
3695 3 -48.8778 1916.64 -610.641 0.346163 0.504604 0.0269903 0.790454 
3615 2 -40.2624 1807.18 -553.613 0.562615 -0.383956 -0.617111 0.393975 
3702 2 -47.6569 1886.33 -578.29 0.768193 -0.353571 0.400017 -0.353346 
3677 2 2.48548 1840.92 -576.952 -0.171827 0.265649 -0.664538 -0.676975 
3678 2 1.19217 1850.76 -577.081 0.404848 -0.471074 -0.638672 -0.454187 
3679 2 -0.0439604 1860.4 -579.273 0.588651 -0.807503 -0.0192875 0.0325122 
3680 2 -1.26893 1869.81 -581.975 0.360309 -0.48782 0.628374 0.487191 
3681 2 -1.99389 1879.23 -584.872 -0.127483 0.214301 0.861025 0.443237 
3682 2 -2.10167 1887.39 -590.455 -0.436768 0.777068 0.362602 0.271882 
3683 2 -1.37108 1896.01 -595.198 -0.456221 0.817249 -0.309529 -0.167806 
3684 2 -1.07323 1904.27 -600.634 -0.165878 0.291069 -0.840695 -0.425434 
3685 2 -1.45392 1912.56 -606.096 0.317528 -0.405361 -0.724818 -0.457708 
3703 2 -39.3538 1888.74 -573.387 0.717799 -0.00626384 0.574422 0.393402 
3676 2 4.9391 1831.36 -577.605 -0.663758 0.686564 -0.106194 -0.277087 
3675 2 7.33637 1821.76 -577.298 -0.626631 0.533239 0.457882 0.33665 
3674 2 8.51702 1812 -577.459 -0.0731195 -0.0476847 0.696722 0.71201 
3673 2 9.30967 1803.87 -571.888 0.335023 -0.681343 0.55958 0.332267 
3654 2 -30.7299 1881.25 -543.698 -0.393876 0.325081 -0.497525 0.701179 
3655 2 -22.6888 1876.53 -540.451 -0.79722 -0.147257 -0.572631 0.121857 
3656 2 -14.4122 1872.27 -537.011 -0.566593 -0.538516 -0.197562 -0.59156 
3657 2 -5.97442 1868.07 -533.867 0.14465 -0.475754 0.317514 -0.807415 
3658 2 2.6411 1864.78 -530.362 0.740743 -0.129424 0.536159 -0.383513 
3659 2 11.3602 1862.02 -526.543 0.868738 0.301473 0.307447 0.244714 
3668 3 22.9193 1816.67 -534.027 0.437461 -0.88676 0.00733605 0.1491 
3672 2 9.02614 1795.65 -566.359 0.432098 -0.862435 -0.245333 -0.0964832 
3671 2 8.46964 1786.99 -561.566 0.170143 -0.397585 -0.764377 -0.478232 
3670 2 6.7654 1779 -555.877 -0.270186 0.370476 -0.810525 -0.364411 
3613 1 -39.8711 1844.29 -524.498 -0.247295 0.561335 0.465309 -0.63815 
3729 2 58.3328 1893.39 -564.841 -0.0484304 -0.0137412 -0.977107 -0.206706 
3730 2 59.4523 1897.25 -573.834 0.261386 -0.768684 -0.555809 -0.178545 
3731 2 58.9544 1903.54 -581.527 0.489815 -0.813268 0.284968 0.132173 
3704 2 -31.0085 1892.74 -570.038 0.1881 0.401012 0.329582 0.833777 
3732 2 59.7073 1911.74 -587.091 0.0946652 -0.287663 0.765018 0.568362 
3705 2 -23.2142 1896.9 -565.547 -0.546003 0.534865 -0.098916 0.637194 
3706 2 -15.5127 1902.02 -561.826 -0.742657 0.317309 -0.581464 -0.0983627 
3728 2 60.0412 1890.84 -555.334 -0.022626 0.79044 -0.599195 -0.125129 
3707 2 -7.59733 1907.71 -560.252 -0.231371 -0.238247 -0.665836 -0.668108 
3727 2 61.9403 1889.33 -545.77 -0.0799846 0.984821 0.108387 -0.109463 
4047 2 83.2131 1907.88 -558.202 0.365455 -0.249049 0.869132 0.221419 
3708 2 -1.14017 1915.19 -560.015 0.410789 -0.742011 -0.11216 -0.517777 
4048 2 88.5659 1913.06 -564.798 0.0386652 0.48466 0.754893 0.440165 
3726 2 62.9847 1888.77 -535.981 -0.0490422 0.613198 0.78838 -0.0063284 
3725 2 64.0579 1888.43 -526.042 -0.0747011 -0.224672 0.970972 0.0340033 
3660 2 18.0466 1858.39 -520.122 0.329306 0.42047 0.0670668 0.842772 
3709 2 5.85156 1922.18 -561.242 0.627828 -0.606435 0.482339 0.0736042 
3724 2 63.3741 1889.33 -516.2 -0.0518343 -0.877998 0.473953 -0.0424441 
4049 2 93.5803 1918.93 -570.988 -0.308552 0.918069 0.0405465 0.245565 
3733 2 57.7797 1920.56 -591.195 -0.25906 0.491416 0.717314 0.420546 
3686 2 -2.23517 1921.74 -609.613 0.559493 -0.815243 -0.131453 0.0711818 
3667 1 31.2153 1788.39 -515.123 0.479302 -0.866275 0.0303723 0.13753 
3661 2 25.5213 1856.46 -514.043 -0.338545 0.305405 -0.409406 0.790255 
4045 1 121.97 1893.03 -535.81 0.502676 -0.734828 0.428421 0.154271 
4046 3 132.16 1923.2 -550.292 0.454246 -0.732104 0.485201 0.149212 
4042 2 171.045 1914.26 -530.697 0.821352 0.465483 -0.243455 0.222342 
4043 2 168.968 1905.82 -526.049 0.322799 0.119187 -0.558799 0.754546 
4044 2 167.076 1896.64 -522.619 -0.382936 -0.33443 -0.47206 0.720191 
4041 2 173.741 1923.18 -534.241 0.69108 0.495456 0.226344 -0.475079 
4050 2 98.0664 1924.71 -577.648 -0.464367 0.537864 -0.69476 -0.111239 
3646 2 -89.0588 1931.64 -536.369 0.146399 0.712405 -0.318664 0.607865 
3645 2 -94.6605 1939.46 -534.089 0.610438 0.718511 0.314852 0.109435 
3694 1 -76.7428 1928.81 -627.874 0.350659 0.485423 0.0385191 0.799949 
3644 2 -99.0276 1948.28 -533.528 0.476323 0.252192 0.687777 -0.486291 
3641 3 -107.416 1935.47 -576.199 -0.72667 -0.662538 -0.0710031 0.167192 
3637 2 -108.004 1933.44 -623.515 0.676553 -0.461128 0.488673 0.301391 
3640 1 -101.333 1969.61 -581.507 -0.708952 -0.685189 -0.0401676 0.16214 
3638 2 -104.135 1942.52 -622.9 0.0784065 0.0798727 0.78218 0.612917 
3639 2 -101.663 1951.84 -625.159 -0.454972 0.677352 0.402493 0.414963 
3643 2 -102.823 1957.41 -533.617 -0.0183462 -0.251034 0.648756 -0.718165 
3642 2 -106.598 1966.64 -534.675 -0.576924 -0.657414 0.198091 -0.442408 
3710 2 11.042 1930.29 -563.472 0.32217 0.0844897 0.795507 0.506197 
3802 1 -36.0891 1929.23 -517.061 -0.59298 -0.105187 -0.394533 -0.694013 
3693 2 -48.1312 1966.29 -625.669 0.415637 -0.698382 -0.339515 0.473538 
3687 2 -4.84889 1930.42 -613.62 0.182643 -0.62781 0.484911 0.580825 
3734 2 57.9974 1929.17 -596.112 -0.483263 0.871456 -0.0754393 0.036466 
3688 2 -10.3424 1938.12 -616.432 -0.368132 -0.0669593 0.727411 0.575212 
3735 2 59.1893 1937.4 -601.436 -0.210301 0.475727 -0.796882 -0.307305 
3692 2 -38.8397 1963.34 -623.67 0.619171 -0.150175 -0.766874 -0.0773244 
3690 2 -22.5679 1953.3 -619.579 -0.341608 0.778776 -0.0639562 -0.522228 
3689 2 -16.0895 1946.09 -617.485 -0.625658 0.567392 0.535283 0.00948208 
3691 2 -30.1927 1959.27 -621.229 0.313545 0.43081 -0.64366 -0.549359 
3736 2 60.4579 1944.61 -607.987 0.0802933 -0.283234 -0.874087 -0.386399 
3737 2 61.3379 1951.99 -614.565 0.429742 -0.781865 -0.320172 -0.318589 
3711 2 17.373 1937.19 -566.595 -0.100217 0.639387 0.446083 0.618184 
3712 2 24.3498 1944.06 -568.218 -0.644683 0.676972 -0.157282 0.318362 
3713 2 30.2527 1951.95 -568.021 -0.608591 0.27365 -0.665544 -0.334342 
3714 2 36.6147 1959.57 -567.819 -0.105901 -0.343542 -0.438383 -0.823762 
3715 2 42.981 1966.12 -564.101 0.575394 -0.436609 0.0315471 -0.690868 
3754 2 52.214 2001.18 -547.9 -0.306002 0.453295 -0.44999 0.705971 
3753 2 43.4714 2005.75 -548.744 0.352545 0.644066 -0.0372325 0.677867 
3752 2 35.8595 2011.22 -551.942 0.799866 0.429936 0.372476 0.191391 
3751 2 28.0452 2017.13 -553.21 0.609456 0.0644033 0.669109 -0.420367 
3750 2 20.4477 2023.32 -552.465 0.0437791 -0.541592 0.511766 -0.665475 
3748 1 39.339 2045.04 -589.898 0.657269 0.725875 0.0773156 0.187417 
3749 3 52.7663 2012.82 -591.63 0.681881 0.706486 0.0832235 0.170265 
3940 2 -41.6039 2036.15 -561.511 0.604188 -0.586912 -0.159049 -0.514971 
3941 2 -37.9419 2044.85 -558.507 0.730358 -0.519855 0.321999 0.304375 
3942 2 -36.8781 2054.25 -555.604 0.296321 -0.0391659 0.62812 0.718418 
3716 2 49.5263 1970.41 -557.971 0.933943 -0.1443 0.298525 -0.133458 
3755 2 61.046 1997.02 -546.344 -0.742843 -0.0354069 -0.59492 0.304959 
3756 2 69.4869 1992.43 -543.976 -0.64503 -0.568535 -0.401893 -0.314939 
3969 2 28.5063 2064.71 -535.35 0.297909 -0.774477 -0.545259 -0.11886 
3939 2 -44.8395 2027.43 -564.819 -0.000194498 -0.149876 -0.556208 -0.817417 
3968 2 32.5721 2060.08 -527.71 0.280287 -0.0528151 -0.928668 -0.23712 
3937 1 -10.6714 2002.67 -543.755 -0.803959 0.520326 -0.195194 -0.211683 
3938 3 -7.83981 2034.33 -528.906 -0.830423 0.494112 -0.191241 -0.172274 
3943 2 -33.9234 2063.13 -552.452 -0.302345 0.523789 0.24728 0.757024 
3944 2 -27.3654 2069.98 -549.813 -0.750167 0.518211 -0.389948 0.129024 
3747 2 64.0253 2045.92 -630.106 -0.490208 0.2318 0.564186 0.622623 
3746 2 66.6593 2036.64 -632.486 0.214733 -0.341577 0.517955 0.754279 
3717 2 55.833 1972.49 -550.604 0.73122 0.129296 0.294845 0.601387 
3738 2 63.6208 1960.68 -618.947 0.629121 -0.686498 0.33272 0.149078 
3739 2 66.1166 1970.11 -620.894 0.146445 -0.264442 0.755089 0.581777 
3740 2 66.3422 1979.51 -623.769 -0.325623 0.414489 0.738258 0.420884 
3741 2 65.6213 1988.42 -628.016 -0.50039 0.83805 0.129093 0.174979 
3718 2 61.7612 1974.53 -542.852 -0.160903 0.315135 0.0634918 0.93315 
3757 2 78.2814 1987.97 -543.554 -0.142636 -0.604256 0.12452 -0.773967 
3801 2 -0.985764 1949.84 -540.955 0.24672 -0.214304 -0.913355 0.242869 
3742 2 66.7744 1997.56 -631.699 -0.464684 0.565367 -0.551374 -0.400519 
3743 2 67.4683 2007.11 -634.331 -0.0028577 0.00327425 -0.71931 -0.694676 
3744 2 67.904 2016.99 -634.658 0.605478 -0.496314 -0.417808 -0.460982 
3745 2 67.5821 2026.83 -633.387 0.699767 -0.69361 0.0730471 0.15458 
3800 2 4.30409 1952.81 -533.057 0.319904 0.509277 -0.798465 -0.0274381 
3719 2 67.2163 1976.82 -534.932 -0.900779 0.217686 -0.116531 0.357254 
3722 3 56.3907 1930.92 -537.438 -0.0889616 -0.972848 -0.0646629 0.203646 
3970 2 26.7805 2070.57 -543.137 0.237175 -0.952983 0.168121 0.0854809 
3964 1 84.3284 2055.32 -517.676 0.207221 -0.791446 0.379107 0.432378 
3799 2 10.2484 1954.63 -525.258 0.19511 0.920308 -0.175261 -0.290256 
3720 2 70.9166 1979.58 -526.155 -0.865381 0.0609966 -0.239526 -0.435916 
3967 2 36.078 2053.34 -521.329 -0.157734 0.667279 -0.632569 -0.36016 
3758 2 87.0721 1983.91 -541.521 0.503923 -0.227341 0.469342 -0.688546 
3971 2 26.5875 2074.45 -552.236 0.254808 -0.410989 0.870593 0.0907135 
3759 2 94.9755 1980.04 -537.13 0.894874 0.162697 0.415608 -6.10077e-05 
3798 2 17.1337 1956.29 -518.304 -0.156078 0.7038 0.608008 -0.332614 
3945 2 -19.8159 2076.24 -548.176 -0.546023 -0.108906 -0.691667 -0.459995 
3972 2 30.1521 2078.14 -560.713 0.110191 0.404934 0.852083 0.312795 
3966 2 38.1409 2045.98 -515.156 -0.422959 0.895342 0.129745 -0.051332 
4067 2 207.776 2017.28 -651.822 0.469983 -0.76781 0.431525 0.0580412 
4051 2 102.845 1931.78 -582.711 -0.29429 -0.249084 -0.760012 -0.523194 
3760 2 102.446 1977.45 -531.196 0.47858 0.3628 0.0479011 0.79815 
4052 2 109.75 1938.3 -585.571 0.25705 -0.697221 -0.25829 -0.617328 
4040 2 173.96 1931.92 -538.8 0.0567775 0.0867076 0.540646 -0.834841 
3993 2 103.537 1996.28 -562.952 0.0984658 -0.562072 -0.814679 -0.103333 
3994 2 102.986 1998.7 -572.577 0.0952511 -0.994059 0.0467491 0.0242431 
4053 2 116.918 1945.02 -586.615 0.572951 -0.690033 0.426141 -0.118259 
3995 2 102.762 2000.75 -582.272 0.194763 -0.543112 0.816597 0.0163333 
4054 2 123.519 1951.76 -589.518 0.46139 -0.0205958 0.816094 0.347398 
3996 2 106.134 2003.27 -591.202 0.19996 0.3275 0.907592 0.170401 
3997 2 110.682 2004.85 -599.834 -0.0443671 0.899315 0.288343 0.325765 
3998 2 116.349 2007.49 -607.418 -0.389647 0.801344 -0.380089 0.248104 
3999 2 123.623 2011.49 -612.823 -0.541822 0.212306 -0.796421 -0.164527 
4000 2 131.54 2016.53 -616.103 -0.0503782 -0.356303 -0.7083 -0.607307 
4058 2 153.735 1970.86 -605.909 -0.391649 -0.397288 -0.746232 -0.363196 
4059 2 162.407 1973.53 -609.894 0.0976057 -0.821022 -0.154038 -0.540988 
4057 2 145.893 1967.07 -601.334 -0.509858 0.46824 -0.719567 0.054956 
4060 2 171.333 1976.21 -613.365 0.347181 -0.679316 0.607743 -0.220554 
4061 2 178.702 1978.38 -619.719 0.428141 -0.0682702 0.885001 0.169728 
4033 2 182.817 1995.38 -544.232 0.0355329 0.351038 0.749481 -0.560168 
4056 2 138.224 1962.55 -596.96 -0.331483 0.837219 -0.132666 0.414226 
4035 2 177.574 1977.39 -550.429 0.586367 0.615142 -0.46489 0.248297 
4034 2 179.821 1986.65 -547.917 0.542003 0.767061 0.173117 -0.296447 
4036 2 175.433 1967.95 -552.466 0.221987 0.0615266 -0.656968 0.717864 
4055 2 130.941 1957.78 -592.187 0.0434952 0.680616 0.530746 0.503169 
3991 1 137.728 2023.14 -544.522 -0.198238 0.960596 -0.180851 -0.0724531 
3992 3 133.353 2036.43 -576.595 -0.156585 0.969554 -0.174 -0.0719046 
4062 2 186.008 1982.03 -625.376 0.0291352 0.509643 0.661838 0.548986 
4039 2 172.161 1939.9 -544.364 -0.619172 -0.385537 0.272377 -0.627533 
4037 2 173.386 1958.26 -551.517 -0.481705 -0.405428 -0.401417 0.665171 
4038 2 172.005 1949 -548.296 -0.832854 -0.551017 -0.0490057 0.0182447 
4063 2 191.597 1989.25 -629.069 -0.348083 0.889068 0.117451 0.273133 
4064 2 196.001 1995.99 -634.801 -0.496203 0.608419 -0.614466 -0.0777267 
4065 2 200.947 2002.78 -640.146 -0.147015 -0.135737 -0.883978 -0.422545 
4001 2 136.482 2024.66 -619.002 0.483812 -0.765633 -0.151336 -0.396016 
4002 2 141.046 2033.21 -620.913 0.733333 -0.504185 0.44552 0.0976377 
4003 2 146.112 2041.59 -620.399 0.491346 -0.00840029 0.61598 0.615692 
4004 2 152.252 2049.12 -618.384 -0.156313 0.381347 0.44778 0.793495 
4005 2 156.672 2057.41 -615.099 -0.80829 0.524679 0.0255017 0.26595 
4032 2 183.928 2004.6 -540.733 -0.372584 -0.409586 0.683625 -0.475476 
3990 2 168.143 2059.17 -545.402 -0.737226 -0.26981 -0.161059 -0.59813 
4031 2 182.733 2013.89 -537.613 -0.564412 -0.820017 0.0407307 -0.0857423 
4029 2 180.55 2029.87 -526.238 0.0532578 0.277631 -0.874449 0.394239 
4030 2 182.165 2022.4 -532.561 -0.315834 -0.552888 -0.673048 0.376257 
3989 2 162.797 2061.04 -553.486 -0.897709 -0.00859528 -0.309277 0.313676 
3988 2 158.006 2066.23 -560.346 -0.325106 0.143411 -0.372188 0.857447 
4066 2 204.474 2009.77 -646.196 0.318317 -0.795297 -0.364175 -0.365449 
3987 2 151.373 2071.94 -564.961 0.441964 0.505497 -0.0862828 0.736 
4006 2 158.966 2065.86 -610.528 -0.718554 0.47385 -0.326719 -0.390385 
4028 2 176.595 2037.46 -521.383 0.359731 0.821007 -0.262269 0.35743 
4027 2 171.144 2045.55 -519.58 0.629777 0.582084 0.5099 -0.0675357 
4026 2 168.179 2054.98 -519.005 0.294937 0.079567 0.738383 -0.601225 
3761 2 108.55 1974.73 -523.789 -0.165594 0.275412 -0.181468 0.929406 
4007 2 159.742 2075.29 -607.389 -0.130819 -0.0331258 -0.557478 -0.81915 
4025 2 162.202 2062.93 -519.026 -0.246052 -0.580942 0.389401 -0.671067 
3762 2 114.748 1971.95 -516.575 -0.771659 -0.0766583 -0.293462 0.559058 
4024 2 158.068 2071.53 -516.605 -0.616008 -0.760927 -0.173719 -0.106515 
4023 2 150.559 2077.59 -514.582 -0.538992 -0.132649 -0.780793 0.286798 
3986 2 144.377 2077.93 -568.724 0.810585 0.416035 0.399713 0.100475 
3946 2 -11.2075 2081.06 -548.376 0.0856426 -0.616662 -0.435135 -0.650424 
3965 3 70.0318 2080.15 -537.702 0.195185 -0.781813 0.4096 0.427666 
3973 2 34.2249 2082.5 -568.517 -0.117294 0.913013 0.13477 0.366723 
3979 2 84.9998 2097.64 -588.772 0.568016 0.341797 0.623401 0.414613 
3974 2 40.2232 2086.12 -575.474 -0.488581 0.58484 -0.62526 0.168229 
3975 2 48.2603 2089.16 -580.469 -0.466975 -0.0899144 -0.83656 -0.272062 
3977 2 65.6689 2095.97 -586.262 0.331042 -0.711548 0.274183 -0.555818 
3976 2 56.4638 2092.54 -584.697 -0.182854 -0.595423 -0.446383 -0.642477 
3978 2 75.2065 2098.04 -587.953 0.656702 -0.183649 0.713744 -0.159955 
3947 2 -3.61707 2087.33 -549.507 0.576098 -0.70572 0.0893385 -0.402603 
3948 2 3.62109 2094.04 -549.911 0.722067 -0.223039 0.648692 0.089839 
3949 2 12.4556 2098.34 -549.506 0.24805 0.328366 0.608523 0.678488 
3950 2 20.0054 2104.74 -548.951 -0.255555 0.764861 -0.000379503 0.591336 
3951 2 29.0659 2108.63 -550.329 -0.600205 0.424106 -0.638228 0.229245 
3952 2 38.2991 2111.69 -552.311 -0.583776 -0.0749997 -0.707224 -0.391681 
3955 2 65.9695 2121.58 -554.814 0.74413 -0.0985889 0.653606 -0.0966963 
3954 2 56.4012 2119.61 -553.819 0.35619 -0.702781 0.268606 -0.554147 
3953 2 47.1599 2116.07 -552.827 -0.0905781 -0.666013 -0.354402 -0.650093 
3956 2 75.7784 2121.53 -553.66 0.541793 0.59775 0.408311 0.427127 
3957 2 85.4913 2119.41 -553.543 0.0526555 0.571268 -0.318307 0.754692 
3980 2 94.7754 2098.82 -588.905 0.0384408 0.629447 0.0267026 0.775633 
3958 2 93.778 2114.04 -552.304 -0.552501 0.131233 -0.579203 0.584846 
3963 2 121.604 2080.41 -532.014 0.849302 0.475764 0.167444 0.155873 
3985 2 137.658 2083.91 -572.702 0.613126 0.0257568 0.565065 -0.551466 
4008 2 161.221 2084.65 -604.543 0.511565 -0.49897 -0.253313 -0.652046 
3984 2 129.773 2088.43 -576.683 0.0348063 -0.482128 0.247604 -0.839663 
3983 2 122.162 2093.85 -579.904 -0.598755 -0.574417 -0.0855535 -0.55156 
3982 2 113.592 2097.61 -583.191 -0.822739 -0.16631 -0.541999 0.0409647 
3981 2 104.504 2098.9 -586.94 -0.581114 0.354893 -0.44241 0.583636 
3962 2 117.328 2087.66 -537.202 0.665141 0.18888 0.463011 -0.554556 
3961 2 113.985 2094.69 -543.264 0.0631889 -0.196919 0.361732 -0.909055 
4009 2 164.973 2092.93 -601.032 0.8463 -0.45108 0.268564 -0.0904203 
3960 2 108.217 2101.62 -547.24 -0.645955 -0.546959 -0.0312732 -0.531602 
3959 2 101.471 2108.51 -549.44 -0.782587 -0.367167 -0.49142 0.106078 
4010 2 169.689 2100.54 -596.82 0.587581 -0.131147 0.509595 0.614704 
4011 2 174.139 2108.15 -592.257 -0.158713 0.312941 0.410087 0.841847 
4012 2 178.331 2115.87 -587.608 -0.784757 0.498807 0.0157083 0.367562 
4013 2 181.922 2123.57 -582.477 -0.852729 0.234196 -0.310485 -0.348719 
4019 3 165.097 2104.71 -546.661 -0.384058 -0.915336 0.0903893 -0.0805605 
4014 2 185.276 2130.1 -575.845 -0.291775 -0.183504 -0.383219 -0.856935 
4015 2 189.875 2135.52 -568.838 0.572842 -0.303444 -0.113855 -0.752868 
4016 2 193.046 2140.74 -561.099 0.936612 -0.305765 0.13999 -0.0983262 
4017 2 196.505 2145.61 -553.239 0.711261 -0.0732226 0.326868 0.617983 
4018 1 164.284 2130.02 -522.56 -0.382386 -0.910053 0.142623 -0.0724095 
3450 2 -229.144 1395.59 -509.973 -0.302762 -0.912785 0.168954 0.215903 
3451 1 -264.88 1426.32 -511.846 0.816221 -0.25924 0.486338 0.173359 
3452 3 -239.602 1444.44 -495.757 0.840555 -0.271235 0.451918 0.125174 
3449 2 -224.217 1399.57 -502.341 0.0184688 -0.68014 -0.648519 0.341308 
3448 2 -219.369 1404.45 -495.296 0.244132 0.0516979 -0.934041 0.255529 
3447 2 -216.204 1409.67 -487.377 0.280668 0.805863 -0.521317 0.006216 
3446 2 -210.78 1414 -480.235 0.153738 0.914996 0.184063 -0.324451 
3445 2 -208.532 1421.19 -473.91 0.0889888 0.459095 0.790942 -0.394617 
3444 2 -206.71 1429.4 -468.74 -0.269399 -0.330109 0.811844 -0.399201 
3443 2 -206.276 1437.25 -462.761 -0.42557 -0.854341 0.276201 -0.112718 
3442 2 -202.073 1444.66 -457.728 -0.308378 -0.785605 -0.361961 0.395869 
3441 2 -195.635 1451.23 -454.07 0.230122 -0.287958 -0.772715 0.516754 
3440 2 -187.958 1453.55 -448.18 0.442127 0.407718 -0.796593 -0.0610649 