ITEM: TIMESTEP
10000000
ITEM: NUMBER OF ATOMS
4067
ITEM: BOX BOUNDS pp pp pp
-4.6310929470000001e+03 4.6704658980000004e+03
-4.6310929470000001e+03 4.6704658980000004e+03
-4.6310929470000001e+03 4.6704658980000004e+03
ITEM: ATOMS id type x y z c_q[1] c_q[2] c_q[3] c_q[4] 
3800 2 -572.581 -244.585 -521.677 0.25982 -0.750182 -0.587332 0.157355 
3801 2 -577.954 -242.072 -529.657 0.0565908 -0.918278 0.241135 0.308898 
3803 3 -535.051 -217.381 -514.256 0.782727 0.00654909 0.369639 -0.500663 
4044 2 -690.846 -76.5542 -540.837 0.216455 0.348397 -0.831448 0.374783 
4043 2 -689.814 -69.0242 -534.44 0.420851 0.8495 -0.306984 0.0836346 
4042 2 -688.896 -62.2998 -527.241 0.275607 0.772693 0.517155 -0.244002 
3802 1 -551.84 -204.809 -542.236 0.763353 0.0640649 0.376428 -0.521047 
3966 2 -625.021 -99.1968 -517.599 0.464992 0.200886 -0.335023 -0.794473 
3804 2 -514.253 -176.571 -538.656 0.792725 0.119053 0.424048 -0.421423 
3807 2 -495.527 -195.13 -525.514 -0.646282 -0.199325 -0.393381 0.622768 
3806 2 -501.336 -187.865 -529.045 0.0714437 0.376448 -0.420269 0.822531 
3805 2 -508.417 -181.983 -532.803 0.714639 0.53829 0.204937 0.396908 
3808 2 -493.205 -202.446 -519.344 -0.955868 -0.266414 -0.0452043 -0.115312 
4041 2 -689.897 -55.7289 -519.84 0.104083 0.0876592 0.926498 -0.350833 
3964 1 -608.947 -55.286 -523.844 0.33631 -0.167473 -0.0348053 0.926087 
2083 2 243.97 -438.403 -419.747 -0.452385 0.828063 0.318094 0.0920675 
2084 2 242.98 -430.312 -425.471 -0.524249 0.642227 -0.395245 -0.395588 
2085 2 241.941 -420.643 -427.381 -0.0846172 0.0637959 -0.776541 -0.621092 
2086 2 242.436 -410.936 -429.584 0.406502 -0.592392 -0.516402 -0.466002 
2087 2 244.296 -401.717 -432.594 0.594795 -0.798142 0.0873502 -0.0394776 
2065 2 247.424 -384.514 -363.864 0.655486 -0.145243 0.740559 0.0285388 
2088 2 247.158 -392.629 -435.342 0.454148 -0.350082 0.70156 0.42309 
2082 2 247.814 -445.659 -414.232 -0.302423 0.249111 0.850421 0.351095 
2064 2 238.432 -388.277 -362.104 0.489683 -0.685554 0.314934 -0.437084 
2089 2 250.671 -383.541 -437.178 -0.0680092 0.291799 0.753861 0.584741 
2081 2 252.585 -452.264 -408.611 0.0610781 -0.60192 0.633585 0.482215 
2090 2 252.19 -374.255 -440.24 -0.535291 0.757477 0.277563 0.250301 
2091 2 253.074 -365.132 -443.765 -0.536474 0.666908 -0.455082 -0.245621 
2073 2 318.584 -388.89 -391.505 0.511419 0.576379 0.552271 0.318174 
2072 2 309.409 -386.84 -388.383 0.580586 -0.0221959 0.799688 -0.151418 
2071 2 301.073 -384.733 -383.427 0.223185 -0.658794 0.583088 -0.419746 
2070 2 292.83 -381.293 -379.023 -0.262938 -0.855131 -0.0723466 -0.440886 
2069 2 283.268 -379.621 -377.058 -0.617862 -0.352364 -0.662986 -0.233529 
2068 2 274.372 -378.001 -373.203 -0.442449 0.35524 -0.741949 0.357148 
2067 2 266.129 -379.629 -368.08 -0.096258 0.878233 -0.0173517 0.468124 
2075 3 278.988 -422.472 -388.437 0.185102 -0.785906 0.0369941 0.58883 
2066 2 257.009 -382.326 -365.149 0.353583 0.508389 0.637964 0.457735 
2074 1 311.069 -434.362 -381.394 0.186771 -0.761886 0.0647017 0.616815 
2080 2 256.576 -458.471 -402.036 0.350629 -0.903446 -0.000791205 0.246664 
2079 2 262.329 -463.076 -395.403 0.389035 -0.545478 -0.74198 0.0239085 
2078 2 269.048 -466.321 -388.853 0.289931 0.293694 -0.864882 -0.285767 
2077 2 276.046 -469.576 -382.581 -0.022852 0.847056 -0.328039 -0.41757 
2076 2 284.212 -473.051 -378.339 -0.43299 0.712182 0.479786 -0.274084 
2128 1 364.328 -362.453 -483.556 0.80577 -0.343144 0.134752 0.463497 
3799 2 -568.572 -246.388 -512.929 0.214052 0.0197239 -0.968737 -0.12386 
3798 2 -565.006 -247.882 -503.852 0.00808553 0.863809 -0.46963 -0.182254 
3797 2 -560.248 -247.405 -495.204 -0.125645 0.790453 0.558811 -0.21709 
3829 1 -545.875 -254.121 -412.45 0.23245 -0.681551 0.0611788 -0.691167 
3795 2 -551.075 -239.497 -479.764 -0.390848 -0.670529 0.630347 0.0170649 
3796 2 -555.735 -244.382 -486.916 -0.236617 0.0531932 0.953109 -0.181014 
3794 2 -548.212 -234.827 -471.568 -0.212595 -0.955485 -0.0936512 0.181885 
3793 2 -545.871 -228.599 -464.216 -0.0321536 -0.370176 -0.86282 0.342752 
3792 2 -544.718 -221.189 -457.829 0.296867 0.49424 -0.748412 0.327835 
3791 2 -544.658 -213.231 -451.914 0.431781 0.901343 0.0113015 -0.031899 
3831 2 -525.034 -286.441 -439.798 0.588985 -0.494585 0.39149 -0.50519 
3828 2 -545.321 -218.78 -381.191 -0.55399 -0.648592 0.315065 0.416121 
3827 2 -536.45 -214.341 -381.552 0.0308404 -0.608142 -0.351109 0.711291 
3826 2 -527.394 -210.524 -382.209 0.629632 -0.0857651 -0.677594 0.370236 
3832 2 -515.471 -284.774 -437.756 0.795536 0.0183424 0.599216 0.0879036 
3810 2 -489.707 -213.358 -503.206 0.359347 -0.0974385 0.344824 -0.861668 
3830 3 -511.918 -245.931 -410.217 0.256918 -0.672807 0.0363849 -0.69282 
3811 2 -485.804 -218.324 -495.503 0.935163 0.104523 0.285512 -0.181735 
3833 2 -506.009 -283.797 -435.095 0.337019 0.462342 0.383576 0.724933 
3834 2 -496.785 -281.844 -432.237 -0.430267 0.532211 -0.162913 0.710691 
3835 2 -488.285 -278.813 -428.195 -0.851519 0.359227 -0.381754 -0.0116376 
3836 2 -481.762 -272.624 -424.096 -0.493442 -0.0227021 -0.649593 -0.577952 
3837 2 -474.868 -265.657 -422.622 0.219285 -0.5131 -0.359884 -0.747747 
3838 2 -468.971 -258.081 -420.357 0.706925 -0.619504 0.0957656 -0.327567 
3839 2 -464.021 -249.882 -417.924 0.71352 -0.341734 0.528598 0.307719 
3840 2 -458.909 -241.642 -415.925 0.321662 0.241899 0.647798 0.64682 
3841 2 -451.549 -235.033 -416.055 -0.259214 0.75009 0.276779 0.541818 
3842 2 -444.839 -228.165 -418.714 -0.569558 0.740828 -0.294149 0.200633 
3812 2 -481.223 -221.397 -487.248 0.751668 0.181982 0.00213811 0.633935 
3813 2 -478.219 -224.116 -478.221 -0.0675224 0.146061 -0.0131168 0.986881 
3814 2 -474.934 -224.691 -468.846 -0.803943 0.101859 -0.0905617 0.578878 
3815 2 -472.88 -223.777 -459.232 -0.961516 0.108072 0.0715924 -0.242246 
3816 2 -474.23 -222.002 -449.586 -0.473066 0.142046 -0.0264018 -0.8691 
3843 2 -438.811 -220.879 -421.465 -0.566909 0.349905 -0.630542 -0.398243 
3817 2 -476.656 -219.751 -440.271 0.434271 0.0711844 0.0108777 -0.8979 
3818 2 -478.199 -220.415 -430.568 0.938558 -0.0671675 -0.145107 -0.305846 
3819 2 -480.155 -217.043 -421.54 0.845517 -0.153785 0.050319 0.508842 
3844 2 -434.44 -211.949 -421.943 -0.0110384 -0.294384 -0.642716 -0.7072 
3820 2 -481 -213.538 -412.336 0.206208 -0.249405 0.0938493 0.941524 
3821 2 -484.498 -211.107 -403.446 -0.589305 -0.26164 0.314775 0.696549 
3822 2 -491.594 -209.994 -396.701 -0.866743 0.110456 0.475925 0.100258 
2101 1 220.515 -274.64 -441.2 0.78028 0.492949 0.33332 0.192516 
2105 2 234.922 -282.891 -389.44 -0.64395 0.0895193 -0.680962 0.337054 
2104 2 226.219 -278.661 -391.343 -0.0385974 0.550525 -0.360789 0.75184 
2103 2 218.069 -273.674 -394.075 0.605945 0.577536 0.204118 0.507562 
2106 2 244.282 -286.039 -388.827 -0.661019 -0.555815 -0.454855 -0.217327 
2100 2 237.209 -290.905 -482.217 0.567906 -0.684716 -0.454565 0.0449079 
2102 3 244.854 -297.858 -431.325 0.773277 0.498781 0.35326 0.168724 
2099 2 242.565 -298.307 -478.423 0.357582 -0.0175191 -0.824076 -0.439006 
2098 2 247.033 -306.239 -474.731 -0.207226 0.63175 -0.506227 -0.549257 
2097 2 250.794 -315.035 -472 -0.588159 0.786589 0.107799 -0.154031 
2107 2 252.303 -291.78 -389.024 -0.270339 -0.737376 0.186011 -0.590418 
2096 2 253.824 -323.102 -467.082 -0.387335 0.414517 0.755473 0.327732 
2093 2 256.702 -346.932 -450.544 0.46218 -0.659349 -0.484501 -0.341918 
2124 2 395.426 -344.632 -436.559 0.181561 0.658385 0.728272 0.0564264 
2092 2 255.161 -355.825 -446.548 -0.101904 0.0716761 -0.832984 -0.539088 
2123 2 390.013 -342.591 -428.477 0.229174 -0.169605 0.942837 -0.172543 
2122 2 383.077 -341.346 -421.623 0.133963 -0.833556 0.388044 -0.369674 
2095 2 255.628 -330.005 -460.179 0.0527997 -0.372151 0.836553 0.398616 
2094 2 256.461 -337.621 -453.962 0.452093 -0.869582 0.166716 0.107915 
2121 2 374.925 -339.061 -416.377 -0.314339 -0.796175 -0.387992 -0.3417 
2120 2 365.693 -336.923 -413.386 -0.577106 -0.179146 -0.796732 -0.00856352 
2119 2 356.334 -334.545 -411.195 -0.357398 0.518187 -0.582539 0.514195 
2130 2 318.275 -354.812 -490.58 0.434021 -0.297442 0.441739 0.72665 
2131 2 318.005 -345.825 -486.326 -0.242643 0.198192 0.559946 0.76701 
2114 2 312.416 -324.121 -391.725 -0.293095 -0.821751 -0.174506 -0.456474 
2117 2 338.274 -330.931 -404.556 0.489179 0.55472 0.638438 0.213043 
2118 2 346.831 -333.055 -408.946 0.0801445 0.793031 -0.0593894 0.600959 
2116 2 329.939 -328.9 -399.603 0.465579 -0.0893201 0.863063 -0.174299 
2115 2 321.093 -326.723 -395.647 0.171878 -0.701097 0.427348 -0.54433 
2108 2 259.641 -298.058 -390.75 0.404636 -0.313334 0.601293 -0.613628 
2113 2 303.318 -320.464 -390.011 -0.624643 -0.378775 -0.674907 -0.104173 
2129 3 356.395 -338.944 -458.924 0.807796 -0.364935 0.0804058 0.455875 
2132 2 318.111 -336.41 -483.082 -0.76982 0.538003 0.161399 0.303118 
2133 2 318.223 -327.617 -478.481 -0.835128 0.40746 -0.232623 -0.287096 
2134 2 319.288 -319.585 -472.809 -0.337235 -0.0155837 -0.389591 -0.856883 
2135 2 321.953 -312.83 -466.014 0.40884 -0.418112 -0.162882 -0.794671 
2136 2 327.066 -306.933 -459.97 0.887725 -0.387007 0.213384 -0.128982 
2137 2 331.988 -300.821 -454.052 0.703291 0.144535 0.446863 0.53367 
2138 2 339.273 -297.651 -448.229 -0.0517572 0.499696 0.10619 0.858108 
2139 2 347.78 -294.882 -444.025 -0.602988 0.450853 -0.371709 0.543111 
2112 2 293.934 -317.284 -389.91 -0.56994 0.23205 -0.677852 0.402291 
2111 2 285.303 -312.81 -388.352 0.00449151 0.655216 -0.351827 0.668498 
2140 2 356.965 -292.886 -440.671 -0.821999 -0.0125339 -0.549179 -0.15021 
2110 2 276.42 -308.353 -388.781 0.532326 0.636116 0.28577 0.479917 
2177 2 329.847 -269.685 -434.082 0.240109 -0.530608 -0.347256 0.734994 
2176 2 339.367 -267.264 -434.55 0.688112 -0.0916337 -0.675986 0.247282 
2178 2 320.599 -272.302 -431.83 -0.476222 -0.579661 0.169679 0.639073 
2175 2 349.025 -265.569 -435.05 0.600158 0.476273 -0.493386 -0.411757 
2179 2 311.753 -275.699 -428.997 -0.865694 -0.142555 0.478824 -0.0312871 
2174 2 358.221 -261.825 -435.492 0.14081 0.679486 0.14112 -0.706085 
2173 2 366.92 -257.544 -437.431 -0.505828 0.253777 0.566878 -0.598652 
2172 2 376.201 -255.963 -440.628 -0.792378 -0.230788 0.540136 0.164702 
2171 2 385.436 -255.375 -443.92 -0.292694 -0.55393 0.160998 0.762608 
2180 2 303.647 -278.587 -423.951 -0.420595 0.163055 0.508035 -0.733767 
2141 2 366.163 -291.563 -437.32 -0.507881 -0.442854 -0.21917 -0.705622 
2142 2 374.45 -292.565 -431.914 0.346711 -0.406719 0.220592 -0.81591 
2143 2 382.368 -293.062 -425.961 0.920107 -0.0401917 0.342329 -0.18601 
2181 2 296.832 -284.295 -419.445 0.299895 0.486944 0.162686 -0.804041 
2144 2 389.309 -293.629 -418.912 0.73902 0.324159 0.275169 0.522545 
2109 2 268.292 -302.831 -390.217 0.733114 0.270834 0.610506 -0.128354 
2183 3 328.675 -255.004 -390.792 0.141275 0.188517 0.810462 0.536334 
2182 1 313.26 -282.321 -375.242 0.12789 0.182463 0.811435 0.540301 
2190 2 347.848 -212.552 -369.121 -0.547283 0.797832 -0.228219 -0.108906 
2170 2 394.726 -257.189 -446.435 0.503459 -0.547203 -0.266615 0.6132 
2189 2 346.951 -220.881 -363.848 -0.347236 0.725109 0.496127 0.327876 
2125 2 398.904 -346.851 -445.638 0.158965 0.963743 -0.0801562 0.198755 
2145 2 396.253 -294.82 -411.917 0.0483071 0.413932 -0.00863508 0.908984 
2169 2 402.952 -261.067 -450.306 0.813433 -0.170372 -0.541194 -0.128098 
2127 2 405.75 -354.203 -462.654 -0.254472 -0.478345 -0.833978 0.104451 
2126 2 402.545 -349.782 -454.449 -0.0228873 0.453015 -0.845222 0.282582 
2146 2 403.724 -295.103 -405.422 -0.627946 0.241706 -0.384464 0.632021 
2168 2 411.522 -265.341 -452.991 0.437932 0.320875 -0.513295 -0.664668 
2147 2 411.829 -296.351 -399.994 -0.823002 -0.0555404 -0.542803 -0.157948 
2167 2 418.542 -271.47 -456.292 -0.37139 0.568521 -0.138036 -0.720971 
2166 2 425.889 -277.633 -458.923 -0.783594 0.468968 0.383894 -0.136657 
2148 2 420.765 -295.477 -395.882 -0.379746 -0.42066 -0.301305 -0.766846 
2149 2 429.402 -294.117 -391.049 0.321898 -0.532989 0.117579 -0.773615 
2165 2 432.241 -284.713 -461.508 -0.573351 0.0578152 0.593331 0.562036 
2164 2 439.68 -290.863 -463.629 0.0428821 -0.471407 0.40575 0.781859 
2163 2 446.185 -297.618 -466.958 0.682132 -0.570463 -0.130025 0.43859 
2150 2 438.368 -292.467 -387.292 0.759161 -0.225698 0.552238 -0.260323 
2151 2 447.742 -292.082 -384.201 0.642999 0.259623 0.535014 0.482606 
2152 2 457.19 -290.566 -381.673 0.13244 0.598582 0.10147 0.783494 
2156 3 461.356 -303.421 -423.736 -0.503089 0.710036 0.391985 -0.298495 
2155 1 490.552 -317.898 -411.013 -0.506926 0.70369 0.399226 -0.297431 
2162 2 453.651 -304.107 -467.047 0.662993 -0.206628 -0.652522 -0.30325 
2161 2 460.813 -311.005 -467.209 0.188563 0.418719 -0.585711 -0.667878 
2160 2 467.404 -318.204 -465.908 -0.432561 0.754637 -0.0922716 -0.484665 
2159 2 473.674 -325.225 -462.766 -0.61589 0.542326 0.567013 0.0711262 
2158 2 480.651 -330.967 -458.699 -0.307361 -0.184794 0.828769 0.429561 
2157 2 487.166 -336.767 -454.081 0.149639 -0.763238 0.383242 0.498198 
2153 2 466.725 -289.801 -378.94 -0.485552 0.461733 -0.368865 0.644189 
2154 2 476.224 -289.828 -375.962 -0.797128 0.0320438 -0.601178 0.0463126 
4045 1 -683.801 -114.686 -513.95 -0.0549496 0.0916694 -0.401086 -0.909784 
4055 2 -707.557 -70.752 -445.919 -0.825526 0.469242 0.260876 0.173958 
4054 2 -706.143 -80.407 -447.767 -0.335463 0.201551 0.604073 0.694217 
4053 2 -702.603 -89.5996 -448.337 0.200941 -0.441551 0.558615 0.672759 
4052 2 -697.943 -98.3424 -448.361 0.680589 -0.694493 -0.102835 0.209528 
4046 3 -688.455 -89.0569 -490.504 -0.0195413 0.0849677 -0.430164 -0.898531 
4051 2 -695.092 -107.309 -451.581 0.57204 -0.282501 -0.506262 -0.580226 
4050 2 -692.933 -115.853 -455.974 0.0303832 0.12958 -0.51599 -0.846192 
4049 2 -690.248 -123.26 -461.862 -0.63387 0.432946 -0.173956 -0.616852 
4048 2 -685.461 -129.365 -468.166 -0.911825 0.31494 0.262841 0.0174215 
3975 2 -672.693 -60.1228 -456.21 0.71612 -0.2858 -0.0384027 0.635622 
4047 2 -681.834 -137.398 -472.62 -0.43936 0.0933524 0.547759 0.705839 
4056 2 -710.435 -62.4139 -441.51 -0.618623 0.577362 -0.216163 -0.487065 
3974 2 -667.999 -64.9239 -463.472 0.932901 -0.238414 -0.266097 -0.0452491 
3985 2 -693.076 -56.7675 -363.821 -0.921923 -0.324405 -0.162339 -0.135886 
3825 2 -518 -208.174 -384.537 0.721936 0.392781 -0.469593 -0.322512 
3790 2 -544.177 -205.709 -445.477 0.205033 0.543925 0.736146 -0.346693 
3973 2 -662.061 -69.5981 -469.857 0.542224 0.131958 -0.37593 -0.739768 
3789 2 -544.055 -198.903 -438.189 -0.0914547 -0.281063 0.888054 -0.352136 
3788 2 -544.014 -190.198 -433.505 -0.478229 -0.763191 0.400888 -0.167708 
3992 3 -652.84 -72.8715 -382.988 0.516522 -0.697963 -0.488377 -0.0868322 
3967 2 -631.18 -95.7876 -510.582 0.906947 -0.106876 -0.397808 -0.0881704 
3968 2 -637.87 -93.0167 -503.875 0.564819 -0.39329 -0.115046 0.716287 
3937 1 -583.581 -139.215 -438.743 -0.0303987 0.195461 0.504171 0.840644 
3778 2 -547.199 -94.0766 -433.588 0.576968 0.584667 -0.277817 0.498085 
3938 3 -569.896 -110.072 -425.292 0.0233899 0.202058 0.479117 0.853857 
3939 2 -556.463 -155.245 -403.554 -0.471202 0.20114 -0.337209 -0.789811 
3940 2 -556.231 -148.303 -396.531 0.208747 -0.110011 -0.427491 -0.872682 
3941 2 -556.274 -139.963 -391.164 0.755318 -0.586563 -0.176326 -0.233126 
3942 2 -556.49 -130.367 -388.908 0.676737 -0.412643 0.407602 0.453446 
3779 2 -544.655 -103.576 -432.144 -0.126974 0.139268 -0.608529 0.770827 
3780 2 -541.474 -112.636 -429.503 -0.634333 -0.559027 -0.357057 0.397015 
3943 2 -555.115 -120.966 -385.975 0.00644664 0.0316918 0.613458 0.789065 
3944 2 -554.163 -111.405 -383.315 -0.531613 0.503809 0.478931 0.483931 
3945 2 -554.36 -101.525 -384.123 -0.637805 0.745496 -0.0807619 -0.175835 
3993 2 -624.122 -103.296 -413.805 -0.28122 0.320304 0.700669 0.572175 
3994 2 -624.749 -93.6063 -415.236 -0.625061 0.69815 0.325088 0.127292 
3995 2 -627.048 -84.1888 -416.93 -0.473687 0.764581 -0.272967 -0.34136 
3969 2 -644.748 -90.5174 -497.342 -0.198622 -0.302349 0.214962 0.907152 
3970 2 -650.976 -88.4748 -489.88 -0.776275 0.117556 0.37732 0.491129 
3971 2 -655.579 -82.4256 -483.469 -0.849896 0.421374 0.0880135 -0.303931 
3972 2 -659.112 -75.7303 -477.03 -0.297806 0.289087 -0.266199 -0.869987 
3936 2 -605.086 -105.018 -463.078 0.21234 0.606396 0.399719 -0.653774 
3991 1 -640.579 -102.853 -369.567 0.543731 -0.710085 -0.441152 -0.0743029 
3949 2 -561.955 -65.3491 -396.983 0.222031 -0.707527 0.516849 0.427755 
3935 2 -598.81 -97.3744 -462.256 -0.425124 0.0272743 0.725873 -0.540031 
3934 2 -591.902 -90.4104 -461.16 -0.677797 -0.48374 0.552403 -0.0379292 
3777 2 -550.788 -84.8857 -432.566 0.670103 0.640614 0.37099 -0.0542469 
3933 2 -585.048 -83.4722 -459.155 -0.387392 -0.772758 -0.0588954 0.499303 
3932 2 -577.02 -78.9095 -455.691 0.185256 -0.544539 -0.617409 0.536623 
3929 2 -554.021 -70.6681 -439.093 0.019843 0.888545 0.188767 -0.417686 
3928 2 -546.683 -71.176 -432.59 -0.362445 0.417709 0.815178 -0.172155 
3927 2 -539.021 -70.554 -426.406 -0.447974 -0.331582 0.820696 0.125816 
3996 2 -629.875 -75.0785 -419.843 -0.0635937 0.255552 -0.699383 -0.664464 
3931 2 -569.124 -75.0762 -450.917 0.483914 0.113641 -0.848794 0.180171 
3930 2 -561.282 -72.1079 -445.646 0.401738 0.680043 -0.544068 -0.283088 
3878 2 -519.784 -106.179 -378.396 -0.679845 0.339993 0.546497 0.351506 
3879 2 -524.486 -97.5095 -376.706 -0.740243 0.603871 0.0276217 -0.294308 
3880 2 -527.825 -88.5065 -374.347 -0.273859 0.303454 -0.43096 -0.804482 
3781 2 -541.15 -122.335 -427.902 -0.660439 -0.671069 0.211767 -0.261997 
3948 2 -559.413 -73.1674 -391.526 0.462807 -0.848406 -0.256867 0.00612643 
3947 2 -557.58 -82.38 -388.222 0.350013 -0.348983 -0.727025 -0.476588 
3787 2 -544.516 -180.79 -430.453 -0.5274 -0.719496 -0.363326 0.268643 
3946 2 -556.079 -91.8406 -385.789 -0.148681 0.272062 -0.726342 -0.613436 
3775 1 -526.874 -66.8226 -469.05 -0.707885 -0.475511 -0.117687 -0.508859 
3926 2 -531.591 -73.3666 -420.659 -0.0025255 -0.856996 0.251269 0.449906 
3784 2 -543.912 -151.476 -425.031 0.637456 0.770147 -0.0023701 0.0227573 
3785 2 -544.193 -161.407 -426.538 0.416068 0.422606 -0.632873 0.497759 
3786 2 -544.449 -171.095 -428.714 -0.180554 -0.192106 -0.745132 0.612597 
3783 2 -541.894 -141.93 -426.618 0.444413 0.486415 0.433637 -0.6147 
3782 2 -541.058 -132.182 -427.756 -0.210126 -0.161537 0.648964 -0.713161 
3925 2 -524.758 -77.2186 -414.569 0.353129 -0.783686 -0.446476 0.248586 
3997 2 -632.767 -65.6741 -420.769 0.55418 -0.352993 -0.611587 -0.44073 
3950 2 -565.672 -57.9471 -402.28 -0.114378 -0.0119638 0.904034 0.4117 
3881 2 -530.623 -80.1556 -369.87 0.45367 -0.12763 -0.626185 -0.621117 
3882 2 -534.937 -71.345 -367.962 0.772759 -0.56145 -0.295656 -0.0142749 
3924 2 -518.409 -83.5662 -410.436 0.467467 -0.186832 -0.820176 -0.271809 
3877 2 -514.964 -114.747 -379.15 -0.154513 -0.188401 0.636821 0.731499 
3912 2 -514.017 -172.424 -449.641 0.614514 0.163657 0.448715 0.627888 
3858 2 -460.22 -192.298 -513.989 -0.790108 0.0363024 0.22401 -0.569413 
3910 1 -512.358 -142.033 -485.689 -0.274538 -0.185238 -0.310167 -0.89113 
3823 2 -499.537 -207.354 -391.454 -0.570658 0.349948 0.413752 -0.617005 
3824 2 -508.596 -207.432 -387.34 0.0940921 0.592072 -0.0138948 -0.800253 
3809 2 -492.265 -207.998 -511.132 -0.460954 -0.256286 0.185845 -0.829036 
3859 2 -463.97 -194.219 -505.024 -0.00840555 0.238363 0.139356 -0.961089 
3923 2 -511.238 -90.1701 -408.592 0.103414 0.456062 -0.615888 -0.63403 
3845 2 -430.444 -202.894 -421.993 0.505474 -0.733771 -0.167455 -0.421941 
3876 2 -510.003 -123.233 -380.347 0.487027 -0.59901 0.2261 0.594029 
3875 2 -505.244 -131.627 -382.691 0.806369 -0.508968 -0.301191 -0.00193515 
3913 2 -506.7 -168.431 -444.221 -0.141584 0.279613 0.201963 0.927891 
3909 2 -501.945 -100.267 -505.173 0.246304 -0.601464 -0.604985 0.459965 
3922 2 -503.861 -96.7696 -408.862 -0.512726 0.680369 0.017863 -0.523346 
3856 1 -437.567 -152.771 -501.696 0.453019 0.0319475 -0.220439 0.863226 
3908 2 -493.478 -97.4544 -501.039 0.515624 0.142006 -0.839463 0.0962743 
3846 2 -426.311 -194.017 -422.861 0.631364 -0.594377 0.467673 0.1714 
3874 2 -501.076 -139.961 -385.823 0.491188 -0.109275 -0.589228 -0.632141 
3873 2 -496.612 -147.164 -390.867 -0.176895 0.337096 -0.356566 -0.853191 
3914 2 -501.99 -163.711 -436.859 -0.831341 0.371152 -0.0737842 0.40703 
3915 2 -497.73 -158.151 -429.827 -0.794955 0.307443 -0.346204 -0.392005 
3911 3 -493.25 -126.192 -461.112 -0.273094 -0.202358 -0.337987 -0.877631 
3872 2 -491.324 -152.381 -397.373 -0.83888 0.367824 0.15143 -0.371558 
3916 2 -494.978 -150.514 -424.195 -0.24473 0.0236357 -0.56681 -0.786305 
3917 2 -491.871 -141.785 -420.527 0.476939 -0.366697 -0.448297 -0.661129 
3918 2 -491.127 -132.291 -417.789 0.72521 -0.682366 -0.039641 0.0829264 
3919 2 -493.297 -122.612 -417.185 0.387011 -0.418318 0.432039 0.698981 
3921 2 -497.965 -104.276 -411.407 -0.783346 0.392165 0.451374 0.169817 
3920 2 -495.912 -113.496 -414.399 -0.254713 0.0804067 0.568185 0.778346 
3847 2 -422.509 -184.938 -424.065 0.183379 0.000370452 0.797209 0.575178 
3848 2 -419.492 -175.971 -426.97 -0.350724 0.631299 0.519737 0.45643 
3849 2 -417.739 -166.915 -430.452 -0.485347 0.869735 -0.068156 -0.0579214 
3871 2 -486.918 -156.357 -405.39 -0.869885 0.152307 0.288048 0.370313 
3863 2 -475.941 -198.426 -468.266 -0.331032 -0.0429719 0.143602 0.931638 
3862 2 -473.812 -199.444 -477.845 0.469119 -0.115106 -0.0293488 0.875109 
3861 2 -471.255 -199.414 -487.471 0.96556 -0.0176365 -0.125618 0.227163 
3864 2 -477.443 -196.428 -458.643 -0.911276 0.158899 0.0988278 0.366824 
3860 2 -468.034 -197.164 -496.544 0.780519 0.195163 -0.0610681 -0.590739 
3870 2 -483.071 -162.779 -411.803 -0.231113 -0.123187 0.379553 0.887328 
3865 2 -478.24 -192.98 -449.414 -0.788424 0.169358 -0.0658309 -0.587683 
3866 2 -478.955 -189.467 -440.213 -0.0796805 0.0167939 -0.326998 -0.94151 
3869 2 -480.571 -169.692 -418.417 0.584684 -0.319723 0.221453 0.711956 
3868 2 -478.665 -176.239 -425.561 0.926396 -0.353605 -0.126649 -0.0267213 
3867 2 -479.085 -182.917 -432.856 0.59827 -0.237563 -0.282363 -0.711272 
3857 3 -442.632 -168.771 -471.128 0.405213 0.0456057 -0.254087 0.877019 
3855 2 -415.499 -124.62 -470.883 -0.2283 0.831743 0.490337 0.125109 
3854 2 -415.636 -129.608 -462.309 -0.0547517 0.168923 0.952645 0.246849 
3853 2 -416.051 -135.802 -454.607 0.254995 -0.658905 0.6634 0.246417 
3852 2 -415.236 -142.967 -447.821 0.38764 -0.901767 -0.191167 -0.00257852 
3902 2 -457.765 -96.4705 -456.481 0.135429 -0.666328 -0.732167 0.0399608 
3901 2 -454.368 -98.7568 -447.476 0.168874 0.155403 -0.962557 -0.144277 
3900 2 -449.678 -101.053 -439.062 0.0286934 0.800394 -0.520151 -0.296628 
3899 2 -446.348 -104.085 -430.263 -0.210673 0.947549 0.212902 -0.111537 
3898 2 -443.161 -106.241 -421.204 -0.190243 0.459988 0.867244 0.010285 
3897 2 -442.491 -108.46 -411.569 0.0276046 -0.240131 0.966842 0.082415 
3896 2 -439.565 -110.25 -402.242 0.0335038 -0.906993 0.362566 0.211632 
3894 2 -435.22 -111.598 -383.32 0.131585 -0.0857437 -0.984402 0.0792908 
3892 2 -434.598 -103.284 -365.366 0.223387 0.961762 0.156607 -0.024207 
3893 2 -434.523 -107.623 -374.245 0.177035 0.709783 -0.667863 0.137208 
3895 2 -437.6 -112.623 -392.848 0.173165 -0.875026 -0.449132 0.0512231 
3851 2 -415.537 -150.833 -441.757 0.147608 -0.347901 -0.829167 -0.411896 
3850 2 -417.795 -158.625 -436.044 -0.322314 0.438396 -0.766075 -0.342127 
3903 2 -460.195 -95.9318 -466.043 0.1466 -0.951023 0.0976217 0.254035 
3776 3 -503.253 -87.3051 -453.334 -0.709615 -0.456746 -0.159536 -0.512228 
3904 2 -464.853 -93.6826 -474.508 -0.32086 -0.509994 0.777521 0.180043 
3905 2 -471.458 -94.0927 -481.807 -0.320908 0.29196 0.888579 -0.149013 
3906 2 -477.9 -95.0586 -489.329 -0.148171 0.851801 0.357932 -0.352656 
3907 2 -485.144 -95.3384 -496.221 0.304544 0.79178 -0.347765 -0.399245 
3773 2 -482.268 -62.1771 -488.545 -0.336946 0.313783 0.882939 -0.0917933 
3774 2 -488.593 -62.0877 -496.242 -0.131165 0.900277 0.252731 -0.329278 
3772 2 -474.915 -61.3896 -481.994 -0.362828 -0.564485 0.710977 0.210296 
3771 2 -468.799 -58.6026 -474.722 -0.162122 -0.92566 -0.0644963 0.335722 
2191 2 347.967 -203.896 -374.003 -0.129746 0.347301 -0.826387 -0.423831 
2192 2 346.984 -195.906 -379.631 0.301497 -0.377867 -0.786997 -0.383342 
2199 2 341.693 -144.868 -424.133 0.0972697 -0.37504 -0.830049 -0.401126 
2200 2 343.216 -137.915 -431.059 0.336394 -0.855788 -0.301991 -0.251531 
2201 2 345.145 -130.923 -437.762 0.384227 -0.832893 0.389707 0.0823875 
2202 2 346.816 -123.655 -444.156 0.259701 -0.159571 0.88298 0.356987 
2198 2 341.21 -151.393 -416.591 -0.182943 0.454769 -0.821356 -0.291704 
2197 2 339.526 -159.199 -410.739 -0.410766 0.899109 -0.144313 0.0452455 
2196 2 338.635 -165.741 -403.372 -0.205912 0.675816 0.652656 0.273703 
2195 2 340.923 -172.152 -396.257 -0.0772395 -0.206275 0.899248 0.377938 
2194 2 343.404 -180.185 -391.031 0.311577 -0.775223 0.434004 0.337029 
2203 2 350.07 -116.314 -449.959 -0.25202 0.626221 0.662461 0.324776 
2204 2 350.787 -108.791 -456.315 -0.371356 0.924114 -0.0893266 0.0113691 
2205 2 351.915 -102.112 -463.51 -0.191805 0.458903 -0.772382 -0.395025 
2206 2 351.261 -94.4781 -469.831 0.124967 -0.384639 -0.854901 -0.324931 
2207 2 351.034 -87.5169 -476.968 0.389434 -0.852011 -0.325467 -0.128412 
2208 2 351.088 -80.1379 -483.56 0.326389 -0.799358 0.456685 0.214327 
2193 2 345.926 -187.841 -385.295 0.494179 -0.832685 -0.249846 0.000502829 
2210 3 345.572 -69.442 -433.112 -0.87427 -0.311802 -0.332109 -0.167736 
3984 2 -694.283 -53.9578 -373.199 -0.737487 -0.0849457 -0.090222 0.663895 
4040 2 -691.094 -50.111 -511.692 -0.213301 -0.749746 0.580275 -0.235934 
3976 2 -676.722 -56.3127 -448.01 -0.0593786 -0.185431 0.182364 0.96376 
3977 2 -680.634 -53.5792 -439.367 -0.79414 -0.0600598 0.23039 0.559156 
3978 2 -684.652 -51.944 -430.491 -0.956654 0.138046 0.109286 -0.231977 
3979 2 -687.461 -50.1796 -421.08 -0.354319 0.11459 -0.0573525 -0.926303 
4039 2 -689.964 -44.1455 -503.844 -0.308635 -0.906766 -0.251635 0.138565 
3980 2 -689.602 -48.2002 -411.517 0.498881 0.0029282 -0.0353362 -0.865945 
3983 2 -693.775 -50.5812 -382.48 -0.0119724 -0.040904 -0.169155 0.984668 
3981 2 -690.198 -47.2402 -401.603 0.962226 0.0535624 -0.068549 -0.25798 
3982 2 -691.587 -48.2209 -391.774 0.807937 0.0626706 -0.16133 0.563278 
4057 2 -713.325 -53.3744 -438.953 0.10837 0.175006 -0.601356 -0.77201 
4058 2 -717.862 -44.8859 -436.669 0.746822 -0.276282 -0.507508 -0.329183 
4059 2 -723.354 -37.2251 -433.643 0.740712 -0.591808 -0.0834591 0.306828 
4060 2 -728.381 -29.0616 -430.934 0.123084 -0.517118 0.399632 0.746815 
4061 2 -735.126 -21.8606 -429.834 -0.524188 -0.0201439 0.667531 0.528417 
4062 2 -742.116 -14.9614 -428.744 -0.758843 0.499998 0.389115 -0.150827 
4063 2 -749.097 -8.34449 -426.445 -0.385448 0.644148 -0.123437 -0.64905 
4064 2 -755.93 -1.47398 -424.355 0.219105 0.278116 -0.61494 -0.704623 
4065 2 -762.654 5.81164 -423.646 0.669927 -0.415457 -0.492049 -0.369432 
4067 2 -772.959 22.2692 -421.078 0.0718518 -0.483304 0.459631 0.741616 
4066 2 -766.552 14.7573 -421.795 0.620025 -0.663595 -0.112965 0.403051 
4038 2 -687.794 -36.9537 -497.278 -0.0887057 -0.436366 -0.798403 0.4053 
4037 2 -683.883 -30.2171 -491.22 0.311165 0.280175 -0.861817 0.286269 
4036 2 -679.704 -22.8551 -486.141 0.505628 0.767555 -0.392438 -0.0345193 
4035 2 -674.843 -16.2179 -480.502 0.253082 0.834412 0.31837 -0.37195 
4034 2 -670.66 -10.5738 -473.638 -0.120714 0.272855 0.88187 -0.365079 
3998 2 -636.181 -56.3765 -420.969 0.74771 -0.625157 -0.117157 0.190742 
4033 2 -665.114 -7.41125 -465.978 -0.337074 -0.499627 0.797952 0.00514135 
3951 2 -568.312 -51.0028 -408.84 -0.322463 0.732679 0.595007 -0.071871 
4032 2 -660.381 -4.42491 -457.783 -0.151365 -0.955416 0.0755044 0.24201 
3952 2 -573.094 -47.0935 -416.589 -0.254438 0.892534 -0.287164 -0.237027 
3965 3 -622.231 -54.4195 -491.493 0.311187 -0.181931 -0.0597473 0.930857 
3963 2 -602.101 -10.533 -510.442 0.0363156 -0.76132 0.646367 -0.0358109 
3953 2 -576.077 -41.5198 -424.204 0.120169 0.315845 -0.862787 -0.376032 
3954 2 -580.447 -36.1427 -431.126 0.326028 -0.442055 -0.811766 -0.198318 
4006 2 -647.294 9.72844 -385.892 0.386288 -0.32164 0.561543 0.657266 
4007 2 -647.188 19.4484 -384.426 -0.338419 0.120552 0.707992 0.608019 
4008 2 -649.649 29.0282 -384.497 -0.716648 0.656995 0.155651 0.174772 
4005 2 -645.494 0.233117 -387.959 0.756217 -0.61913 0.0726654 0.198829 
4009 2 -649.677 38.904 -383.63 -0.478781 0.487276 -0.585689 -0.436233 
4004 2 -645.545 -9.36798 -390.532 0.591898 -0.480725 -0.389698 -0.516427 
4010 2 -647.968 48.5042 -385.032 -0.0488849 -0.190255 -0.682989 -0.703519 
4003 2 -645.913 -19.1427 -392.315 -0.00941207 0.0545907 -0.668341 -0.74179 
4002 2 -644.977 -27.0261 -398.274 -0.642479 0.375009 -0.249316 -0.620025 
4031 2 -654.806 -2.16469 -449.936 0.106839 -0.711004 -0.613043 0.32747 
4030 2 -648.932 -2.11448 -441.964 0.276806 0.0819953 -0.95742 0.0012717 
4029 2 -643.216 -1.84756 -433.962 0.199995 0.759924 -0.56598 -0.249367 
4028 2 -636.833 -2.15364 -426.346 -0.076447 0.912148 0.226848 -0.332689 
4001 2 -642.93 -34.01 -405.049 -0.907286 0.379668 0.130547 0.125068 
4027 2 -628.936 -3.0112 -420.281 -0.431823 0.396524 0.786619 -0.19372 
4019 3 -605.989 37.7924 -393.909 0.00874904 0.702523 0.213377 -0.678863 
4026 2 -620.728 -4.52396 -414.901 -0.427262 -0.31343 0.803433 0.271486 
4025 2 -612.472 -5.5506 -409.439 -0.0597469 -0.852051 0.230111 0.466356 
4024 2 -605.19 -5.68624 -402.87 0.267651 -0.711515 -0.575725 0.301081 
4023 2 -597.375 -3.89051 -397.183 0.439685 0.0213752 -0.889335 0.123705 
4022 2 -587.931 -2.4242 -394.696 0.408314 0.649656 -0.461754 -0.444983 
4021 2 -578.512 -0.0425521 -393.027 0.0524767 0.76181 0.131417 -0.632156 
3955 2 -584.225 -30.2433 -437.906 0.162082 -0.937738 -0.21366 0.220742 
4020 2 -568.729 1.48113 -393.184 -0.512062 0.389758 0.593056 -0.483907 
3956 2 -588.995 -28.1401 -446.225 -0.0827267 -0.778452 0.582631 0.218426 
3957 2 -592.823 -26.2064 -455.173 -0.140515 -0.0198738 0.985401 0.0940519 
3999 2 -640.214 -47.5677 -419.114 0.408494 -0.2027 0.343955 0.820817 