ITEM: TIMESTEP
10000000
ITEM: NUMBER OF ATOMS
4067
ITEM: BOX BOUNDS pp pp pp
-4.6310929470000001e+03 4.6704658980000004e+03
-4.6310929470000001e+03 4.6704658980000004e+03
-4.6310929470000001e+03 4.6704658980000004e+03
ITEM: ATOMS id type x y z c_q[1] c_q[2] c_q[3] c_q[4] 
3990 2 -212.936 1291.31 -688.819 0.767109 -0.475099 -0.394426 0.173934 
3939 2 -165.405 1265.38 -738.298 -0.762945 -0.184124 -0.548689 -0.288016 
3940 2 -156.147 1266.19 -734.848 -0.295958 -0.435354 -0.111024 -0.842941 
3937 1 -175.983 1219.54 -741.732 -0.867699 0.140359 -0.459025 0.129201 
3936 2 -168.458 1173.75 -733.356 -0.0569605 0.887439 0.210141 -0.40626 
3935 2 -161.33 1174.76 -726.627 -0.355899 0.323364 0.854318 -0.197261 
3934 2 -153.795 1174.26 -720.265 -0.362227 -0.426304 0.802489 0.207527 
3933 2 -148.565 1176.46 -712.153 -0.196783 -0.925151 0.202975 0.253324 
3941 2 -148.081 1266.05 -729.187 0.522983 -0.372284 0.356718 -0.678709 
3942 2 -139.504 1264.86 -724.351 0.835681 0.0995141 0.537172 -0.0563953 
3932 2 -141.225 1178.2 -705.665 0.184191 -0.686917 -0.578176 0.399914 
3943 2 -130.765 1262.39 -720.331 0.607775 0.585113 0.23176 0.484293 
3944 2 -122.371 1257.77 -717.819 0.0314621 0.531248 -0.415321 0.737763 
3945 2 -114.699 1251.58 -716.864 -0.522066 -0.0531229 -0.665012 0.531399 
3938 3 -147.016 1219.61 -722.045 -0.869707 0.0764048 -0.477406 0.0992715 
3946 2 -107.992 1244.28 -715.795 -0.662964 -0.551327 -0.48256 -0.153796 
3929 2 -122.775 1195.68 -690.684 0.092804 0.716981 0.496908 -0.480008 
3930 2 -128.586 1189.44 -695.762 0.495219 0.77849 -0.347527 -0.167142 
3931 2 -134.399 1182.74 -700.226 0.445225 0.176369 -0.864027 0.155325 
3947 2 -100.124 1238.28 -716.002 -0.422753 -0.535191 0.129826 -0.719719 
3948 2 -93.5638 1231.83 -712.329 0.325409 -0.316157 0.539827 -0.709043 
3949 2 -85.7492 1226.2 -710.187 0.722518 0.296813 0.596584 -0.184277 
3950 2 -78.4894 1219.57 -709.186 0.616235 0.677174 0.173022 0.362978 
3977 2 -97.512 1260.9 -700.139 0.260443 -0.530198 -0.0852624 0.802365 
3978 2 -106.172 1262.07 -695.35 -0.490782 -0.359946 0.245806 0.754421 
3928 2 -115.579 1200.27 -685.675 -0.370454 0.074787 0.862184 -0.337358 
3927 2 -108.021 1205.44 -681.972 -0.548279 -0.56824 0.604748 0.103797 
3926 2 -101.685 1211.33 -677.137 -0.289097 -0.837269 -0.112402 0.450299 
4006 2 -100.694 1299.29 -710.153 0.190167 0.222121 0.947581 0.128797 
4007 2 -96.3675 1301.01 -718.874 -0.00602382 0.839606 0.487393 0.239738 
4009 2 -86.8187 1303.05 -735.952 -0.230562 0.157757 -0.950565 0.135573 
4010 2 -82.194 1300.76 -744.415 -0.132356 -0.695056 -0.705204 -0.0454469 
4008 2 -92.1008 1302.85 -727.625 -0.115166 0.839319 -0.476099 0.235816 
4011 2 -80.1938 1299.66 -754.071 -0.0655655 -0.991475 0.0570248 0.0970859 
4012 2 -82.1404 1298.57 -763.756 -0.128798 -0.62779 0.767653 0.000186804 
4013 2 -84.094 1297.08 -773.345 -0.0977607 0.328486 0.935258 0.0884972 
3979 2 -113.934 1262.19 -689.22 -0.809007 -0.0414534 0.576083 0.109169 
4014 2 -85.0262 1300.16 -782.777 -0.281519 0.890342 0.357778 -0.00571634 
3976 2 -90.4137 1259.3 -706.756 0.820615 -0.292914 -0.299748 0.388515 
4015 2 -87.8449 1304.99 -790.984 -0.16958 0.888043 -0.387941 -0.179229 
4016 2 -89.7306 1309.1 -799.809 -0.0234287 0.354034 -0.896874 -0.264059 
3980 2 -123.188 1262.57 -685.978 -0.489683 0.503517 0.389051 -0.596087 
3951 2 -71.4147 1212.69 -709.346 0.055272 0.499184 -0.497329 0.707407 
3981 2 -132.987 1262.62 -684.577 0.0790782 0.74822 -0.250887 -0.609072 
3989 2 -205.075 1285.57 -690.784 0.611346 0.0306653 -0.626388 -0.482653 
3975 2 -84.027 1259.53 -714.31 0.866097 0.118645 -0.326018 -0.359877 
4005 2 -104.663 1296.18 -701.649 0.286537 -0.536279 0.79377 -0.0151785 
3982 2 -142.529 1264.45 -686.412 0.547129 0.266374 -0.735058 -0.298974 
4004 2 -109.5 1294.03 -693.298 0.161141 -0.952649 0.102451 -0.236639 
3988 2 -196.7 1280.77 -692.664 0.0235532 0.568856 -0.338108 -0.749354 
3983 2 -152.197 1265.77 -687.946 0.580514 -0.358588 -0.573792 0.452969 
3986 2 -181.327 1268.71 -690.485 -0.629192 0.26876 0.709284 0.169711 
3985 2 -171.978 1266.15 -688.478 -0.389958 -0.441508 0.644347 0.487668 
3984 2 -162.076 1265.38 -687.828 0.0475331 -0.714344 0.0128527 0.69806 
3987 2 -189.498 1273.96 -692.615 -0.603003 0.675653 0.203763 -0.371969 
4003 2 -111.768 1292.96 -683.745 -0.0790554 -0.659576 -0.732879 -0.14696 
3974 2 -76.7394 1257.91 -720.817 0.116226 0.417184 -0.140542 -0.890335 
3925 2 -94.6346 1217.53 -673.734 0.179349 -0.395616 -0.728494 0.529733 
3924 2 -88.5986 1225.22 -672.278 0.559671 0.269379 -0.71442 0.322192 
3952 2 -64.3084 1205.77 -709.653 -0.499878 -0.122838 -0.775986 0.364526 
3953 2 -57.4258 1199.19 -712.278 -0.625662 -0.691001 -0.28154 -0.227596 
3923 2 -81.7181 1232.28 -672.109 0.595262 0.702024 -0.224639 -0.319943 
3973 2 -70.3875 1254.89 -727.8 -0.695848 0.347522 0.163711 -0.606813 
3972 2 -64.7627 1252.13 -735.407 -0.903514 0.0853952 0.353277 0.227081 
3971 2 -60.8095 1248.35 -743.621 -0.348976 -0.105453 0.262813 0.893322 
4002 2 -115.545 1293.74 -674.582 -0.136166 0.161453 -0.975434 0.0626057 
3970 2 -59.8089 1247.15 -753.38 0.480762 -0.0731378 0.00797319 0.873759 
4017 2 -91.2402 1313.68 -808.365 0.198546 -0.556927 -0.791871 -0.152813 
3922 2 -74.9716 1239.47 -671.744 0.0236213 0.551315 0.488102 -0.676203 
3969 2 -59.1947 1247.01 -763.21 0.980337 -0.0186387 -0.00997855 0.196194 
3968 2 -58.2696 1247.18 -773.094 0.784696 0.0191625 -0.0412325 -0.618211 
3921 2 -68.2892 1246.7 -671.369 -0.492701 -0.0576602 0.737874 -0.457671 
3920 2 -60.6974 1253.12 -670.4 -0.659131 -0.597258 0.442049 0.115858 
3966 2 -58.3116 1248.28 -792.712 -0.777392 -0.0546035 0.0625002 -0.623517 
3967 2 -58.1293 1246.84 -782.938 -0.060255 0.00127835 -0.00864261 -0.998145 
3954 2 -50.8458 1191.96 -713.749 -0.116573 -0.778651 0.360806 -0.499932 
3855 2 89.2759 1238.36 -812.783 0.640074 0.60988 0.467232 0.00677348 
3854 2 82.9069 1245.67 -810.675 0.419803 0.00573851 0.765978 -0.486837 
3955 2 -43.9381 1186.25 -718.066 0.237102 -0.196318 0.904582 -0.294912 
3956 2 -38.7128 1181.89 -725.168 0.383933 0.597398 0.697996 0.0922579 
3853 2 76.6449 1253.15 -808.788 -0.120371 -0.605577 0.468238 -0.632092 
3957 2 -32.6245 1178.06 -732.025 0.100773 0.907528 -0.00925601 0.407618 
3852 2 69.3836 1259.2 -805.737 -0.512662 -0.754997 -0.292186 -0.285979 
3958 2 -25.3155 1176.06 -738.474 -0.220648 0.545271 -0.766451 0.257967 
3963 2 -2.14664 1176.49 -781.428 0.0861645 0.713877 0.655995 0.229404 
3962 2 -6.54322 1174.66 -772.784 0.242716 -0.048273 0.966438 0.0689737 
3959 2 -19.0983 1174.46 -745.995 -0.231232 -0.28919 -0.927794 -0.0458052 
3961 2 -10.3794 1173.67 -763.695 0.1665 -0.782496 0.591753 -0.0990285 
3960 2 -14.3249 1174.12 -754.649 -0.102378 -0.914137 -0.330608 -0.211117 
3965 3 -37.7483 1210.12 -764.111 0.96981 0.0156258 -0.159219 0.184049 
3964 1 -28.4582 1212.07 -797.823 0.979247 -0.0194178 -0.133146 0.151563 
3862 2 68.08 1239.99 -717.015 0.157723 -0.771855 0.131248 0.601778 
3863 2 59.2362 1244.32 -718.615 -0.317114 -0.354634 0.637925 0.605579 
3864 2 50.8014 1249.45 -719.194 -0.702471 0.195807 0.676394 0.103372 
3902 2 -24.6668 1224.49 -747.954 -0.851149 -0.0810805 -0.331162 0.399128 
3903 2 -19.8862 1220.77 -740.2 -0.880608 -0.29279 -0.093657 -0.3606 
3904 2 -16.4092 1216.37 -732.07 -0.186445 -0.23448 0.252481 -0.92006 
3905 2 -12.4987 1211.59 -724.389 0.637582 0.0325587 0.362589 -0.678939 
3906 2 -8.36116 1206.18 -717.181 0.912677 0.243028 0.320698 0.0714939 
3907 2 -2.2653 1201.92 -710.656 0.524506 0.403899 0.100944 0.742678 
3901 2 -26.0045 1229.79 -756.191 -0.0712877 0.0600158 -0.304281 0.948013 
3900 2 -25.0684 1234.06 -765.078 0.739862 0.118425 -0.190623 0.634226 
3857 3 77.2197 1246.02 -762.873 -0.274087 -0.340601 0.512258 0.739229 
3908 2 4.63701 1199.05 -704.186 -0.270974 0.398959 -0.262073 0.835896 
3909 2 12.6822 1196.86 -698.848 -0.818175 0.0191641 -0.485336 0.307687 
3865 2 41.9723 1253.89 -719.444 -0.416039 0.680823 0.363354 -0.481004 
3866 2 32.6524 1256.41 -721.577 0.107697 0.679853 -0.385001 -0.614797 
3867 2 23.5461 1259.68 -723.768 0.461729 0.18138 -0.780704 -0.380013 
3899 2 -24.1244 1240.11 -772.892 0.946762 0.306433 -0.00138384 -0.0986822 
3898 2 -21.6347 1247.83 -778.489 0.50044 0.364837 0.26778 -0.73807 
3897 2 -17.0828 1255.28 -783.096 -0.255297 0.102949 0.502524 -0.81957 
3896 2 -11.6297 1262.6 -786.952 -0.788757 -0.335082 0.447233 -0.256056 
3868 2 14.8772 1263.61 -726.604 0.611259 -0.495291 -0.565514 0.247472 
3869 2 5.81072 1267.24 -728.176 0.365945 -0.761238 0.160783 0.510637 
3870 2 -0.726265 1274.38 -730.369 -0.290147 -0.409338 0.685925 0.527033 
3895 2 -6.69611 1270.9 -789.098 -0.598933 -0.600215 -0.128788 0.514232 
3894 2 -1.74522 1279.27 -790.939 0.0369196 -0.292255 -0.569621 0.767305 
3893 2 3.52511 1287.61 -789.935 0.524581 0.254266 -0.692703 0.424649 
3851 2 63.9913 1265.32 -800.172 -0.429039 -0.339988 -0.814371 0.192699 
3850 2 57.9076 1270.83 -794.594 -0.139975 0.466883 -0.754017 0.440323 
3849 2 53.8751 1276.28 -787.309 0.24646 0.926742 -0.153108 0.238671 
3848 2 52.1876 1281.01 -778.806 0.229146 0.68621 0.683623 -0.0962624 
3847 2 51.4541 1285.75 -770.204 0.0147358 -0.131618 0.95899 -0.250595 
3846 2 51.2905 1288.08 -760.569 -0.108816 -0.844013 0.523218 -0.0452019 
3892 2 8.78506 1295.69 -787.237 0.583422 0.766166 -0.18323 -0.197574 
3871 2 -8.32984 1280.16 -733.113 -0.580271 0.379436 0.710656 0.11951 
3845 2 51.7742 1290.74 -751.089 -0.142129 -0.922788 -0.34655 0.090357 
3872 2 -15.6892 1286.03 -735.907 -0.54403 0.732537 0.212416 -0.349716 
3873 2 -22.8932 1292.71 -737.727 -0.0923338 0.675063 -0.468178 -0.562649 
3844 2 50.8569 1293.19 -741.575 -0.0761634 -0.350161 -0.924003 0.133436 
3843 2 52.393 1295.01 -731.967 0.123999 0.478212 -0.867376 0.0599618 
3874 2 -29.7729 1299.16 -740.981 0.482214 0.00408321 -0.801021 -0.354709 
3842 2 57.2398 1296.31 -723.352 0.0960873 0.951549 -0.146624 -0.252634 
3875 2 -37.326 1305.09 -743.508 0.521902 -0.740329 -0.341587 0.250699 
3841 2 63.748 1296.75 -715.98 -0.199907 0.713491 0.598491 -0.304592 
3840 2 70.4836 1297.01 -708.705 -0.361324 -0.0228563 0.932139 0.00630237 
3839 2 76.9122 1296.79 -701.153 -0.204647 -0.733774 0.590909 0.26556 
3838 2 83.8501 1298.19 -694.231 -0.022584 -0.90948 -0.146409 0.38846 
3891 2 14.9205 1302.89 -784.533 0.219632 0.656717 0.439837 -0.571864 
3911 3 -12.1314 1241.86 -691.296 0.575222 0.261797 -0.743577 -0.218346 
3910 1 21.5562 1240 -681.986 0.586938 0.237052 -0.74953 -0.19369 
3861 2 77.3981 1236.68 -718.267 0.643769 -0.51461 -0.370737 0.428125 
3876 2 -44.6953 1311.16 -746.191 0.233402 -0.670004 0.487725 0.508667 
3860 2 87.1252 1235 -718.756 0.710554 0.081114 -0.670733 -0.196599 
3837 2 91.8528 1297.86 -688.409 0.396232 -0.498582 -0.733799 0.236549 
3890 2 20.7643 1310.65 -782.498 -0.295221 0.138365 0.773874 -0.542972 
3912 2 9.28515 1283.81 -669.443 -0.21564 -0.67492 0.108205 0.697333 
3919 2 -52.0791 1257.94 -669.975 -0.230384 -0.686228 -0.114974 0.680291 
3918 2 -43.9602 1263.32 -668.137 0.33147 -0.362173 -0.677279 0.547953 
3913 2 -0.475614 1282.32 -668.604 -0.681155 -0.389327 0.486859 0.383955 
3859 2 96.4205 1232.51 -721.369 0.229161 0.499322 -0.333511 -0.766116 
3856 1 105.513 1226.73 -770.011 -0.27047 -0.376721 0.498016 0.73274 
3858 2 105.37 1228.68 -722.859 -0.444586 0.6653 0.12864 -0.585808 
3836 2 100.985 1299.73 -685.227 0.581785 0.282203 -0.758017 -0.0854304 
3835 2 110.532 1301.99 -683.433 0.329857 0.731042 -0.207988 -0.559922 
3834 2 120.23 1304.22 -683.473 -0.245959 0.617238 0.356195 -0.656997 
3833 2 129.599 1307.11 -685.115 -0.740597 0.0359771 0.636518 -0.212289 
3832 2 138.283 1308.27 -689.622 -0.686315 -0.353317 0.341285 0.536343 
3831 2 146.554 1308.62 -695.041 -0.0320111 -0.462531 -0.00636177 0.886002 
4032 2 -93.1854 1334.09 -670.925 0.733902 0.0588106 0.21174 -0.642725 
4031 2 -93.8481 1338.04 -680.026 -0.0726919 -0.0413926 0.194932 -0.977243 
4030 2 -94.291 1342.03 -689.061 -0.842964 -0.167798 0.0968006 -0.501881 
4019 3 -111.649 1333.07 -764.794 -0.925433 -0.239657 -0.163274 -0.243884 
4029 2 -97.6482 1345.64 -697.6 -0.952008 -0.147013 -0.225053 0.146352 
4028 2 -102.103 1348.35 -706.123 -0.532393 0.0959641 -0.228064 0.809528 
4018 1 -124.868 1344.11 -795.369 -0.937096 -0.218306 -0.150572 -0.226986 
4022 2 -138.849 1366.14 -748.638 -0.805904 0.0962529 -0.389304 0.435542 
4023 2 -132.289 1363.91 -741.498 -0.818205 -0.283498 -0.299348 -0.400699 
4020 2 -151.946 1366.06 -763.598 0.543849 0.29659 0.164366 0.767624 
4021 2 -145.579 1365.57 -755.92 -0.222613 0.358384 -0.0401737 0.905754 
4024 2 -125.074 1361.22 -735.246 -0.221368 -0.387916 0.1538 -0.881399 
4025 2 -119.024 1356.68 -728.838 0.564794 -0.0773899 0.340877 -0.747544 
4026 2 -114.066 1353.01 -721.074 0.924807 0.196297 0.270966 0.181047 
4027 2 -108.688 1349.97 -713.297 0.352514 0.319145 0.0508804 0.878232 
3882 2 -56.813 1363.09 -770.169 0.475048 -0.869586 0.0103696 0.134323 
3881 2 -54.4651 1355.05 -764.886 0.391018 -0.562672 -0.67676 -0.269259 
3880 2 -53.5065 1345.79 -761.608 -0.161841 0.285328 -0.777956 -0.535891 
3879 2 -52.5332 1336.34 -758.787 -0.541651 0.771619 -0.229726 -0.241754 
3877 2 -48.9543 1319.38 -749.734 -0.223802 -0.0138725 0.853356 0.470642 
3889 2 25.9533 1319.07 -782.009 -0.642137 -0.497222 0.541713 -0.216741 
3878 2 -52.2574 1327.57 -754.182 -0.421402 0.725391 0.486715 0.24359 
3885 2 34.6787 1356.95 -775.204 0.655312 0.743222 0.00886949 -0.134567 
3888 2 29.2214 1328.3 -780.14 -0.558144 -0.788488 -0.0746601 0.247362 
3886 2 33.3482 1347.26 -776.829 0.376268 0.416336 -0.68227 0.468609 
3887 2 32.2784 1337.65 -778.93 -0.0958099 -0.36515 -0.64859 0.660921 
3883 1 -10.4051 1370.73 -773.381 0.416394 0.357295 0.542797 -0.635868 
3823 2 73.003 1361.79 -726.669 -0.103555 -0.974041 -0.110533 -0.168234 
3822 2 71.4146 1362.41 -716.93 -0.107608 -0.425933 -0.898309 -0.00652393 
3821 2 71.1825 1362.41 -707.055 -0.00439979 0.446579 -0.894734 9.63521e-05 
3884 3 -12.5263 1335.97 -769.542 0.416303 0.350384 0.558726 -0.625898 
3774 2 25.7731 1348.32 -680.235 -0.26469 -0.861403 0.0217106 0.432958 
3773 2 33.2213 1352.23 -674.938 0.175563 -0.562079 -0.658998 0.467938 
3820 2 71.9958 1362.68 -697.17 0.0385571 0.984897 -0.160327 -0.0527914 
3819 2 72.0177 1361.29 -687.355 -0.0391948 0.702007 0.710104 0.0374407 
3818 2 70.6531 1360.25 -677.656 0.0825536 -0.150031 0.982279 0.0761806 
3817 2 69.4046 1356.56 -668.608 0.198091 -0.853344 0.481274 0.030657 
3746 2 91.5907 1460.07 -674.881 0.283832 -0.696055 0.00610436 -0.659477 
3772 2 39.619 1358.34 -670.394 0.446153 0.209596 -0.830655 0.258899 
3824 2 76.4952 1360.5 -735.876 0.165552 -0.633999 0.699426 -0.28538 
3825 2 82.1323 1359.02 -743.799 0.362586 0.106163 0.923025 0.0727093 
3826 2 89.2428 1358.93 -750.714 0.284853 0.765495 0.48008 0.319998 
3745 2 82.1502 1457.49 -676.319 -0.382445 -0.437303 -0.483617 -0.654688 
3744 2 72.3401 1456.46 -677.308 -0.743714 0.0218466 -0.666112 -0.0520254 
3743 2 62.5413 1455.28 -676.366 -0.469332 0.573882 -0.442865 0.504239 
3742 2 52.9349 1456.46 -674.498 0.183346 0.762711 0.105103 0.611236 
3741 2 44.5299 1457.01 -669.338 0.364821 0.532855 0.712729 0.273842 
3827 2 96.6882 1357.42 -757.042 -0.0897524 0.798587 -0.352628 0.479434 
3747 2 100.81 1463.55 -674.72 0.669531 -0.455488 0.53543 -0.239944 
3830 3 104.562 1329.88 -717.045 -0.320245 -0.50654 0.134017 0.78924 
3828 2 104.965 1355.54 -762.162 -0.450368 0.167839 -0.852353 0.206137 
3829 1 135.249 1333.49 -733.51 -0.308103 -0.502768 0.162048 0.791225 
3992 3 -169.571 1300.54 -661.795 0.530143 0.4495 0.713838 0.0856382 
4045 1 -80.9057 1260.32 -563.469 0.141002 -0.851607 -0.364482 -0.349338 
4046 3 -66.985 1278.4 -590.056 0.20508 -0.867111 -0.340634 -0.300049 
4044 2 -101.716 1302.5 -559.757 -0.951697 -0.116078 0.200914 -0.201077 
4043 2 -98.4163 1305.55 -568.575 -0.731218 -0.206241 0.0600953 0.647436 
4001 2 -117.871 1296.41 -665.282 0.0544724 0.887127 -0.431287 0.155015 
4000 2 -122.246 1301.33 -657.907 0.367545 0.847096 0.372315 0.0933828 
3999 2 -126.926 1306.59 -650.996 0.282048 0.159753 0.91093 -0.255214 
3998 2 -131.698 1310.63 -643.323 0.0236881 -0.683729 0.653416 -0.324039 
3991 1 -199.907 1311.48 -648.185 0.547998 0.421849 0.71853 0.0738666 
4042 2 -94.6963 1306.89 -577.666 -0.0525744 -0.202115 -0.0804113 0.974638 
4041 2 -90.7194 1310.59 -585.977 0.688753 -0.0281328 -0.276766 0.669498 
4040 2 -88.1354 1312.77 -595.292 0.975323 0.131669 -0.119438 -0.130927 
3997 2 -136.901 1314.51 -635.876 -0.254722 -0.926786 -0.129 -0.244016 
4039 2 -88.276 1315.23 -604.929 0.626884 0.0672265 0.106342 -0.768888 
3917 2 -35.388 1267.46 -665.367 0.607994 0.27893 -0.741096 0.0575982 
3914 2 -9.99359 1281.16 -666.098 -0.731097 0.0109258 0.617398 -0.290167 
3915 2 -18.8719 1277.51 -663.915 -0.187739 0.543928 0.436792 -0.691454 
3916 2 -27.9834 1273.71 -663.496 0.500385 0.764843 -0.161343 -0.372288 
4047 2 -50.2133 1229.92 -582.396 0.333052 -0.910725 -0.101505 -0.222155 
4048 2 -46.7454 1236.26 -589.084 0.388497 -0.65889 0.636245 0.100628 
4049 2 -42.8599 1242.42 -595.904 0.206467 0.0511337 0.94152 0.261338 
4055 2 -41.4119 1289.03 -625.39 0.480716 -0.754955 0.258633 0.363406 
4054 2 -39.569 1279.62 -622.787 0.58205 -0.720467 -0.347199 -0.146961 
4050 2 -38.9053 1247.05 -603.732 -0.203866 0.752754 0.548844 0.300948 
4051 2 -36.3091 1253.5 -610.774 -0.433793 0.869283 -0.218588 -0.091601 
4053 2 -37.4497 1270.11 -620.837 0.259339 -0.176636 -0.760373 -0.568662 
4052 2 -35.4896 1261.28 -616.874 -0.236406 0.471191 -0.683993 -0.504227 
3804 2 37.8966 1288.01 -568.805 -0.0286941 0.128125 0.914256 0.383271 
3802 1 73.0763 1263.87 -588.878 0.349869 -0.453149 0.714554 0.40207 
4056 2 -43.5712 1298.35 -628.041 0.147078 -0.360977 0.824545 0.410109 
3803 3 76.8067 1295.94 -602.446 0.342357 -0.436312 0.709028 0.435549 
3805 2 37.931 1294.94 -575.735 -0.34802 0.745898 0.523825 0.219375 
3806 2 37.5 1302.43 -582.127 -0.354961 0.909365 -0.173914 -0.129659 
4057 2 -44.3724 1306.04 -634.156 -0.313507 0.329463 0.782727 0.42486 
3807 2 36.6992 1308.83 -589.557 -0.236225 0.46104 -0.830724 -0.203807 
3808 2 38.2256 1314.78 -597.32 0.0454585 -0.384524 -0.86866 -0.309037 
4058 2 -46.5044 1314.86 -638.251 -0.539837 0.764175 0.28985 0.201494 
3801 2 110.298 1259.45 -617.533 0.028657 -0.0937963 -0.688669 0.718413 
3800 2 111.89 1269.21 -618.189 0.604036 0.501614 -0.468442 0.405075 
3799 2 113.98 1278.9 -618.369 0.673764 0.70718 0.0636918 -0.204651 
3798 2 114.041 1288.31 -621.671 0.324959 0.271805 0.530562 -0.734185 
3797 2 113.816 1297.93 -623.976 -0.310745 -0.269936 0.544746 -0.730633 
3796 2 113.825 1307.74 -622.567 -0.64939 -0.724833 0.159476 -0.165759 
3996 2 -143.808 1317.56 -629.507 -0.399571 -0.448393 -0.79823 -0.0459946 
3995 2 -152.943 1319.81 -626.365 -0.465682 0.304056 -0.758451 0.339767 
3994 2 -160.888 1321.08 -620.539 -0.101008 0.826203 -0.341749 0.436342 
3993 2 -168.595 1321.92 -614.392 0.184624 0.826604 0.405151 0.344227 
4033 2 -91.2765 1330.42 -661.862 0.967781 0.221296 -0.0475935 0.110282 
4038 2 -88.343 1317.57 -614.525 -0.245893 -0.0819757 0.122494 -0.958025 
4037 2 -88.3406 1319.52 -624.292 -0.882107 -0.0861209 0.0460455 -0.460815 
4036 2 -89.0544 1320.71 -634.083 -0.946285 -0.0430809 -0.0717484 0.312316 
4035 2 -90.4812 1322.39 -643.772 -0.28755 0.0526157 -0.094057 0.951683 
4034 2 -91.357 1326.25 -652.862 0.517948 0.140641 -0.152081 0.829952 
3771 2 43.138 1366.36 -666.056 0.529458 0.824471 -0.156162 -0.124638 
3740 2 37.2056 1457.24 -662.797 0.394874 -0.242175 0.878458 -0.117209 
4067 2 -42.3753 1402.38 -645.511 -0.255301 0.175676 -0.660965 -0.683436 
3816 2 66.122 1353.43 -659.886 0.0761991 -0.909372 -0.342072 -0.224107 
3770 2 45.2396 1375.23 -662.096 0.313685 0.636539 0.551334 -0.438692 
4066 2 -42.9732 1392.49 -646.421 -0.657024 0.635179 -0.299711 -0.273934 
3769 2 46.4609 1384.12 -658.021 -0.0912215 -0.00845544 0.840325 -0.534285 
4065 2 -43.28 1382.79 -648.215 -0.681093 0.554877 0.276318 0.389707 
4064 2 -43.9065 1372.91 -647.583 -0.171515 0.220873 0.663667 0.693789 
3768 2 47.5056 1392.72 -653.405 -0.474369 -0.657148 0.511082 -0.286228 
4063 2 -44.1902 1363.04 -647.074 0.414037 -0.420815 0.604123 0.53528 
3767 2 45.7046 1402.14 -651.011 -0.608587 -0.768678 -0.191333 0.046344 
3766 2 44.0517 1411.22 -647.245 -0.275083 -0.324656 -0.75742 0.49522 
4062 2 -45.1388 1353.28 -646.156 0.665449 -0.742375 0.0608847 -0.048469 
4061 2 -47.0208 1343.71 -644.421 0.393074 -0.55728 -0.504193 -0.529831 
3815 2 62.1476 1349.61 -651.609 -0.134294 -0.343782 -0.888614 -0.272294 
3775 1 -3.893 1373.48 -653.449 0.818473 0.166728 0.475197 0.276571 
4059 2 -45.859 1324.16 -641.39 -0.529846 0.648128 -0.361019 -0.410924 
4060 2 -46.9214 1333.93 -642.504 -0.102108 0.138433 -0.743633 -0.646081 
3814 2 59.6242 1344.54 -643.457 -0.257526 0.519056 -0.797437 -0.168389 
3813 2 55.8167 1340.22 -635.366 -0.222253 0.948167 -0.05865 0.219416 
3777 2 -15.2294 1397.96 -614.752 0.835399 -0.186344 0.498288 -0.138178 
3809 2 39.5762 1320.14 -605.534 0.236633 -0.900299 -0.252999 -0.26355 
3778 2 -6.30658 1400.16 -611.073 0.592638 0.186748 0.538873 0.568789 
3765 2 42.4829 1419.69 -642.323 0.154149 0.446762 -0.739122 0.479937 
3764 2 42.8183 1427.84 -636.971 0.467328 0.869104 -0.153592 0.0516969 
3763 2 41.1204 1436.27 -631.967 0.435283 0.573797 0.62614 -0.29872 
3779 2 2.43658 1403.82 -608.078 -0.114714 0.618285 0.0840201 0.772985 
3780 2 11.8234 1405.97 -605.96 -0.620105 0.426888 -0.509025 0.417288 
3781 2 21.5713 1406.96 -604.698 -0.688706 -0.222369 -0.672147 -0.156383 
3810 2 43.8213 1325.6 -612.625 0.401785 -0.780906 0.474573 -0.059448 
3811 2 49.0257 1330.38 -619.521 0.249671 -0.272844 0.898043 0.2382 
3812 2 52.6969 1335.61 -627.072 -0.0128323 0.553813 0.791407 0.258462 
3776 3 26.2196 1374.72 -635.548 0.829547 0.151055 0.474818 0.252156 
3782 2 31.3484 1405.67 -604.954 -0.363342 -0.677185 -0.121771 -0.628152 
3783 2 40.8236 1402.82 -605.005 0.247495 -0.541331 0.421139 -0.68436 
3784 2 50.3776 1400.32 -604.615 0.552736 0.0387465 0.772418 -0.310405 
3785 2 58.8699 1395.47 -606.506 0.677136 0.564324 0.376556 0.285012 
3786 2 67.0839 1390.01 -605.797 0.214305 0.606222 -0.249644 0.724049 
3787 2 74.5897 1383.67 -604.512 -0.32937 0.150782 -0.689732 0.626936 
3788 2 80.4761 1375.66 -604.709 -0.682535 -0.4662 -0.544231 0.143583 
3789 2 85.8315 1367.47 -604.899 -0.502895 -0.758877 -0.000386968 -0.413765 
3762 2 41.3399 1444.58 -626.433 -0.0622631 -0.0901842 0.891175 -0.440224 
3761 2 41.2089 1454.12 -623.811 -0.519349 -0.675424 0.425922 -0.304417 
3790 2 91.5701 1359.65 -606.953 0.0137452 -0.451579 0.637336 -0.624252 
3760 2 40.2718 1463.78 -621.801 -0.622699 -0.732545 -0.243339 0.128101 
3739 2 30.6566 1461.81 -656.956 0.00204834 -0.70644 0.5152 -0.485291 
3738 2 25.1162 1467.49 -650.974 -0.359884 -0.880466 -0.132752 -0.278639 
3791 2 97.2195 1351.9 -609.088 0.437874 0.241502 0.743657 -0.443754 
3792 2 101.52 1343.31 -611.484 0.578492 0.784366 0.216107 0.0584263 
3795 2 110.804 1317.1 -621.689 -0.606206 -0.53815 -0.506207 0.294385 
3793 2 105.407 1334.76 -614.652 0.303052 0.68137 -0.513246 0.424822 
3794 2 109.186 1326.42 -618.435 -0.0526822 0.0705117 -0.818877 0.567179 
3642 2 -209.284 1579.97 -541.318 0.79967 -0.174031 0.468098 0.333353 
3643 2 -202.612 1585.64 -536.64 0.2981 0.305585 0.402457 0.809804 
3684 2 -89.0415 1573.56 -539.568 0.485654 -0.0944787 0.835805 0.237999 
3685 2 -81.4963 1578.54 -543.493 0.0390448 0.646377 0.557501 0.519485 
3686 2 -74.8891 1584.21 -548.068 -0.395647 0.854231 -0.0953322 0.323518 
3683 2 -97.761 1571 -535.715 0.44066 -0.667627 0.499938 -0.331896 
3682 2 -107.269 1570.42 -533.053 -0.100256 -0.788205 -0.166758 -0.583843 
3681 2 -116.172 1570.2 -528.755 -0.471436 -0.349226 -0.786036 -0.194772 
3687 2 -68.5029 1590.31 -552.512 -0.568735 0.436449 -0.684318 -0.133272 
3644 2 -195.571 1590.25 -531.487 -0.469134 0.48138 0.00725746 0.740361 
3645 2 -188.725 1594.97 -526.133 -0.880545 0.276129 -0.36581 0.120733 
3688 2 -61.9403 1596.75 -556.021 -0.205571 -0.20378 -0.78537 -0.547182 
3680 2 -124.31 1567.4 -523.78 -0.480365 0.412578 -0.770507 0.0731325 
3646 2 -181.246 1598.55 -520.731 -0.702597 -0.14666 -0.308835 -0.624075 
3640 1 -199.907 1540.18 -517.771 -0.904957 0.403239 -0.0710329 0.115783 
3679 2 -129.997 1563.66 -516.573 -0.199404 0.928452 -0.162322 0.268081 
3748 1 92.205 1508.28 -662.298 -0.828211 -0.306709 0.458217 0.10017 
3689 2 -56.3715 1604.48 -558.811 0.277408 -0.780972 -0.183284 -0.52871 
3759 2 38.4775 1473.18 -619.316 -0.307308 -0.251849 -0.759967 0.514377 
3737 2 21.3618 1474.96 -645.612 -0.399597 -0.464227 -0.739548 0.279079 
3717 2 -49.636 1564.05 -652.992 0.132323 -0.124407 0.768415 0.613638 
3715 2 -48.7082 1545.7 -646.284 0.489435 -0.800241 -0.287463 -0.193474 
3716 2 -48.4442 1554.55 -650.749 0.53236 -0.700412 0.329553 0.342652 
3714 2 -47.5592 1537.27 -641.128 0.17162 -0.244076 -0.845555 -0.442731 
3720 2 -48.8754 1593.48 -656.033 -0.53 0.504125 -0.474994 -0.489222 
3719 2 -49.2013 1583.55 -656.173 -0.721073 0.681219 0.0893614 0.0894942 
3713 2 -45.5585 1530.46 -634.174 -0.130201 0.542081 -0.739132 -0.377994 
3710 2 -36.8424 1523.81 -607.393 -0.0753771 -0.239331 0.966617 0.0518664 
3711 2 -38.4778 1524.82 -617.104 -0.14341 0.560993 0.814995 -0.0224318 
3709 2 -36.3925 1524 -597.525 -0.037638 -0.938058 0.344423 0.00174271 
3712 2 -41.6076 1525.97 -626.39 -0.256906 0.947058 0.00884368 -0.19236 
3708 2 -37.5365 1524.44 -587.68 -0.0289863 -0.830999 -0.554365 -0.035762 
3750 2 64.469 1542.87 -646.154 0.801605 0.409385 -0.186705 -0.393668 
3751 2 58.6741 1538.3 -639.611 0.798525 0.0382008 -0.424629 0.424957 
3707 2 -36.2211 1525.02 -577.901 0.0400907 -0.0854394 -0.994977 0.0333615 
3706 2 -35.0842 1525.45 -568.17 0.0175372 0.720961 -0.692031 -0.0316263 
3705 2 -35.1979 1527.87 -558.595 0.0628341 0.969297 0.237189 -0.0160246 
3749 3 64.2751 1491.08 -650.11 -0.832687 -0.291367 0.464349 0.0782118 
3758 2 38.0562 1482.44 -615.905 0.264405 0.491254 -0.674182 0.483982 
3736 2 16.6669 1481.53 -639.889 -0.181519 0.248499 -0.854959 0.417546 
3757 2 38.0514 1492.35 -615.809 0.677431 0.732274 -0.0394531 0.0574836 
3756 2 37.9017 1502.19 -616.727 0.515973 0.473349 0.48388 -0.52495 
3755 2 40.0467 1511.7 -618.383 -0.172886 -0.0322077 0.636173 -0.751237 
3752 2 52.5381 1533.72 -633.295 0.137179 -0.186405 -0.356272 0.905265 
3754 2 43.4557 1520.16 -622.204 -0.792117 -0.383633 0.374756 -0.291435 
3753 2 47.9894 1527.84 -626.654 -0.614272 -0.509845 -0.108922 0.592337 
3718 2 -49.2607 1573.7 -654.887 -0.339417 0.424933 0.640788 0.541866 
3722 3 -19.9 1568.88 -620.848 0.634247 0.639801 0.350006 -0.256674 
3725 2 9.94189 1573.72 -588.245 -0.272971 -0.524903 0.60781 -0.529651 
3726 2 12.1341 1564.49 -591.104 0.164807 0.209806 0.781222 -0.564369 
3727 2 12.3971 1555.02 -594.074 0.485584 0.777126 0.339633 -0.211972 
3728 2 11.9324 1545.95 -598.102 0.436671 0.746426 -0.485643 0.127741 
3729 2 9.05241 1538.45 -603.74 0.126084 0.0746361 -0.851351 0.503719 
3730 2 7.56914 1529.87 -608.561 -0.37314 -0.578555 -0.614046 0.38599 
3731 2 7.66471 1520.89 -612.643 -0.441008 -0.897009 0.0294588 0.00425447 
3732 2 7.23419 1512.72 -618.335 -0.25759 -0.542621 0.69162 -0.401088 
3733 2 7.84829 1504.36 -623.483 0.173944 0.182868 0.845298 -0.47093 
3734 2 9.66387 1496.06 -628.488 0.439197 0.743524 0.499173 -0.0714416 
3735 2 13.0611 1488.41 -633.707 0.325983 0.845812 -0.279844 0.316268 
3724 2 7.84857 1583.08 -585.797 -0.607057 -0.783854 -0.00136342 -0.130587 
3723 2 6.88371 1592.59 -583.117 -0.467196 -0.539052 -0.5859 0.384541 
3721 1 -22.2257 1603.72 -618.482 0.595034 0.660749 0.369654 -0.26963 
3694 1 3.12419 1599.99 -534.574 -0.346479 -0.724833 -0.115585 0.584132 
3695 3 -24.511 1578.78 -537.976 -0.294064 -0.74853 -0.100896 0.585704 
3704 2 -33.4041 1530.45 -549.277 -0.0674846 0.406902 0.888696 -0.200239 
3703 2 -29.4511 1533.49 -540.722 -0.257238 -0.483648 0.834915 -0.053196 
3702 2 -25.7679 1534.54 -531.624 -0.0637965 -0.977693 0.0979282 0.174518 
3701 2 -20.026 1536.43 -523.841 0.13814 -0.689367 -0.655245 0.276304 
3700 2 -12.9029 1539.83 -517.88 0.419734 0.166828 -0.880133 0.146143 
3690 2 -49.1438 1610.57 -561.952 0.467944 -0.646939 0.53085 -0.284072 
3691 2 -40.4965 1613.87 -565.242 0.590173 0.00775467 0.776006 0.222376 
3692 2 -31.2247 1617.29 -566.888 0.212588 0.615759 0.474054 0.592385 
3693 2 -22.067 1620.49 -568.798 -0.283183 0.769885 -0.125548 0.557963 
3451 1 -418.07 1386.83 -369.99 0.945198 -0.19035 -0.0623463 0.257839 
3453 2 -449.596 1420.82 -378.42 -0.848845 0.285935 0.0219527 0.444096 
3454 2 -447.427 1425.8 -370.08 -0.92067 0.178414 -0.142205 -0.316722 
3588 2 -301.008 1452.93 -441.347 -0.100433 0.546293 0.765412 0.324996 
3589 2 -299.058 1459.22 -448.82 -0.428781 0.873931 0.199602 0.112031 
3590 2 -298.817 1467.19 -454.723 -0.378034 0.636675 -0.618985 -0.261901 
3558 2 -482.933 1531.41 -462.134 0.495359 0.464339 -0.728571 -0.0905147 
3557 2 -474.713 1534.4 -457.547 0.183867 0.856402 0.0130536 -0.482284 
3556 2 -467.114 1535.74 -451.387 -0.247606 0.652741 0.613097 -0.369773 
3555 2 -458.3 1536.68 -447.116 -0.548921 -0.0358813 0.835027 -0.0112961 
3554 2 -449.975 1538 -441.858 -0.333752 -0.770442 0.369531 0.398091 
3553 2 -443.13 1538.19 -434.73 0.113276 -0.882841 -0.296137 0.346501 
3551 2 -428.307 1535.29 -421.867 0.375304 0.3876 -0.814586 -0.212986 
3552 2 -435.675 1536.74 -428.351 0.413005 -0.426682 -0.792299 0.140111 
3560 3 -454.065 1573.34 -472.794 -0.735044 0.232125 -0.577907 0.268051 
3571 2 -387.927 1579.72 -468.996 -0.383842 -0.567374 0.039724 -0.727443 
3550 2 -421.028 1532.8 -415.587 -0.0242324 0.864906 -0.241859 -0.439152 
3549 2 -414.153 1533.09 -408.584 -0.268921 0.732537 0.545213 -0.306289 
3548 2 -407.882 1533.1 -400.96 -0.318528 0.074883 0.944702 -0.0217059 
3570 2 -395.146 1584.9 -473.378 -0.818078 -0.380045 -0.398183 -0.166628 
3569 2 -401.856 1590.07 -478.522 -0.622078 0.0110287 -0.50718 0.596378 
3568 2 -410.141 1594.41 -481.759 0.0345009 0.54163 -0.251216 0.801459 
3567 2 -417.159 1599.12 -486.954 0.68542 0.493653 0.145759 0.515034 
3547 2 -402.831 1534.19 -392.476 -0.207358 -0.740899 0.624395 0.134919 
3546 2 -398.342 1534.17 -383.635 0.00431356 -0.968901 -0.0999979 0.226301 