ITEM: TIMESTEP
10000000
ITEM: NUMBER OF ATOMS
4067
ITEM: BOX BOUNDS pp pp pp
-4.6310929470000001e+03 4.6704658980000004e+03
-4.6310929470000001e+03 4.6704658980000004e+03
-4.6310929470000001e+03 4.6704658980000004e+03
ITEM: ATOMS id type x y z c_q[1] c_q[2] c_q[3] c_q[4] 
3219 2 17.5214 533.683 -389.321 -0.484164 0.357101 -0.521868 -0.604746 
3218 2 19.2591 524.038 -390.61 -0.745924 0.658171 0.0852164 -0.0561005 
3217 2 19.7027 514.164 -391.208 -0.459479 0.401932 0.550276 0.569672 
3216 2 18.0571 504.596 -392.74 0.340877 -0.183681 0.621636 0.680905 
3215 2 16.5515 494.938 -394.153 0.733986 -0.575392 0.268764 0.240737 
3214 2 13.3158 485.663 -394.468 0.55434 -0.646297 -0.233149 -0.469732 
3213 2 9.01001 477.07 -392.375 -0.0198699 -0.27611 -0.733696 -0.620531 
3212 2 5.01621 469.418 -387.454 -0.425219 0.493767 -0.719023 -0.241636 
3211 2 1.28984 461.97 -382.113 -0.487591 0.848217 -0.153141 0.139036 
3220 2 17.9917 543.295 -387.057 0.154664 -0.244313 -0.611943 -0.736149 
3210 2 -3.36606 454.307 -377.839 -0.129619 0.673685 0.509684 0.5192 
3221 2 19.3304 552.909 -385.454 0.730953 -0.542359 -0.24326 -0.335229 
3154 1 177.889 441.587 -391.949 -0.797482 0.539393 0.155149 -0.221373 
3156 2 153.619 453.314 -430.645 0.465448 -0.582301 -0.379463 -0.547988 
3157 2 156.075 462.939 -430.153 0.738525 -0.63109 0.186049 0.147283 
3158 2 157.377 472.731 -429.29 0.299963 -0.187697 0.572952 0.739268 
3159 2 158.059 482.253 -426.815 -0.42491 0.232517 0.530968 0.695313 
3160 2 157.285 491.362 -422.861 -0.875517 0.480164 0.0484081 0.0238338 
3161 2 157.092 499.575 -417.28 -0.633607 0.335987 -0.194104 -0.669312 
3162 2 155.525 506.491 -410.415 0.18405 -0.00890839 -0.30087 -0.935694 
3163 2 154.316 511.702 -402.186 0.835855 -0.213193 -0.150049 -0.483095 
3164 2 154.078 517.214 -393.942 0.889519 -0.253013 0.154938 0.347468 
3155 3 160.183 470.048 -381.837 -0.799269 0.548089 0.164879 -0.183255 
3165 2 154.884 523.033 -386.002 0.326854 -0.0601342 0.257063 0.907452 
3166 2 155.846 528.945 -378.136 -0.486917 0.137343 0.268793 0.819634 
3167 2 155.751 534.402 -369.902 -0.931499 0.301739 0.141068 0.146162 
3168 2 153.96 540.286 -362.213 -0.699134 0.270953 -0.11041 -0.652385 
3222 2 19.5947 562.577 -383.287 0.71854 -0.590711 0.307582 0.200384 
3223 2 21.0111 572.226 -381.642 0.182105 -0.157974 0.708845 0.662888 
3235 1 14.1107 679.635 -432.621 0.855898 0.292222 -0.140147 0.402993 
3234 2 56.8601 660.257 -427.58 -0.0183745 -0.256423 -0.860025 -0.440757 
3233 2 54.6121 652.684 -421.714 -0.369096 0.521108 -0.72331 -0.26275 
3236 3 11.1532 661.381 -402.812 0.877455 0.29614 -0.131383 0.353712 
3232 2 50.9976 645.164 -416.344 -0.417204 0.891013 -0.0580959 0.169299 
3231 2 47.499 637.42 -411.441 -0.198485 0.642957 0.581144 0.457692 
3230 2 42.001 630.732 -406.572 0.315959 0.000484385 0.872121 0.373597 
3224 2 21.8819 582.048 -382.216 -0.279467 0.549777 0.553888 0.559331 
3225 2 24.683 591.428 -384.008 -0.557726 0.825066 -0.087495 0.0235133 
3229 2 35.959 624.487 -401.86 0.540714 -0.629249 0.558174 0.0107933 
3226 2 26.0793 600.296 -387.985 -0.397601 0.46561 -0.747196 -0.258494 
3228 2 32.676 616.403 -397.195 0.36249 -0.824434 -0.295064 -0.319133 
3227 2 29.8749 607.762 -393.251 -0.0307915 -0.173352 -0.823487 -0.539324 
3240 2 -23.4949 686.951 -390.919 0.642406 0.206283 0.0243174 0.737679 
3241 2 -20.2908 684.669 -381.83 -0.193364 0.219691 -0.264622 0.91887 
3242 2 -15.9167 681.385 -373.596 -0.86008 0.0152275 -0.298464 0.41346 
3239 2 -26.1881 687.853 -400.396 0.972314 0.0234574 0.159295 -0.169355 
3238 2 -27.7648 687.872 -410.117 0.412602 -0.0987135 0.0418832 -0.904578 
3237 2 -30.5706 687.397 -419.587 -0.3252 -0.120601 -0.0834981 -0.934199 
3243 2 -10.7807 678.709 -365.57 -0.869374 -0.199365 -0.00248004 -0.452146 
3195 2 94.5935 566.841 -361.967 -0.561731 -0.514573 -0.0350562 0.646872 
3193 2 108.404 577.91 -371.017 0.722568 0.0166381 -0.534563 0.43802 
3191 2 122.608 586.713 -381.617 0.228394 0.460932 0.107651 -0.850758 
3190 2 129.29 592.228 -386.452 -0.444217 0.180295 0.442224 -0.758025 
3189 2 133.962 599.099 -391.848 -0.849787 -0.294875 0.374375 -0.225288 
3188 2 135.992 608.261 -395.043 -0.696597 -0.557623 -0.187869 0.410506 
3183 2 144.163 655.453 -392.214 -0.148574 -0.273037 0.795939 -0.519478 
3184 2 144.47 646.265 -395.978 0.390151 0.519545 0.566162 -0.507263 
3185 2 144.097 636.502 -397.308 0.686516 0.715568 -0.101171 -0.0801434 
3186 2 141.732 626.892 -398.075 0.494013 0.283081 -0.608847 0.552378 
3187 2 138.828 617.528 -397.205 -0.121457 -0.296189 -0.572297 0.754981 
3192 2 115.452 582.186 -376.508 0.828949 0.376909 -0.291016 -0.293416 
3194 2 101.222 572.398 -366.788 0.165826 -0.308879 -0.400237 0.846703 
4017 2 -841.481 1077.8 -375.509 0.315406 -0.371236 -0.738634 0.465965 
4016 2 -833.301 1082.12 -371.892 0.567779 0.343337 -0.746408 0.0511972 
4015 2 -826.248 1088.33 -368.689 0.42368 0.823973 -0.132289 -0.352226 
4014 2 -819.979 1095.22 -365.26 0.0305105 0.566778 0.561932 -0.601718 
1372 1 -87.6829 -825.776 -225.583 -0.396108 0.259006 -0.117171 -0.87309 
1371 2 -67.7914 -783.098 -228.693 0.179171 0.975188 -0.0987456 0.0845886 
1370 2 -69.1385 -779.681 -219.449 0.171396 0.671512 0.714758 -0.0938988 
1369 2 -70.2145 -777.826 -209.811 0.00973387 -0.141389 0.985561 -0.0926541 
1784 2 168.571 -243.764 -215.665 0.416324 0.517082 0.398421 0.632899 
1783 2 159.138 -246.423 -216.888 0.756426 -0.105969 0.6373 0.102173 
1785 2 178.167 -242.557 -213.853 -0.300936 0.647506 -0.211268 0.667488 
1782 2 150.022 -250.291 -216.44 0.506949 -0.65678 0.316362 -0.459955 
1781 2 141.673 -255.518 -216.633 0.126612 -0.663811 -0.243398 -0.69576 
1780 2 133.713 -261.318 -216.33 -0.371345 -0.278392 -0.64882 -0.60302 
1779 2 126.395 -268.053 -215.824 -0.66208 0.33999 -0.653618 -0.137263 
1786 2 187.913 -241.597 -212.777 -0.741023 0.323941 -0.573725 0.129565 
1787 2 197.397 -238.888 -211.556 -0.573212 -0.226107 -0.553577 -0.560228 
1797 2 289.74 -210.542 -211.158 0.605894 -0.0884133 0.787572 0.0693187 
1796 2 280.09 -212.511 -210.035 0.385153 -0.684997 0.348589 -0.510806 
1911 2 179.194 -83.1852 -218.769 -0.377699 -0.800675 0.445576 -0.133136 
1910 2 180.611 -75.946 -212.216 -0.333836 -0.815695 -0.412626 0.230076 
1798 2 299.174 -208.343 -213.455 0.397066 0.516872 0.596362 0.468545 
1801 2 327.84 -207.799 -220.851 -0.548333 -0.203623 -0.743979 -0.323052 
1802 2 337.297 -205.179 -222.351 -0.172222 -0.706296 -0.228398 -0.647549 
1803 2 347.101 -204.897 -223.588 0.331204 -0.667301 0.371617 -0.553998 
1800 2 318.224 -208.216 -218.754 -0.537027 0.433144 -0.650785 0.316966 
1806 2 308.683 -139.467 -275.381 0.748803 0.0592201 -0.262377 -0.60576 
1807 2 304.463 -137.497 -266.664 0.95963 -0.24481 -0.0788006 0.113878 
1808 2 302.512 -133.537 -257.742 0.532162 -0.169955 0.209788 0.802439 
1809 2 302.034 -128.767 -249.074 -0.3065 0.0568414 0.197038 0.929518 
1810 2 301.777 -124.924 -239.948 -0.872275 0.150194 0.115838 0.450732 
1811 2 301.707 -121.489 -230.64 -0.878715 0.0350934 -0.00926103 -0.475965 
1804 1 334.286 -174.954 -257.738 -0.937747 0.177622 0.27681 -0.111615 
1805 3 313.467 -166.085 -231.081 -0.941457 0.109501 0.304777 -0.093698 
1812 2 301.883 -120.667 -220.784 -0.112505 -0.0548744 -0.0710873 -0.989585 
1813 2 302.902 -120.166 -210.934 0.721153 -0.185223 0.0428987 -0.666176 
1799 2 308.714 -207.541 -215.979 -0.0192738 0.786806 -0.0764432 0.612145 
1912 1 192.468 -52.8724 -252.385 -0.846512 0.314093 -0.104595 0.416921 
1913 3 208.597 -40.7108 -223.821 -0.798154 0.318374 -0.153447 0.487896 
1857 2 229.308 -40.3659 -287.514 0.158967 0.790794 -0.571649 0.150304 
1914 2 215.364 -14.7459 -268.154 0.898188 -0.0769705 -0.147679 -0.406849 
1915 2 213.526 -11.9694 -258.797 0.905385 -0.0955587 0.15152 0.384952 
1916 2 215.695 -9.05135 -249.606 0.263277 0.136653 0.203018 0.933164 
1917 2 219.676 -5.88276 -241.069 -0.517155 0.221465 -0.0133451 0.826635 
1918 2 223.256 -2.95615 -232.259 -0.948309 0.212187 -0.230997 0.0482372 
1919 2 227.902 0.530016 -224.213 -0.65184 0.0462598 -0.317999 -0.686907 
1856 2 229.075 -35.833 -278.683 0.194027 0.908969 0.364551 -0.0568398 
1920 2 231.378 5.47235 -216.319 0.133697 -0.153239 -0.281652 -0.937718 
1855 2 231.261 -35.121 -269.032 -0.0925617 0.297611 0.946558 -0.0829933 
1854 2 237.501 -33.1938 -261.548 -0.341821 -0.533917 0.766777 0.100716 
1853 2 242.465 -31.0251 -253.32 -0.111914 -0.958812 0.143004 0.218415 
1852 2 247.635 -31.3551 -244.849 0.173017 -0.747147 -0.60332 0.218726 
1851 2 253.354 -33.1597 -236.99 0.270796 -0.0616046 -0.959332 -0.050559 
1850 2 259.032 -34.9389 -229.147 0.178159 0.671323 -0.66678 -0.270168 
1849 2 267.001 -35.0801 -223.324 -0.0997599 0.868901 0.161222 -0.457237 
1858 1 272.433 -21.266 -288.26 0.718479 -0.0149469 -0.24956 -0.649064 
1859 3 259.866 -11.1687 -257.246 0.767085 -0.0648103 -0.232457 -0.594427 
1860 2 306.847 6.03519 -271.021 -0.901841 -0.0532443 0.136094 0.406604 
1861 2 303.276 6.24701 -261.807 -0.853892 0.0713746 0.135213 -0.497485 
1862 2 300.442 5.86341 -252.331 -0.0164437 0.171182 0.115522 -0.978305 
1863 2 297.959 4.06352 -242.953 0.810426 0.106978 -0.107581 -0.565854 
1864 2 295.012 2.86114 -233.63 0.965085 -0.0210582 -0.105035 0.23903 
1968 2 328.769 27.2015 -308.897 -0.729891 0.568975 0.175764 0.33561 
1969 2 330.142 36.446 -305.673 -0.827695 0.40997 -0.292136 -0.247996 
1970 2 332.711 44.9173 -301.244 -0.137004 0.0922176 -0.461173 -0.871806 
1971 2 332.289 53.2604 -295.965 0.599354 -0.428282 -0.246791 -0.629638 
1966 1 345.428 -0.467962 -274.531 0.837857 -0.54457 -0.00843521 0.036986 
1967 3 342.411 30.5964 -258.901 0.851691 -0.522962 -0.00988552 0.0321726 
1865 2 292.821 2.47941 -223.992 0.388144 -0.0166303 -0.120961 0.913475 
1866 2 291.552 0.334302 -214.382 -0.472418 -0.159312 -0.112196 0.859565 
1965 2 362.504 -8.35608 -231.22 0.362562 0.849926 -0.200472 0.325555 
1964 2 358.596 -0.795485 -226.144 0.491975 0.735105 0.464581 -0.0417823 
1963 2 354.225 7.14644 -222.327 0.241718 0.0392047 0.83181 -0.498123 
1972 2 334.984 61.3044 -291.037 0.903761 -0.347555 0.234439 -0.0863685 
1973 2 339.563 67.2814 -284.558 0.657516 -0.102297 0.388463 0.63742 
1974 2 343.639 73.2584 -277.81 -0.0826799 0.262965 0.356138 0.892849 
1975 2 347.405 79.7439 -271.382 -0.744936 0.482801 -0.0976568 0.44993 
1956 2 328.115 68.7207 -216.972 0.281312 -0.00463449 0.703835 -0.652272 
1955 2 323.084 77.0486 -215.116 -0.243383 -0.626475 0.432753 -0.600848 
1962 2 349.608 14.1119 -217.067 -0.108447 -0.658794 0.588801 -0.45557 
1959 2 338.533 41.2936 -214.871 0.0146346 0.234776 -0.666192 0.707711 
1961 2 345.643 22.9638 -215.032 -0.598017 -0.778367 -0.113125 -0.154023 
1958 2 336.481 50.8937 -215.691 0.622019 0.631769 -0.253242 0.387078 
1957 2 332.253 59.7127 -216.994 0.750392 0.524533 0.378536 -0.13597 
1960 2 341.311 31.7546 -214.926 -0.588526 -0.322635 -0.615181 0.413638 
1976 2 352.857 86.0942 -266.166 -0.857492 0.110405 -0.395783 -0.309637 
1954 2 318.883 85.3313 -211.592 -0.548038 -0.767907 -0.326883 -0.0558617 
1848 2 275.956 -35.5321 -219.037 -0.473795 0.437889 0.725178 -0.2406 
1977 2 358.837 90.1075 -259.364 -0.256258 -0.0709628 -0.244825 -0.932393 
1978 2 361.631 94.4253 -250.889 0.607639 -0.159236 -0.153481 -0.762799 
1847 2 285.035 -34.9549 -215.18 -0.518534 -0.287888 0.790165 0.154539 
1846 2 293.41 -35.4231 -209.93 -0.111115 -0.833275 0.279754 0.463729 
1979 2 362.949 98.6381 -242.026 0.957769 -0.286274 -0.00715459 0.0259594 
1980 2 363.205 104.363 -233.876 0.532664 -0.220903 0.169745 0.79916 
1981 2 361.803 109.92 -225.741 -0.307222 -0.0722954 0.361868 0.877177 
1982 2 358.751 115.608 -218.273 -0.863423 0.150628 0.303462 0.373795 
1983 2 354.94 120.323 -210.434 -0.808458 0.262092 0.100099 -0.517381 
2022 2 430.232 188.113 -213.959 0.954545 0.0453622 -0.282761 0.0826571 
3209 3 26.9358 486.902 -351.002 -0.55067 0.78405 -0.282383 -0.0478287 
3198 2 77.4979 547.331 -347.55 0.319346 0.465438 0.331442 -0.755997 
3199 2 72.6992 539.426 -343.858 0.808705 0.494581 -0.0657195 -0.311556 
3200 2 68.1292 532.175 -338.955 0.687382 0.251996 -0.496872 0.465963 
3208 1 21.0265 455.072 -337.505 -0.508093 0.826154 -0.243394 -0.00838413 
3202 2 58.4909 516.832 -330.885 -0.621776 -0.380426 -0.262881 0.632111 
3203 2 56.6766 508.785 -325.318 -0.889271 -0.434317 0.119013 -0.0800059 
3204 2 55.1015 500.913 -319.433 -0.466779 -0.228834 0.443594 -0.730052 
3205 2 53.5606 492.753 -314.104 0.301421 0.305119 0.424251 -0.797533 
3206 2 51.8774 483.813 -310.013 0.778848 0.580389 0.11369 -0.208852 
3207 2 51.1137 474.527 -306.783 0.696906 0.466769 -0.331561 0.431874 
3201 2 63.3729 524.289 -335.233 0.117796 -0.201152 -0.477869 0.846938 
3124 2 76.3306 528.024 -219.279 -0.400173 0.413825 0.443843 -0.686742 
3123 2 85.9959 530.399 -218.908 -0.69575 -0.0872257 0.707739 -0.0861921 
3125 2 67.0072 525.965 -216.806 0.278187 0.680586 -0.0718852 -0.673979 
3126 2 57.5249 523.14 -215.914 0.684014 0.389223 -0.576478 -0.219781 
3122 2 95.2524 533.867 -219.244 -0.574603 -0.607041 0.372007 0.403661 
3169 2 151.635 545.817 -354.269 0.0686993 0.12877 -0.439224 -0.886443 
3153 2 191.401 447.422 -347.18 -0.270341 -0.774088 0.16963 -0.546744 
3152 2 183.983 453.412 -344.646 -0.603461 -0.538845 -0.582866 -0.0758155 
3151 2 177.322 459.934 -341.315 -0.383977 0.0414207 -0.819905 0.422614 
3150 2 170.479 466.02 -337.595 0.0934132 0.676277 -0.447472 0.57766 
3149 2 164.405 473.777 -337.013 0.629873 0.701434 0.137322 0.303963 
3148 2 158.253 481.229 -338.806 0.699478 0.292784 0.569751 -0.316847 
3147 2 152.142 488.696 -341.073 0.188485 -0.245663 0.575116 -0.757208 
3146 2 146.492 496.606 -342.91 -0.438692 -0.61484 0.213246 -0.619715 
3141 2 122.123 532.506 -320.227 0.463321 0.518369 0.707423 -0.127199 
3145 2 141.109 504.359 -340.072 -0.595584 -0.678706 -0.429669 0.00473398 
3142 2 127.731 526.498 -325.716 0.381485 0.867204 -0.0281476 0.318799 
3143 2 132.825 519.417 -330.531 0.000578272 0.507221 -0.712506 0.484832 
3144 2 137.379 512.537 -336.06 -0.345672 -0.14042 -0.814675 0.443957 
3140 2 116.138 539.023 -315.942 0.206275 -0.304807 0.787041 -0.495085 
3139 2 110.944 545.559 -310.622 -0.296136 -0.81757 0.272287 -0.411999 
3121 2 104.633 536.984 -219.928 -0.0259533 -0.639166 -0.135661 0.756564 
3120 2 114.339 538.651 -218.603 0.533499 -0.322385 -0.679322 0.387257 
3138 2 104.234 551.512 -306.403 -0.513214 -0.67848 -0.519019 -0.0830355 
3119 2 123.627 540.945 -216.193 0.627544 0.307485 -0.705089 -0.120383 
3118 2 132.517 542.513 -212.342 0.270992 0.794941 -0.229641 -0.491831 
3170 2 148.755 552.695 -347.798 0.680788 -0.248558 -0.402126 -0.559501 
3397 1 -407.886 624.002 -249.303 -0.269349 -0.0134554 -0.77054 -0.577527 
3398 3 -394.451 655.999 -253.157 -0.314232 -0.0220872 -0.759604 -0.56901 
3396 2 -404.42 628.565 -296.128 -0.363366 0.0872859 0.744631 -0.553056 
3395 2 -397.941 636.016 -295.079 -0.673762 -0.559091 0.483176 0.00199879 
3394 2 -390.573 642.622 -294.636 -0.424109 -0.703415 -0.0633889 0.566852 
3393 2 -383.693 649.707 -294.579 0.138734 -0.391674 -0.58879 0.693305 
3392 2 -376.572 656.209 -292.381 0.57376 0.183976 -0.740008 0.298898 
3391 2 -370.76 663.521 -288.928 0.546096 0.770162 -0.276782 -0.178945 
3390 2 -364.454 670.058 -285.001 0.164144 0.73475 0.413672 -0.511932 
3406 2 -400.988 699.257 -234.454 0.248255 -0.53553 -0.755358 -0.284626 
3405 2 -401.61 692.587 -227.152 -0.130253 0.136099 -0.913109 -0.361585 
3404 2 -402.686 685.543 -220.265 -0.372575 0.843238 -0.377418 -0.0877122 
3403 2 -403.624 676.678 -215.821 -0.412587 0.727153 0.437134 0.331562 
3402 2 -403.663 667.301 -212.422 -0.0507827 0.0839035 0.835442 0.540758 
3401 2 -404.662 657.716 -210.134 0.448322 -0.554025 0.568682 0.410687 
3389 2 -359.191 674.316 -277.813 -0.215425 0.200129 0.903509 -0.311787 
3388 2 -353.178 678.465 -271.139 -0.42332 -0.51101 0.748056 -0.00900901 
3387 2 -346.905 683.7 -265.56 -0.377832 -0.870744 0.17971 0.258364 
3386 2 -341.19 688.173 -258.862 -0.017122 -0.755491 -0.529371 0.385625 
3385 2 -334.446 691.748 -252.542 0.315838 -0.0645288 -0.913523 0.248109 
3384 2 -327.885 695.134 -245.917 0.355403 0.737855 -0.548463 -0.168661 
3383 2 -320.095 697.804 -240.366 -0.0103391 0.844334 0.261102 -0.467781 
3382 2 -311.851 700.493 -235.701 -0.374906 0.366145 0.780742 -0.340332 
3381 2 -303.902 703.04 -230.319 -0.487807 -0.349872 0.797718 0.0572639 
3357 2 -212.532 649.177 -216.018 -0.962213 0.176037 0.031929 0.205276 
3356 2 -211.283 645.446 -225.126 -0.573924 0.0585424 0.203183 0.791139 
3355 2 -209.299 642.932 -234.547 0.271012 -0.159876 0.0970495 0.944232 
3380 2 -294.844 705.312 -226.933 -0.343901 -0.765577 0.295524 0.456388 
3354 2 -207.822 638.942 -243.503 0.898376 -0.246307 0.00540183 0.363626 
3353 2 -206.77 633.079 -251.391 0.777285 -0.263207 -0.239958 -0.518624 
3352 2 -205.452 626.359 -258.478 0.140121 -0.00975244 -0.365175 -0.920282 
3345 2 -177.876 579.855 -298.544 0.130564 0.225658 -0.390479 -0.882926 
3343 1 -147.564 613.787 -310.855 -0.412806 0.313523 -0.0227343 -0.854855 
3342 2 -126.255 655.5 -305.136 0.150144 -0.266542 0.941054 -0.144325 
3341 2 -129.744 657.716 -296.102 -0.0349804 -0.915552 0.34852 -0.197674 
3340 2 -131.795 658.328 -286.428 -0.0910679 -0.78363 -0.60961 -0.0774982 
3339 2 -133.673 658.793 -276.76 -0.134016 0.0351861 -0.989792 0.0333547 
3338 2 -135.069 657.382 -267.14 -0.0646538 0.826662 -0.555967 0.0578777 
3344 3 -162.394 626.522 -281.863 -0.426303 0.280325 -0.0731436 -0.856933 
3337 2 -135.107 653.63 -258.014 -0.14801 0.89626 0.408342 0.0898259 
3336 2 -135.542 649.88 -248.875 -0.0375711 0.202684 0.956701 0.2055 
3335 2 -136.179 645.307 -240.131 0.150824 -0.548375 0.805799 0.164997 
3292 2 -140.199 686.116 -252.391 -0.8188 -0.036685 -0.291438 0.493239 
3346 2 -183.447 585.363 -292.564 0.82111 -0.0619837 -0.435716 -0.36344 
3334 2 -134.885 640.955 -231.17 0.237447 -0.96591 0.0684856 0.0771093 
3347 2 -189.949 589.831 -286.444 0.860226 -0.399619 -0.14557 0.281291 
3348 2 -194.675 595.663 -279.989 0.256796 -0.321097 0.287692 0.864977 
3349 2 -198.466 601.871 -273.244 -0.491674 0.113811 0.487466 0.712517 
3293 2 -135.278 682.625 -244.537 -0.876855 -0.287654 -0.145773 -0.356555 
3294 2 -130.655 678.561 -236.84 -0.212486 -0.357993 0.0486518 -0.907923 
3295 2 -124.646 676.206 -229.297 0.579451 -0.393395 0.275168 -0.658604 
3296 2 -116.574 677.121 -223.579 0.913001 -0.136616 0.380724 0.0530596 
3350 2 -201.64 609.823 -268.299 -0.834863 0.521144 0.165211 0.0641722 
3351 2 -203.704 618.509 -264.207 -0.595439 0.379777 -0.275367 -0.652223 
3333 2 -134.005 637.298 -222.005 0.162485 -0.762931 -0.62121 -0.0750492 
3297 2 -110.392 680.103 -216.51 0.486925 0.225157 0.353239 0.76644 
3291 2 -146.804 687.932 -259.676 -0.200644 0.316698 -0.163548 0.912522 
3332 2 -132.774 633.307 -213.051 0.0557385 -0.0547061 -0.973319 -0.215758 
3298 2 -103.576 683.005 -209.966 -0.229895 0.48713 0.015896 0.842378 
3197 2 82.9012 554.3 -352.12 -0.496952 -0.0168403 0.518364 -0.69574 
3196 2 88.2773 560.735 -357.371 -0.884837 -0.331506 0.325692 -0.0330456 
3127 1 40.3296 561.146 -237.944 0.503908 -0.366798 0.734496 -0.268426 
3128 3 73.2091 559.558 -249.493 0.515265 -0.351618 0.748399 -0.225312 
3136 2 93.1523 564.542 -296.587 0.136476 0.748593 -0.425843 0.489531 
3135 2 86.8454 571.525 -293.659 0.56799 0.730388 0.294659 0.238947 
3134 2 81.1889 578.712 -289.791 0.495694 0.369084 0.740135 -0.265075 
3133 2 74.6444 584.678 -285.428 0.190277 -0.369786 0.763541 -0.494022 
3244 2 -8.38319 675.184 -356.729 -0.146187 -0.174291 0.151397 -0.961941 
3245 2 -5.28147 671.833 -347.951 0.60158 0.0866654 0.192155 -0.770498 
3256 2 4.05417 623.816 -252.532 -0.864161 -0.25154 -0.12113 0.418666 
3246 2 -4.02675 668.131 -338.835 0.993275 0.110777 -0.0109139 0.031834 
3247 2 -4.63023 664.928 -329.482 0.664672 0.0707205 -0.226929 0.708317 
3255 2 2.14236 627.846 -261.387 -0.27493 0.0508871 -0.239604 0.929739 
3254 2 0.644496 632.027 -270.199 0.505658 0.212331 -0.116769 0.828004 
3253 2 -2.92732 637.004 -277.947 0.937751 0.291571 0.174996 0.0706071 
3252 2 -5.09186 641.44 -286.468 0.679846 0.113733 0.217367 -0.691105 
3250 2 -7.70151 651.677 -303.143 -0.821132 -0.275006 0.128688 -0.483274 
3251 2 -6.44069 646.037 -295.082 -0.144698 -0.070171 0.234831 -0.958641 
3249 2 -7.71812 656.067 -312.057 -0.944577 -0.198933 -0.0791157 0.24888 
3248 2 -6.8322 660.769 -320.749 -0.294463 -0.135351 -0.219279 0.920265 
3270 2 33.0159 694.617 -235.798 -0.291413 -0.466091 0.674097 0.493387 
3269 2 41.9113 691.099 -233.395 0.235178 -0.804089 0.0119004 0.545885 
3268 2 49.5179 687.471 -228.367 0.478318 -0.581755 -0.644078 0.133923 
3267 2 57.6097 684.153 -223.639 0.430987 0.179612 -0.840232 -0.275682 
3263 3 30.6353 648.167 -226.692 -0.306519 0.272218 0.896514 0.167945 
3257 2 3.13359 618.035 -244.506 -0.875507 -0.172634 0.125886 -0.433403 
3258 2 2.55267 614.74 -235.176 -0.142596 -0.0489452 0.105399 -0.982935 
3129 2 44.2467 599.581 -265.006 -0.0489217 0.723771 -0.500852 0.472133 
3130 2 51.4005 595.627 -270.658 -0.435814 0.127259 -0.855576 0.248719 
3131 2 59.3373 592.318 -275.479 -0.515738 -0.59805 -0.584074 -0.187635 
3132 2 67.6787 588.976 -279.821 -0.190196 -0.866311 0.122969 -0.445207 
3266 2 64.7332 678.512 -219.751 -0.0551179 0.729531 -0.400019 -0.552024 
3265 2 70.7009 672.437 -214.616 -0.442502 0.820926 0.287953 -0.217615 
3259 2 2.55096 612.36 -225.629 0.741891 -0.00178495 0.149898 -0.653548 
3260 2 4.45785 610.783 -215.994 0.963839 0.228788 0.0931431 0.0999687 
3271 2 24.4689 697.819 -239.416 -0.629057 0.144522 0.762003 0.0524619 
3272 2 15.2772 700.815 -241.552 -0.459784 0.589222 0.450561 -0.488273 
3273 2 5.55733 702.049 -242.721 0.0389588 0.648909 -0.173781 -0.73973 
3264 2 76.4578 665.853 -209.839 -0.444027 0.373926 0.779732 0.234601 
3274 2 -4.05474 704.08 -241.715 0.608044 0.193532 -0.66366 -0.390363 
3137 2 99.1344 558.265 -301.286 -0.295448 0.0274587 -0.856957 0.421404 
3171 2 145.895 560.578 -342.487 0.854631 -0.489439 -0.0519486 0.165396 
3182 3 135.751 622.047 -353.444 0.0258314 -0.0557887 0.77549 -0.628359 
3180 2 123.337 636.03 -304.939 -0.280169 0.063833 0.630041 0.721442 
3179 2 125.561 626.566 -306.963 0.342019 -0.431793 0.468321 0.690835 
3178 2 127.735 616.923 -307.691 0.737089 -0.662236 -0.0339473 0.130349 
3177 2 130.261 607.791 -310.39 0.632375 -0.370992 -0.494107 -0.467253 
3176 2 131.955 599.504 -315.69 -0.0188549 0.109344 -0.455284 -0.883405 
3181 1 133.581 656.257 -346.292 0.0195202 -0.0421318 0.786446 -0.615911 
3172 2 143.626 568.642 -337.199 0.415373 -0.381544 0.368533 0.738967 
3173 2 141.238 577.047 -332.673 -0.345566 -0.0356353 0.442905 0.826529 
3174 2 138.095 584.499 -327.01 -0.89175 0.353282 0.24486 0.141483 
3175 2 135 591.57 -320.826 -0.69628 0.464797 -0.150582 -0.525817 
3752 2 -874.535 838.665 -229.625 -0.698523 0.580527 0.356775 -0.218553 
3720 2 -935.305 792.691 -214.457 0.086501 -0.709652 -0.469641 0.518024 
3750 2 -857.527 828.586 -230.968 -0.171091 -0.454455 0.457721 0.744775 
3751 2 -865.946 833.726 -229.482 -0.603225 0.00340401 0.716532 0.350272 
3753 2 -882.276 844.763 -229.143 -0.394958 0.618373 -0.233227 -0.638144 
3754 2 -888.081 852.518 -227.217 0.284076 0.187523 -0.59285 -0.729839 
3719 2 -927.256 796.569 -210.179 0.460751 -0.0502947 -0.844605 0.267995 
3450 2 -610.613 794.259 -242.479 0.613947 0.00293536 -0.734009 0.290331 
3447 2 -582.724 802.929 -239.901 -0.449206 0.520699 0.547928 -0.4763 
3448 2 -592.378 801.627 -241.289 0.142834 0.747634 0.0409504 -0.647274 
3449 2 -601.899 798.877 -241.817 0.628001 0.540803 -0.493288 -0.264225 
3446 2 -573.411 805.926 -237.997 -0.639494 -0.164505 0.748054 -0.0663446 
3445 2 -564.043 808.539 -236.069 -0.395687 -0.697757 0.338082 0.492207 
3444 2 -554.498 811.065 -234.621 0.0907281 -0.669966 -0.357395 0.644347 
3443 2 -544.92 812.774 -232.86 0.600698 -0.148529 -0.748396 0.238755 
3442 2 -535.189 814.407 -232.722 0.631385 0.44469 -0.556053 -0.307258 
3441 2 -525.613 816.919 -231.896 0.156089 0.728035 0.036914 -0.666512 
3440 2 -515.804 818.432 -231.962 -0.443886 0.474994 0.484011 -0.58573 
3407 2 -401.301 706.619 -241.007 0.358216 -0.930434 0.0648976 -0.0419831 
3439 2 -505.947 818.759 -233.548 -0.755753 -0.0231318 0.654296 0.0140853 
3408 2 -400.546 713.387 -248.138 0.177063 -0.587741 0.743895 0.264252 
3409 2 -400.245 719.916 -255.589 -0.0343375 0.21908 0.897286 0.381711 
3410 2 -399.23 727.362 -262.048 -0.429145 0.801187 0.386181 0.157473 
3438 2 -496.546 819.852 -236.469 -0.522205 -0.492231 0.33461 0.610775 
3411 2 -399.74 735.538 -267.501 -0.422811 0.754916 -0.43298 -0.252707 
3437 2 -487.712 820.482 -240.918 0.0417243 -0.525406 -0.0813721 0.845923 
3415 2 -387.376 768.073 -283.372 0.531649 -0.201495 0.73427 0.37094 
3416 2 -381.241 775.284 -286.109 0.150949 0.514704 0.596281 0.597279 
3414 2 -392.155 759.819 -280.973 0.59619 -0.762095 0.196171 -0.159012 
3413 2 -397.249 752.297 -276.99 0.206458 -0.688368 -0.470001 -0.512468 
3412 2 -400.164 743.886 -272.738 -0.180064 -0.00341566 -0.85864 -0.479899 
3436 2 -479.206 819.628 -245.972 0.701718 -0.328363 -0.387228 0.499824 
3425 3 -400.626 812.198 -305.062 0.795979 0.158904 -0.247471 0.529079 
3435 2 -471.157 818.468 -251.58 0.849806 0.113521 -0.44032 -0.266573 
3434 2 -464.01 817.005 -258.328 0.333533 0.305904 -0.213967 -0.865677 
3433 2 -458.217 815.884 -266.338 -0.376098 0.333269 0.0766291 -0.861168 
3432 2 -452.378 815.437 -274.272 -0.92213 0.0944514 0.256771 -0.27354 
3417 2 -373.619 780.984 -288.793 -0.465486 0.725504 -0.107974 0.495286 
3431 2 -448.35 817.37 -283.016 -0.841654 -0.192633 0.139068 0.484945 
3430 2 -446.263 819.314 -292.528 0.0010791 -0.113151 -0.0845812 0.989971 
3429 2 -445.302 820.554 -302.394 0.792663 0.0370444 -0.116402 0.597297 
3424 1 -396.016 830.284 -334.714 0.803569 0.189666 -0.257535 0.501974 
3428 2 -444.835 821.516 -312.266 0.96731 0.0366505 -0.0160297 -0.250422 
3427 2 -442.655 823.959 -321.639 0.263918 0.139482 0.0596673 -0.95254 
3426 2 -442.956 827.599 -330.865 -0.543834 -0.140293 0.14911 -0.813836 
3418 2 -366.028 787.21 -289.871 -0.527774 0.415765 -0.705795 -0.224605 
3419 2 -360.259 794.57 -292.981 -0.086937 -0.187971 -0.873422 -0.44073 
3379 2 -286.928 709.487 -222.635 0.144445 -0.607265 -0.578562 0.525005 
3420 2 -356.667 801.816 -298.892 0.347732 -0.823821 -0.401204 -0.198588 
3378 2 -279.567 714.926 -218.782 0.443518 0.0337309 -0.847091 0.290846 
3421 2 -355.802 808.879 -305.773 0.356027 -0.839432 0.403204 0.0776154 
3422 2 -354.354 815.331 -313.081 0.193201 -0.193639 0.909179 0.31396 
3423 2 -351.917 821.667 -320.258 -0.104518 0.566345 0.73924 0.349077 
3372 2 -250.334 766.099 -220.192 -0.11981 -0.379093 -0.616372 0.67972 
3373 2 -254.725 757.219 -220.414 -0.630901 -0.68714 -0.0385543 0.358212 
3374 2 -259.78 748.748 -219.483 -0.654481 -0.419813 0.497778 -0.384225 
3375 2 -263.44 739.638 -217.942 -0.17413 0.160256 0.649458 -0.722635 
3376 2 -268.219 731.04 -216.516 0.337509 0.679451 0.28855 -0.5841 
3377 2 -273.352 722.594 -217.701 0.659419 0.650812 -0.364422 -0.0938411 
3290 3 -115.069 720.896 -234.89 -0.19867 -0.528353 0.0625736 -0.823079 
3289 1 -143.879 734.012 -249.855 -0.204498 -0.55372 0.0953971 -0.801544 
3283 2 -78.7174 748.999 -231.105 0.250173 -0.656662 0.216192 0.677842 
3284 2 -86.7191 754.767 -230.36 -0.329829 -0.31074 0.697077 0.555641 
3285 2 -94.7691 760.313 -231.851 -0.691468 0.187216 0.683734 0.139032 
3286 2 -103.423 765.128 -231.927 -0.473329 0.674612 0.317195 -0.469303 
3287 2 -112.484 768.852 -232.382 0.0540137 0.688061 -0.331816 -0.64308 
3288 2 -121.708 772.333 -233.585 0.533403 0.18812 -0.74294 -0.357955 
3282 2 -71.6046 742.26 -232.797 0.75025 -0.539929 -0.317943 0.210983 
3281 2 -64.0462 735.917 -232.807 0.58658 -0.148251 -0.718033 -0.344056 
3275 2 -13.5222 706.979 -241.388 0.756247 -0.328694 -0.503489 0.257972 
3276 2 -22.6623 709.728 -238.822 0.38585 -0.673717 -0.0267965 0.629689 
3277 2 -30.9026 715.232 -238.351 -0.335063 -0.354019 0.541489 0.684977 
3278 2 -39.01 720.644 -236.706 -0.789778 0.24508 0.559872 0.0522528 
3279 2 -47.6662 725.162 -234.934 -0.46772 0.620435 0.0964479 -0.62209 
3280 2 -56.2489 729.94 -233.317 0.135639 0.482497 -0.481668 -0.718884 
3755 2 -894.012 860.038 -224.667 0.791217 -0.391588 -0.436932 -0.172408 
3748 1 -827.794 860.194 -212.522 -0.442171 0.563241 0.0969475 -0.691264 
3819 2 -884.065 987.76 -230.777 0.443935 -0.643757 -0.00353271 0.623286 
3820 2 -892.337 993.004 -229.037 -0.276788 -0.39746 0.371584 0.792048 
3821 2 -900.825 996.399 -225.267 -0.750373 -0.102103 0.626096 0.185795 
3822 2 -910.43 997.16 -222.998 -0.641047 0.429297 0.438606 -0.460856 
3823 2 -919.917 998.687 -220.555 0.0126217 0.642962 -0.0250986 -0.765382 
3824 2 -929.565 999.325 -218.446 0.659875 0.303244 -0.492482 -0.479655 
3825 2 -938.85 1000.21 -215.005 0.810553 -0.276963 -0.47985 0.189839 
3885 2 -841.297 952.199 -312.793 0.438311 -0.76566 -0.16105 -0.442392 
3886 2 -835.983 960.294 -314.784 0.622395 -0.668383 0.40538 0.0394463 
3818 2 -876.466 982.38 -233.911 0.802266 -0.415126 -0.428996 0.0012314 
3817 2 -869.888 975.342 -236.377 0.519349 0.0239859 -0.610825 -0.597155 
3816 2 -862.318 969.223 -238.085 -0.12165 0.537968 -0.332016 -0.765217 
3887 2 -831.266 968.637 -317.461 0.308254 -0.0822709 0.793002 0.518999 
3888 2 -827.713 977.365 -320.494 -0.102713 0.512613 0.526393 0.670513 
3883 1 -825.418 945.868 -268.841 0.617956 -0.766534 0.13877 -0.106294 
3815 2 -854.556 963.282 -236.442 -0.568112 0.686818 0.332422 -0.308261 
3814 2 -846.889 958.117 -232.895 -0.502392 0.194676 0.814969 0.213373 
3813 2 -838.552 954.765 -228.748 -0.178747 -0.641546 0.51385 0.540765 
3812 2 -830.937 951.718 -223.344 0.234242 -0.874135 -0.143663 0.400473 
3757 2 -905.635 874.647 -217.977 -0.0850648 -0.150044 0.512707 0.84106 
3756 2 -899.887 867.438 -221.765 0.5676 -0.556227 0.111765 0.596616 
3787 2 -891.915 953.509 -215.403 -0.307274 0.0681488 -0.723457 -0.61445 
3811 2 -823.253 947.469 -218.682 0.506973 -0.473922 -0.716986 0.0656293 
3785 2 -894.556 934.58 -211.948 -0.555848 0.69634 0.356587 0.281051 
3788 2 -888.501 962.811 -215.824 0.314363 -0.499198 -0.359263 -0.723123 
3789 2 -884.256 971.295 -212.902 0.738997 -0.559579 0.220777 -0.303335 