ITEM: TIMESTEP
10000000
ITEM: NUMBER OF ATOMS
4067
ITEM: BOX BOUNDS pp pp pp
-4.6310929470000001e+03 4.6704658980000004e+03
-4.6310929470000001e+03 4.6704658980000004e+03
-4.6310929470000001e+03 4.6704658980000004e+03
ITEM: ATOMS id type x y z c_q[1] c_q[2] c_q[3] c_q[4] 
3588 2 8.86346 70.355 -700.138 -0.832033 0.372686 0.389341 -0.131298 
3589 2 1.69794 75.6758 -695.8 -0.379484 0.518437 -0.208409 -0.737415 
3590 2 -5.01965 82.1726 -692.501 0.374907 0.160239 -0.521057 -0.749846 
3591 2 -11.2112 88.4308 -688.002 0.864493 -0.261132 -0.401003 -0.153813 
3592 2 -16.9593 94.3209 -682.423 0.683452 -0.381896 0.0888902 0.61575 
3478 1 -182.388 138.507 -674.853 -0.860214 0.116009 -0.19731 0.455678 
3480 2 -150.107 172.817 -677.502 -0.402081 0.234263 -0.314598 0.827333 
3481 2 -144.096 169.107 -670.451 -0.952388 -0.0751815 -0.281915 0.0884798 
3586 1 43.4035 102.453 -699.68 0.477898 -0.305197 -0.0340237 0.822989 
3593 2 -20.3447 100.662 -675.514 0.061077 -0.0652098 0.319977 0.943203 
3587 3 23.6499 111.587 -672.291 0.492644 -0.31585 -0.0412069 0.809841 
3585 2 66.0967 139.866 -682.054 -0.0127514 0.971922 0.135474 0.191966 
3584 2 62.3798 138.678 -672.92 0.128009 0.483068 0.85374 0.146246 
3594 2 -21.6359 106.73 -667.875 -0.605772 0.267569 0.198481 0.722532 
3532 1 -90.7745 40.5504 -581.565 0.671749 -0.463905 0.270173 -0.510442 
3531 2 -92.4031 23.6127 -537.58 -0.332934 -0.785524 -0.228713 0.468826 
3530 2 -86.6393 30.7732 -533.835 0.195023 -0.263166 -0.784696 0.526272 
3529 2 -80.0628 36.3692 -529.055 0.505892 0.316989 -0.792265 0.126127 
3533 3 -60.1997 50.8902 -567.865 0.669614 -0.463883 0.337012 -0.472073 
3534 2 -69.0194 60.9959 -618.113 0.849859 -0.0767733 0.520734 -0.0260899 
3528 2 -72.515 41.9649 -525.982 0.462995 0.773349 -0.177235 -0.395163 
3527 2 -64.4202 47.5296 -524.902 0.012432 0.629471 0.403132 -0.664151 
3535 2 -60.3822 61.9078 -613.372 0.610863 0.381652 0.460145 0.519091 
3526 2 -57.935 54.9621 -525.282 -0.453882 -0.00216889 0.68211 -0.573335 
3561 2 -90.275 92.6539 -519.846 0.313509 -0.702078 0.488501 -0.412512 
3562 2 -81.6119 93.3497 -524.606 0.408628 -0.128084 0.903669 0.00099689 
3563 2 -74.1521 94.4597 -530.922 0.166977 0.599031 0.719128 0.310056 
3525 2 -51.2622 62.2575 -525.414 -0.706918 -0.480661 0.514069 -0.0704562 
3524 2 -44.3303 69.2005 -526.986 -0.602066 -0.647389 0.0841283 0.459702 
3536 2 -50.8967 62.0982 -610.369 -0.185927 0.536078 -0.0724891 0.820242 
3537 2 -41.8053 62.3611 -606.324 -0.770509 0.241467 -0.414466 0.419795 
3538 2 -33.3164 62.8239 -601.32 -0.832609 -0.203054 -0.35728 -0.371325 
3539 2 -26.0721 62.8887 -594.598 -0.238812 -0.255246 -0.0817666 -0.933345 
3540 2 -20.8123 63.4457 -586.266 0.586003 -0.139881 0.0659377 -0.795416 
3541 2 -16.8895 64.1078 -577.13 0.972631 -0.113234 0.202713 -0.00866443 
3688 2 39.0616 87.4756 -566.261 -0.383702 -0.470144 0.764953 0.215833 
3690 2 21.6708 87.9749 -575.025 -0.0387499 0.771077 0.358905 -0.524525 
3691 2 13.496 84.8111 -579.571 0.448047 0.721168 -0.443024 -0.287926 
3692 2 5.16182 81.458 -583.891 0.432009 0.0760622 -0.888996 0.131412 
3693 2 -2.14719 78.1441 -589.663 0.162253 -0.691444 -0.565416 0.419384 
3695 3 25.6422 44.172 -561.932 0.0291638 0.296441 0.257445 0.919236 
3694 1 5.54008 31.6721 -587.685 0.046011 0.280281 0.255264 0.924211 
3542 2 -13.59 66.5229 -568.174 0.59621 0.0297304 0.141686 0.789667 
3687 2 46.1955 86.2835 -559.401 0.0282295 -0.898424 0.124462 0.420174 
3689 2 31.0392 87.0597 -571.968 -0.563747 0.255865 0.772326 -0.142249 
3686 2 53.4462 86.3356 -552.512 0.247821 -0.619334 -0.688653 0.284196 
3504 2 32.9095 74.3172 -624.93 -0.0962731 -0.741426 0.415719 -0.517877 
3503 2 26.3924 80.1705 -620.242 -0.444985 -0.801586 -0.325623 -0.231124 
3502 2 19.5488 87.0736 -618.471 -0.585468 -0.267897 -0.726796 0.239219 
3696 2 25.7018 -7.14546 -569.936 0.644852 -0.0783481 0.202093 0.73293 
3697 2 27.1107 -3.10039 -560.993 -0.263194 0.109612 0.192031 0.939063 
3543 2 -11.5406 68.1903 -558.694 -0.219421 0.119825 0.142179 0.957748 
3544 2 -9.29145 71.4729 -549.729 -0.864355 0.335095 -0.0761174 0.367162 
3522 2 -32.5904 83.9803 -532.344 0.573555 0.176195 -0.588603 0.54179 
3545 2 -5.95601 76.3968 -541.841 -0.932146 0.131077 -0.168308 -0.292568 
3698 2 28.4763 0.615888 -551.867 -0.911188 0.193615 -0.0566548 0.359222 
3546 2 -3.67884 80.1471 -533.016 -0.376567 -0.00691242 -0.265282 -0.887567 
3699 2 30.7405 3.8652 -542.762 -0.802142 0.157115 -0.308466 -0.486551 
3700 2 33.0187 9.1957 -534.712 -0.0918864 -0.0599014 -0.46342 -0.879324 
3701 2 34.3629 16.9534 -528.733 0.58099 -0.395825 -0.149527 -0.695281 
3523 2 -37.9317 75.8567 -530.383 0.0260121 -0.418133 -0.38202 0.823741 
3702 2 37.2102 23.9607 -522.286 0.847685 -0.502906 0.137756 0.0976681 
3521 2 -26.096 91.1842 -534.537 0.755054 0.549709 -0.316814 -0.165353 
3501 2 10.7696 91.6446 -618.445 -0.41494 0.362074 -0.564362 0.614998 
3685 2 60.3503 88.0889 -545.717 0.40451 0.129126 -0.903925 0.0511602 
3547 2 -2.1255 84.5872 -524.299 0.435731 -0.148376 -0.191883 -0.866778 
3505 1 70.129 90.2374 -600.693 -0.564839 -0.0823369 0.569615 0.591368 
3684 2 67.4148 89.9466 -539.036 0.281707 0.794767 -0.439667 -0.309321 
3683 2 74.585 92.9725 -532.92 0.0420996 0.845917 0.351909 -0.398512 
3703 2 39.0376 32.4011 -517.384 0.475062 -0.221125 0.378135 0.763173 
3548 2 -0.885183 89.2818 -515.658 0.929769 -0.294228 -0.01081 -0.221005 
3500 2 1.23774 94.2828 -618.046 0.21094 0.721859 0.0120567 0.658998 
3747 2 189.081 74.5637 -522.932 -0.0134469 0.313517 0.910034 0.270858 
3746 2 187.394 69.4667 -514.604 0.235542 -0.551525 0.782238 0.168652 
3564 2 -67.7039 97.3408 -537.834 -0.0987586 0.916199 -0.0376428 0.386535 
3565 2 -60.5109 99.1464 -544.334 -0.341931 0.489218 -0.742245 0.304667 
3482 2 -139.189 166.383 -662.366 -0.657273 -0.448804 -0.0511673 -0.603281 
3477 2 -204.016 102.452 -653.475 0.107963 0.484672 -0.861095 0.109324 
3476 2 -202.981 105.261 -644.146 0.149445 0.977301 -0.147822 -0.0264202 
3475 2 -201.372 107.995 -634.825 0.0593931 0.748371 0.64568 -0.13968 
3483 2 -133.128 161.459 -656.235 0.0806829 -0.285203 0.188999 -0.936178 
3479 3 -167.015 137.375 -643.434 -0.857817 0.116376 -0.225256 0.447064 
3484 2 -127.599 157.801 -648.895 0.69957 0.00286983 0.366355 -0.613496 
3474 2 -197.962 108.898 -625.696 -0.194644 0.0420103 0.978447 -0.054676 
3473 2 -192.982 111.981 -617.714 -0.291128 -0.753598 0.582383 0.0903569 
3472 2 -188.272 116.24 -610.223 -0.143525 -0.906716 -0.249197 0.308491 
3485 2 -122.364 152.963 -641.967 0.890972 0.34553 0.243807 0.165335 
3486 2 -117.651 147.751 -635.009 0.428615 0.412059 -0.0324205 0.803396 
3487 2 -111.455 143.307 -628.781 -0.291631 0.31341 -0.387193 0.816583 
3471 2 -182.728 121.438 -603.95 0.155621 -0.380839 -0.81097 0.416018 
3470 2 -177.363 125.557 -596.591 0.351707 0.336888 -0.871134 0.0627294 
3469 2 -172.283 129.724 -589.323 0.295439 0.867733 -0.360172 -0.173294 
3467 2 -163.408 142.36 -576.992 -0.26444 0.0779086 0.890342 -0.362343 
3465 2 -152.31 153.079 -565.219 -0.258968 -0.931578 0.0213076 0.254252 
3464 2 -147.319 157.684 -557.999 0.0552094 -0.586412 -0.724314 0.358388 
3463 2 -142.616 162.083 -550.464 0.316559 0.18777 -0.897941 0.241319 
3466 2 -157.018 148.543 -572.558 -0.513344 -0.583009 0.629691 0.00821533 
3468 2 -168.078 135.887 -582.896 0.182371 0.786419 0.453132 -0.378096 
3488 2 -104.034 138.368 -624.448 -0.811708 -0.0625066 -0.501708 0.292423 
3489 2 -96.6059 134.136 -619.566 -0.758753 -0.481152 -0.266718 -0.348782 
3490 2 -88.9899 129.58 -615.123 -0.0385231 -0.558689 0.243825 -0.79179 
3616 2 -84.2201 187.771 -608.438 0.222471 0.466855 -0.456099 0.724242 
3615 2 -89.12 196.162 -610.061 0.702767 0.624679 0.0769465 0.331623 
3462 2 -136.489 165.493 -543.439 0.32479 0.814113 -0.429939 -0.216527 
3617 2 -79.8589 178.981 -606.973 -0.466982 -0.0243871 -0.638647 0.611116 
3618 2 -74.5234 170.794 -605.289 -0.82547 -0.387957 -0.398225 0.0974972 
3461 2 -131.855 168.913 -535.467 0.0858341 0.907294 0.326521 -0.250668 
3460 2 -125.783 171.177 -527.964 -0.292456 0.285179 0.883189 -0.230479 
3491 2 -80.2332 125.597 -612.974 0.57358 -0.144873 0.659913 -0.463176 
3459 2 -118.77 170.907 -521.054 -0.317678 -0.484165 0.796494 0.173962 
3619 2 -68.1762 164.132 -601.849 -0.515233 -0.588485 -0.05588 -0.620563 
3492 2 -71.3084 121.505 -611.89 0.697369 0.350997 0.586636 0.215256 
3452 3 -82.9433 201.539 -522.291 0.0404859 0.741252 -0.174685 -0.646832 
3493 2 -61.7501 119.12 -611.496 0.193076 0.795571 0.106895 0.564236 
3620 2 -60.6142 158.935 -598.14 0.178231 -0.452893 0.299578 -0.820594 
3448 2 -66.293 240.558 -539.766 0.497479 -0.241674 0.77466 -0.306611 
3447 2 -75.7524 242.063 -537.301 0.122194 -0.727512 0.314723 -0.59728 
3613 1 -60.4458 225.019 -586.243 0.267661 0.648624 -0.414501 0.579512 
3446 2 -85.1963 244.565 -535.717 -0.424666 -0.695569 -0.33685 -0.471566 
3449 2 -57.1956 238.47 -543.24 0.659575 0.427116 0.61169 0.0914814 
3445 2 -94.7311 247.089 -536.528 -0.720861 -0.15491 -0.672424 0.0648669 
3682 2 81.0021 97.9366 -527.219 -0.297323 0.158699 0.873524 -0.35124 
3566 2 -52.6723 99.0287 -550.382 -0.331057 -0.347862 -0.864235 -0.14997 
3567 2 -46.26 99.4969 -558.057 -0.0335908 -0.86682 -0.291275 -0.403303 
3568 2 -38.8653 101.075 -564.39 0.198431 -0.811639 0.415943 -0.358968 
3520 2 -19.5037 98.1705 -536.906 0.372115 0.568164 0.195556 -0.707444 
3499 2 -7.45515 98.1092 -615.529 0.545811 0.543444 0.599375 0.217965 
3494 2 -52.3219 117.421 -613.81 -0.419814 0.500424 -0.497308 0.570978 
3569 2 -31.812 102.011 -571.255 0.365548 -0.189701 0.900332 -0.140677 
3583 2 59.8598 137.091 -663.544 0.145599 -0.418523 0.89626 -0.0189187 
3621 2 -52.2801 155.254 -594.191 0.66796 -0.0227244 0.623399 -0.405816 
3498 2 -16.0762 102.905 -614.191 0.503716 -0.0897175 0.764898 -0.391347 
3595 2 -20.3994 113.196 -660.428 -0.932644 0.34379 -0.0984513 -0.0478628 
3497 2 -25.4106 106.133 -614.601 0.0332568 -0.645689 0.28525 -0.707539 
3496 2 -33.74 111.439 -615.365 -0.60435 -0.640398 -0.23876 -0.409446 
3570 2 -24.7881 101.533 -578.136 0.234203 0.542698 0.740209 0.320498 
3495 2 -42.6358 115.699 -614.616 -0.668495 -0.187562 -0.708055 0.128811 
3519 2 -12.7917 105.281 -537.934 -0.300739 0.248158 0.607251 -0.692258 
3518 2 -4.67316 110.902 -539.506 -0.745623 -0.255167 0.601483 -0.130976 
3517 2 3.20386 116.576 -541.562 -0.551721 -0.62868 0.0599778 0.544764 
3596 2 -18.8944 119.955 -653.25 -0.574067 0.0301579 -0.34606 -0.741471 
3573 2 -6.09994 109.902 -599.369 -0.364049 0.0449373 -0.899041 -0.23911 
3571 2 -18.3428 103.579 -585.328 -0.1685 0.898193 0.0566069 0.402062 
3572 2 -11.4798 107.189 -591.536 -0.278616 0.694804 -0.655867 0.0972569 
3574 2 0.191372 114.379 -605.552 -0.0417846 -0.570021 -0.644616 -0.507741 
3575 2 6.05713 120.116 -611.259 0.265408 -0.92135 0.111614 -0.26118 
3576 2 11.8055 125.103 -617.576 0.416055 -0.441963 0.790869 -0.0780615 
3582 2 55.7419 135.71 -654.654 0.127078 -0.948634 0.214752 -0.194488 
3577 2 19.0083 127.061 -624.007 0.436971 0.360266 0.774371 0.282161 
3578 2 27.4197 128.071 -629.123 0.0363529 0.807759 0.274832 0.520261 
3622 2 -43.7663 150.799 -591.771 0.685684 0.418143 0.41318 0.429274 
3516 2 11.663 121.354 -543.428 0.113581 -0.474611 -0.385646 0.78302 
3614 3 -39.9989 197.623 -593.267 0.29295 0.656759 -0.422108 0.551972 
3579 2 35.8839 130.381 -633.773 -0.310372 0.724273 -0.519123 0.331072 
3581 2 50.9441 133.362 -646.323 -0.0776124 -0.683403 -0.672197 -0.27402 
3612 2 -19.4449 236.562 -565.837 0.860263 -0.41927 -0.263291 0.121811 
3506 3 44.0251 110.666 -589.579 -0.530087 -0.103413 0.535632 0.649162 
3580 2 43.707 131.363 -639.88 -0.414047 0.0754663 -0.901436 -0.101409 
3611 2 -13.6316 230.139 -570.674 0.62972 -0.0541677 -0.507047 -0.586022 
3610 2 -6.66423 224.742 -575.211 -0.0766161 0.442558 -0.302234 -0.84079 
3609 2 -2.00115 217.124 -579.366 -0.769946 0.532473 0.0679062 -0.345028 
3608 2 1.70544 208.339 -581.832 -0.61628 0.356557 0.526582 0.464518 
3607 2 4.16669 199.814 -586.259 0.00287328 -0.124528 0.533488 0.836586 
3606 2 4.79541 191.324 -591.332 0.635632 -0.405827 0.291665 0.588394 
3605 2 2.83759 182.856 -596.052 0.830742 -0.517902 0.00205079 -0.204061 
3623 2 -34.4007 148.766 -589.245 0.0805978 0.581354 0.00790096 0.809611 
3597 2 -15.8833 125.424 -645.585 0.286297 -0.234753 -0.301225 -0.878743 
3508 2 83.4635 122.392 -564.804 0.805028 -0.388011 -0.30344 0.330607 
3509 2 75.7421 126.123 -559.866 0.168122 -0.517471 0.0705437 0.836051 
3510 2 67.2315 129.101 -555.719 -0.46287 -0.44153 0.434609 0.63397 
3598 2 -13.7073 131.872 -638.326 0.905288 -0.292347 -0.0113875 -0.307989 
3599 2 -12.1587 137.391 -630.252 0.754001 -0.202618 0.317025 0.538446 
3600 2 -9.91861 143.685 -622.95 0.0734443 0.067242 0.401216 0.910555 
3601 2 -8.04071 150.986 -616.527 -0.581093 0.457736 0.196092 0.643705 
3602 2 -5.04382 158.704 -611.147 -0.85656 0.454442 -0.232823 -0.0747031 
3638 2 62.7748 214.185 -546.459 -0.864053 0.48666 -0.0761242 -0.103826 
3637 2 63.1939 205.913 -551.855 -0.656101 0.311377 0.360397 0.585397 
3603 2 -1.78384 166.653 -606.225 -0.444983 0.113999 -0.499435 -0.734547 
3604 2 1.21611 174.957 -601.874 0.37939 -0.276799 -0.375266 -0.799137 
3624 2 -24.8357 148.13 -586.622 -0.594818 0.313055 -0.528612 0.518418 
3625 2 -15.2652 146.777 -584.649 -0.762067 -0.168361 -0.577262 -0.24016 
3626 2 -5.64898 146.772 -582.071 -0.250995 -0.545066 -0.210269 -0.771811 
3627 2 3.77107 146.335 -579.144 0.47121 -0.495501 0.336063 -0.647689 
3628 2 13.1883 146.445 -575.934 0.869479 -0.138247 0.471325 0.0524155 
3629 2 21.1478 148.745 -570.44 0.464369 0.276917 0.53602 0.648352 
3630 2 29.7869 152.651 -567.302 -0.237388 0.573478 0.25637 0.740975 
3631 2 37.2649 158.767 -565.088 -0.70774 0.541026 -0.381353 0.24691 
3632 2 45.1886 164.478 -563.449 -0.531258 0.172212 -0.719736 -0.412417 
3633 2 51.5555 171.955 -564.272 0.109347 -0.34686 -0.62403 -0.691605 
3634 2 55.2205 181.213 -564.739 0.706267 -0.616444 -0.0388102 -0.345944 
3635 2 59.0905 190.141 -562.768 0.826961 -0.323431 0.317308 0.332932 
3636 2 61.9605 197.56 -556.908 0.116533 -0.0184019 0.49437 0.861208 
3639 2 63.6697 222.333 -541.052 -0.433571 0.246837 -0.444721 -0.743848 
3507 2 91.3169 119.053 -569.896 0.791954 0.0322547 -0.460498 -0.399638 
3511 2 58.0145 131.599 -553.166 -0.785749 -0.0154899 0.615934 0.0546267 
3512 2 48.4285 131.563 -550.592 -0.550622 0.434002 0.469141 -0.536996 
3513 2 38.7888 131.21 -548.701 0.0740935 0.623103 0.0127374 -0.778518 
3514 2 29.3056 129.722 -546.388 0.675888 0.492893 -0.399736 -0.374757 
3515 2 19.9511 126.635 -544.537 0.649958 0.0517688 -0.680631 0.33409 
3641 3 48.5156 177.327 -519.864 -0.502743 -0.836445 -0.0388987 -0.214699 
3654 2 87.5173 150.762 -544.155 -0.233558 0.77196 0.462516 0.368249 
3653 2 83.9495 144.749 -537.045 0.106041 0.187145 0.914987 0.341367 
3655 2 91.1098 157.423 -550.438 -0.489495 0.810018 -0.300759 0.117513 
3652 2 79.608 141.249 -528.915 0.290577 -0.432394 0.852977 0.0320889 
3651 2 74.9781 137.745 -520.811 0.239212 -0.917346 0.225221 -0.224789 
3450 2 -48.6059 233.655 -544.287 0.364747 0.734474 0.0850042 0.565935 
3681 2 86.4987 104.339 -522.111 -0.508511 -0.600674 0.616655 -0.0185538 
3680 2 91.6317 111.136 -517.14 -0.369989 -0.862802 -0.0521435 0.340532 
3451 1 -48.8483 195.461 -516.614 0.0491534 0.743145 -0.161858 -0.647396 
3656 2 95.5251 165.026 -555.058 -0.415468 0.286279 -0.794113 -0.338844 
3657 2 100.209 172.658 -559.269 0.0301736 -0.376707 -0.709258 -0.595092 
3658 2 104.347 181.21 -562.262 0.489922 -0.786998 -0.138011 -0.34866 
3748 1 147.473 96.9245 -522.708 -0.921204 -0.158863 -0.00299976 -0.355156 
3659 2 108.934 189.575 -564.89 0.690816 -0.493658 0.510523 0.135798 
3660 2 114.513 197.727 -564.623 0.258765 0.155065 0.629123 0.71638 
3661 2 119.978 205.813 -563.181 -0.54324 0.461201 0.289816 0.638898 
3662 2 123.721 214.277 -559.639 -0.910811 0.362959 -0.173885 -0.091914 
3663 2 125.993 221.474 -553.132 -0.494006 0.0719637 -0.507295 -0.702446 
3664 2 129.78 229.333 -548.42 0.311489 -0.250981 -0.368748 -0.839052 
3665 2 131.537 237.365 -542.814 0.847208 -0.430453 -0.230289 -0.209559 
3666 2 129.769 245.759 -537.703 0.673461 -0.42903 0.218855 0.56079 
3668 3 108.518 202.086 -519.489 0.500979 0.85629 -0.0879421 0.0897399 
3679 2 98.4181 117.941 -514.856 0.0584409 -0.492438 -0.591956 0.635356 
3424 1 -250.435 364.701 -549.107 -0.700492 0.286233 -0.238051 0.608862 
3426 2 -212.54 380.819 -572.176 -0.124887 -0.324839 0.24065 -0.906074 
3425 3 -225.973 366.43 -524.139 -0.656694 0.295574 -0.236052 0.652433 
3427 2 -207.706 375.473 -565.349 0.604616 0.0174424 0.4965 -0.622595 
3428 2 -201.712 368.941 -560.679 0.848417 0.407225 0.328083 0.0819662 
3429 2 -195.615 362.135 -556.742 0.46134 0.522695 -0.153422 0.700298 
3430 2 -189.896 355.006 -552.641 -0.297409 0.27258 -0.530699 0.74539 
3431 2 -182.541 349.191 -549.53 -0.770671 -0.252744 -0.562625 0.160126 
3432 2 -174.606 343.513 -548.08 -0.586768 -0.67014 -0.159935 -0.425484 
3433 2 -167.202 337.123 -546.74 -0.0530964 -0.448772 0.464017 -0.761888 
3434 2 -160.822 329.807 -544.808 0.572159 0.142721 0.600562 -0.539991 
3435 2 -156.215 321.304 -542.53 0.690922 0.627588 0.357747 -0.0278776 
3436 2 -151.603 312.587 -542.485 0.387916 0.753362 -0.276803 0.453152 
3437 2 -146.768 304.378 -545.01 -0.243503 0.220029 -0.697651 0.636849 
3438 2 -140.981 296.423 -545.798 -0.674754 -0.380176 -0.594294 0.216769 
3439 2 -134.895 288.622 -546.494 -0.583026 -0.68032 -0.151014 -0.417659 
3444 2 -102.661 252.834 -537.283 -0.202887 0.398707 -0.570815 0.688505 
3443 2 -109.236 260.014 -539.16 0.503257 0.631187 -0.0905565 0.583211 
3440 2 -128.086 281.457 -546.62 -0.0821009 -0.467979 0.42419 -0.77092 
3441 2 -122.262 273.691 -544.471 0.629301 0.07476 0.550828 -0.543121 
3442 2 -116.465 266.433 -541.042 0.757862 0.434741 0.486452 0.00310042 
1 2 629.675 -553.722 -448.124 -0.210246 -0.200337 0.572307 0.766894 
2 2 624.717 -545.584 -445.293 -0.752922 0.347238 0.502304 0.245407 
3 2 618.544 -538.248 -442.918 -0.798459 0.539261 0.030261 -0.265978 
4 2 615.004 -530.296 -438.208 -0.393192 0.366708 -0.284767 -0.79362 
5 2 611.404 -523.215 -432.155 0.346943 -0.0266174 -0.476883 -0.807158 
6 2 608.242 -515.351 -427.043 0.909223 -0.243249 -0.205513 -0.268158 
73 2 545.688 -400.894 -392.247 0.210475 -0.514897 -0.331059 0.762222 
74 2 536.569 -403.696 -389.509 -0.434195 -0.506174 0.253867 0.700582 
75 2 527.416 -404.534 -385.669 -0.803927 -0.162077 0.55123 0.153551 
156 2 512.397 -383.001 -391.703 -0.131716 -0.855283 0.435704 -0.247595 
155 2 509.148 -378.834 -383.361 -0.280217 -0.876831 -0.386206 -0.0590768 
154 2 504.857 -376.035 -374.976 -0.250774 -0.152776 -0.950546 0.101165 
153 2 501.885 -372.975 -366.024 -0.0198572 0.683518 -0.691903 0.231688 
157 1 557.347 -370.956 -383.883 -0.653004 -0.146065 0.165527 0.724466 
72 2 555.233 -401.068 -394.758 0.757813 -0.215908 -0.563683 0.247719 
71 2 565.062 -400.296 -395.347 0.60189 0.417824 -0.533071 -0.423068 
7 2 605.721 -509.928 -419.197 0.693887 -0.414034 0.0160301 0.588931 
70 2 574.697 -401.663 -393.343 -0.0579701 0.766316 -0.0174054 -0.639607 
9 2 596.369 -498.078 -406.471 -0.73527 0.112399 0.407557 0.529756 
8 2 601.589 -503.429 -412.973 -0.0922527 -0.236049 0.329827 0.909387 
10 2 591.614 -491.986 -400.268 -0.860429 0.41528 0.169449 -0.241849 
11 2 587.584 -485.891 -393.667 -0.377356 0.287647 -0.223553 -0.851402 
12 2 584.068 -479.894 -386.622 0.524856 0.149196 -0.368436 -0.752676 
13 2 577.961 -476.259 -379.744 0.944527 -0.112456 -0.304593 0.0494526 
69 2 584.145 -402.941 -390.859 -0.517066 0.521739 0.614655 -0.287456 
68 2 592.978 -404.971 -386.776 -0.485222 -0.170493 0.825282 0.233242 
67 2 600.919 -409.958 -383.55 0.0139872 -0.716703 0.397122 0.573093 
66 2 608.92 -415.09 -380.741 0.451291 -0.765667 -0.256399 0.379934 
14 2 571.933 -474.735 -372.124 0.528703 -0.382963 -0.179305 0.735977 
65 2 615.845 -420.849 -376.53 0.476486 -0.239136 -0.832965 -0.148139 
64 2 621.944 -426.336 -370.996 0.0794232 0.522986 -0.708896 -0.466522 
15 2 564.577 -473.113 -365.652 -0.29439 -0.315878 0.0939955 0.897062 
63 2 625.695 -430.647 -362.973 -0.182533 0.959977 -0.0386976 -0.208876 
3704 2 39.5899 40.5778 -511.763 -0.192825 0.282677 0.40668 0.847068 
3705 2 42.4898 48.5193 -506.555 -0.765175 0.505647 -0.0304133 0.397369 
3706 2 46.5471 56.0531 -501.499 -0.819619 0.242116 -0.432088 -0.287931 
3728 2 83.0744 75.1723 -386.905 -0.0611261 0.734667 -0.53761 0.409272 
3727 2 76.919 80.6243 -381.304 0.354283 0.878756 0.1323 0.291149 
3707 2 51.7267 63.3416 -497.377 -0.263306 -0.237819 -0.464393 -0.81145 
3708 2 57.8411 69.4013 -492.464 0.514665 -0.440397 0.0132629 -0.735523 
3709 2 64.4149 73.1405 -486.087 0.897152 -0.211674 0.361579 -0.139905 
3729 2 89.276 71.4287 -393.659 -0.37058 0.146108 -0.903929 0.155674 
3710 2 71.3346 76.2592 -479.711 0.758491 0.115761 0.254422 0.588693 
3711 2 76.707 78.0937 -471.591 0.131734 0.273899 0.233177 0.923718 
3726 2 70.5763 86.3455 -376.181 0.470286 0.45308 0.753118 -0.0797663 
3712 2 82.3758 81.952 -464.436 -0.606377 0.543204 0.127268 0.566604 
3725 2 64.9999 93.8218 -372.928 0.203949 -0.292343 0.758095 -0.546107 
3713 2 87.3984 89.668 -460.715 -0.721922 0.619351 -0.258362 -0.168765 
3549 2 -0.608785 94.8523 -507.392 0.678586 -0.362794 0.071296 0.63468 
3730 2 96.4265 69.4814 -400.256 -0.315835 -0.602453 -0.680941 -0.271326 
3731 2 104.011 69.5296 -406.509 -0.0554252 -0.887633 0.0118382 -0.45705 
3732 2 112.247 69.4656 -411.913 0.331792 -0.447457 0.769566 -0.312193 
3745 2 185.521 64.1326 -506.429 0.275192 -0.95055 0.102777 -0.1008 
3744 2 185.812 59.1777 -497.895 0.199494 -0.679255 -0.683392 -0.178298 
3743 2 182.743 55.5436 -489.239 -0.144942 0.153138 -0.963369 -0.165713 
3742 2 179.23 53.3175 -480.241 -0.183255 0.833702 -0.510959 0.101388 
3733 2 119.904 67.7652 -417.975 0.474422 0.308847 0.813892 0.130836 
3741 2 173.933 51.9013 -471.995 -0.0203486 0.930844 0.221012 0.29029 
3734 2 128.361 66.5178 -422.984 0.275393 0.867798 0.177574 0.373567 
3735 2 135.82 63.1261 -428.613 -0.178242 0.687563 -0.582492 0.395209 
3736 2 143.071 60.6159 -434.779 -0.344697 -0.0888165 -0.923276 0.144419 
3737 2 148.889 58.1352 -442.412 -0.356202 -0.731661 -0.548738 -0.191516 
3738 2 155.197 54.8012 -449.291 -0.00359361 -0.920178 0.227278 -0.318754 
3739 2 161.256 53.0402 -456.863 0.310239 -0.392274 0.848072 -0.175062 
3740 2 167.854 52.6944 -464.198 0.286083 0.371418 0.875837 0.114524 
3749 3 151.98 87.9634 -489.208 -0.924967 -0.127608 -0.0586499 -0.353146 
3784 2 204.98 90.968 -372.231 -0.303811 0.643576 0.612541 0.343951 
3783 2 208.156 82.9902 -367.16 -0.0704823 -0.184461 0.854677 0.480138 
3782 2 210.82 75.1688 -361.866 0.339841 -0.792769 0.371459 0.343573 
3458 2 -112.577 169.092 -513.593 0.0633546 -0.934338 0.0853128 0.340177 
3559 1 -76.9597 102.032 -475.582 -0.226381 0.741838 -0.432065 0.460161 
3457 2 -105.854 165.473 -507.324 0.420639 -0.619813 -0.654008 0.105679 
3456 2 -97.5459 164.021 -502.12 0.485179 0.0968437 -0.857044 -0.14387 
3455 2 -88.7141 163.921 -497.74 0.2393 0.750242 -0.437455 -0.434173 
3454 2 -79.5858 163.294 -493.854 -0.221582 0.780541 0.307254 -0.497245 
3453 2 -70.2533 162.291 -490.657 -0.598217 0.220839 0.761046 -0.119064 
3650 2 70.1595 136.485 -512.255 -0.125079 -0.742714 -0.618032 -0.225317 
3550 2 -3.89771 100.552 -500.021 -0.0225055 0.0907276 0.290764 0.952218 
3560 3 -46.5103 97.8517 -492.356 -0.168027 0.730438 -0.459895 0.476155 
3640 1 36.2414 207.022 -505.81 -0.492622 -0.844375 -0.0461263 -0.205491 
3551 2 -3.17904 106.044 -491.836 -0.786464 0.126354 0.141941 0.587675 
3649 2 63.3875 136.166 -505.082 -0.380084 0.0117257 -0.924799 -0.0120415 
3724 2 58.2091 100.971 -371.769 -0.290923 -0.720759 0.218239 -0.590121 
3558 2 -45.0573 111.322 -442.19 -0.796375 -0.231921 0.359323 0.427653 
3552 2 -4.43032 110.304 -482.917 -0.959545 0.169792 0.133934 -0.180292 
3553 2 -7.65835 112.791 -473.884 -0.428038 0.27051 0.0824989 -0.858372 
3648 2 56.8582 137.022 -497.632 -0.2075 0.687995 -0.632576 0.288884 
3647 2 49.467 140.066 -491.853 0.12937 0.895454 -0.0709172 0.419996 
3723 2 52.1063 108.652 -370.773 -0.663078 -0.59162 -0.457577 -0.0305988 
3722 3 80.3349 109.901 -414.275 -0.506669 -0.844154 -0.0283594 -0.172878 
3642 2 15.9582 173.433 -479.677 -0.482517 -0.416297 -0.731725 0.241769 
3643 2 20.9415 165.694 -483.294 -0.581242 -0.7198 -0.132575 -0.355626 
3644 2 27.2321 158.069 -484.092 -0.0183362 -0.603607 0.425543 -0.67397 
3645 2 34.9567 151.994 -485.079 0.436396 0.00195424 0.82121 -0.367654 
3646 2 42.3424 146.065 -488.131 0.515622 0.69811 0.474727 0.146322 
3557 2 -37.4137 111.938 -448.449 -0.15798 -0.436232 0.0596565 0.883847 
3554 2 -13.1804 113.236 -465.647 0.434869 0.384322 -0.202453 -0.788796 
3555 2 -20.6056 113.179 -459.024 0.846036 0.141099 -0.474063 -0.198942 
3556 2 -28.9999 112.781 -453.629 0.654959 -0.288794 -0.383225 0.583751 
3721 1 68.925 140.328 -401.367 -0.514015 -0.838458 -0.0405152 -0.176452 
3669 2 81.7713 198.7 -475.136 0.55054 0.558024 0.619348 -0.0438483 
3670 2 87.2199 191.554 -479.295 0.391336 0.859639 -0.0405416 0.325933 
3714 2 88.8701 99.2668 -459.327 -0.236052 0.18117 -0.629607 -0.717671 
3715 2 89.9612 109.027 -457.77 0.358141 -0.441858 -0.442035 -0.693615 
3716 2 92.7674 118.122 -455.24 0.811855 -0.574915 -0.0286039 -0.0977034 
3717 2 93.8612 127.411 -451.982 0.598846 -0.250342 0.46195 0.604412 
3720 2 94.7573 153.532 -438.569 -0.792201 0.445649 -0.178095 -0.376957 
3719 2 95.6086 145.226 -443.808 -0.834275 0.436468 0.19359 0.275687 
3671 2 92.3012 184.584 -484.175 0.0431552 0.482347 -0.672958 0.559113 
3718 2 95.5906 135.899 -447.242 -0.20929 0.13272 0.551281 0.796663 
3678 2 102.776 126.37 -511.974 0.444168 0.222802 -0.753182 0.431034 
3677 2 106.439 134.523 -507.765 0.543333 0.801821 -0.226961 -0.101789 
3672 2 97.2466 176.656 -487.634 -0.427252 -0.180485 -0.761818 0.452232 
3673 2 102.009 168.393 -490.017 -0.530015 -0.765638 -0.362683 -0.0366642 
3676 2 108.447 143.534 -504.237 0.411547 0.664809 0.465974 -0.414158 
3674 2 106.138 160.483 -494.348 -0.379953 -0.727375 0.447952 -0.354824 
3675 2 108.024 151.825 -498.864 0.000556174 -0.00286053 0.879582 -0.475739 
3758 2 150.912 111.512 -437.761 0.48777 -0.159834 0.145185 -0.845846 
3757 2 145.682 111.262 -446.143 -0.3144 -0.284547 -0.111259 -0.898781 
3759 2 155.066 111.384 -428.86 0.971518 0.113268 0.0677961 -0.196792 
3760 2 156.382 109.816 -419.135 0.765381 0.0619568 -0.0831944 0.635163 
3755 2 133.138 114.482 -460.968 -0.712658 0.16549 -0.345225 0.587836 
3756 2 139.827 112.55 -453.939 -0.920976 -0.137626 -0.276706 -0.23727 
3754 2 125.657 116.131 -467.149 0.066177 0.43231 -0.0554438 0.897583 
3753 2 119.987 114.64 -475.247 0.729899 0.167171 0.227744 0.622441 
3761 2 155.612 107.644 -409.51 -0.062851 -0.0431631 0.0017912 0.997088 
3762 2 154.605 107.387 -399.681 -0.690301 -0.00723341 0.144362 0.708937 
3763 2 153.055 108.967 -390.091 -0.98228 0.0842337 0.0570394 -0.157406 
3764 2 151.842 110.276 -380.417 -0.392823 0.0979635 0.00123427 -0.914381 
3667 1 104.97 231.123 -500.314 0.430076 0.895302 -0.0784199 0.0855553 
3752 2 115.748 113.722 -484.126 0.948009 -0.0614629 0.230354 -0.210805 
3751 2 112.016 113.038 -493.314 0.46038 -0.16687 0.0308084 -0.871353 
3750 2 107.675 111.729 -502.099 -0.394915 -0.141988 -0.161276 -0.893237 
3795 2 187.361 188.387 -400.253 0.788409 -0.528514 -0.314761 0.00306391 
3796 2 182.666 196.65 -397.418 0.496624 -0.600891 0.279558 0.560484 
3797 2 178.658 205.62 -396.49 -0.120238 -0.328864 0.512419 0.784103 
3798 2 172.91 213.281 -393.808 -0.711728 0.0962621 0.658467 0.224938 
3794 2 191.838 179.706 -402.434 0.488336 -0.141264 -0.642959 -0.572867 
3793 2 193.483 170.04 -403.249 -0.282769 0.330775 -0.576842 -0.691291 
3792 2 194.894 160.363 -401.786 -0.623569 0.731098 -0.148723 -0.233537 
3799 2 164.279 218.207 -393.201 -0.515729 0.635168 0.422127 -0.390376 
3800 2 154.979 221.524 -394.682 0.0720117 0.682958 -0.283557 -0.669311 
3801 2 145.467 224.367 -395.838 0.567986 0.206166 -0.704082 -0.373036 
3802 1 122.675 188.852 -374.684 -0.402556 -0.597791 -0.144804 -0.677958 
3803 3 156.414 181.607 -368.449 -0.401122 -0.618092 -0.233491 -0.634465 
3791 2 195.85 150.441 -401.595 -0.582628 0.56126 0.434031 0.396419 
3790 2 195.901 140.599 -402.69 -0.0140476 -0.00256965 0.671318 0.741032 
3789 2 197.808 131.37 -399.337 0.386299 -0.656352 0.51427 0.394337 
3788 2 200.409 123.578 -393.739 0.461921 -0.817981 -0.342834 -0.000562337 
3787 2 201.241 115.52 -388.098 0.150605 -0.289911 -0.861634 -0.388402 
3786 2 202.416 107.665 -382.338 -0.20722 0.498836 -0.727411 -0.423197 
3765 2 150.365 111.17 -370.718 0.393431 -0.00886441 -0.0416593 -0.918367 
3785 2 205.011 99.4538 -377.297 -0.471914 0.870543 -0.00141876 -0.139465 
3909 2 386.456 216.846 -371.352 -0.324156 0.826121 -0.344116 -0.306646 
3908 2 389.226 209.638 -365.194 -0.427343 0.750382 0.496145 0.0902439 
3291 2 -411.415 362.707 -421.063 0.364944 -0.151887 0.415756 0.81908 
3292 2 -411.083 370.025 -414.415 -0.346353 0.203582 0.37726 0.834428 
3293 2 -409.906 377.695 -408.286 -0.87622 0.452583 0.0837435 0.142812 
3294 2 -409.991 385.608 -402.268 -0.699324 0.438158 -0.226749 -0.517251 
3289 1 -413.332 389.161 -460.073 -0.261067 -0.0876769 -0.359995 -0.891381 
3295 2 -411.807 393.787 -396.908 -0.0113226 0.0479325 -0.536737 -0.842311 
3423 2 -272.233 346.533 -511.409 -0.321939 -0.0251643 0.929684 -0.177229 
3420 2 -254.739 359.23 -491.282 0.155215 -0.360892 -0.825976 0.404265 
3421 2 -260.291 353.971 -497.571 -0.152079 -0.883619 -0.210386 0.389651 
3422 2 -266.095 349.569 -504.27 -0.344824 -0.71811 0.581655 0.164598 
3419 2 -248.66 365.692 -486.771 0.464772 0.312513 -0.801287 0.210388 
3418 2 -245.866 374.148 -482.371 0.495381 0.829459 -0.251634 -0.0572307 
3369 2 -322.285 380.476 -431.384 0.149723 0.328143 -0.773471 0.521198 
3368 2 -323.52 389.276 -426.952 0.480438 0.814114 -0.247676 0.212261 
3417 2 -244.491 383.076 -478.455 0.399204 0.646143 0.517984 -0.393482 
3416 2 -240.577 391.366 -474.583 -0.159904 0.110988 0.830264 -0.522278 
3370 1 -310.419 394.698 -474.8 0.776569 -0.514881 -0.0521071 -0.359338 
3367 2 -324.988 398.324 -423.302 0.504145 0.677944 0.482388 -0.231369 