ITEM: TIMESTEP
10000000
ITEM: NUMBER OF ATOMS
4067
ITEM: BOX BOUNDS pp pp pp
-4.6310929470000001e+03 4.6704658980000004e+03
-4.6310929470000001e+03 4.6704658980000004e+03
-4.6310929470000001e+03 4.6704658980000004e+03
ITEM: ATOMS id type x y z c_q[1] c_q[2] c_q[3] c_q[4] 
4018 1 153.599 235.991 -822.258 -0.902234 0.313926 -0.227912 -0.188362 
4067 2 231.054 367.194 -836.905 0.402846 0.867191 -0.259687 0.13512 
4066 2 231.233 374.688 -830.475 0.357549 0.785245 0.455912 -0.218388 
4020 2 123.228 271.773 -827.151 -0.421751 0.394645 0.190504 0.793782 
4065 2 229.466 381.563 -823.518 0.153483 0.100729 0.910926 -0.369473 
4021 2 127.987 277.994 -821.172 -0.827898 0.501552 -0.190003 0.164104 
3880 2 43.4747 229.994 -770.721 -0.245231 0.818997 -0.36788 0.365746 
3879 2 36.9092 230.697 -763.198 0.22028 0.832168 0.422819 0.283191 
3878 2 30.8226 231.94 -755.441 0.320951 0.221773 0.920761 0.00271139 
3877 2 24.7979 234.458 -747.884 0.171436 -0.573398 0.73597 -0.3165 
3916 2 54.135 188.624 -705.233 -0.18559 0.626108 -0.132891 0.745577 
3915 2 44.7425 188.722 -702.072 0.344016 0.65899 0.45804 0.487426 
3914 2 35.2097 188.91 -699.338 0.605125 0.0830036 0.791376 0.0256565 
3913 2 25.6993 189.169 -696.544 0.403314 -0.588143 0.53792 -0.449519 
3912 2 17.0252 188.849 -691.827 -0.0515338 -0.85032 -0.122769 -0.509144 
3876 2 18.5896 238.088 -741.108 -0.201449 -0.910081 0.0506831 -0.358613 
3875 2 12.5349 241.552 -734.134 -0.358999 -0.606281 -0.706324 -0.0681846 
3917 2 63.9492 188.584 -703.477 -0.716127 0.157296 -0.584145 0.348129 
3918 2 73.4106 187.292 -700.846 -0.742681 -0.252338 -0.503843 -0.361791 
3919 2 82.4597 186.701 -696.959 -0.190855 -0.620893 -0.125111 -0.749943 
3881 2 51.007 231.294 -776.991 -0.317046 0.20331 -0.923468 -0.0731687 
3920 2 92.1056 186.143 -694.764 0.586424 -0.387113 0.278172 -0.654882 
3882 2 56.3738 234.069 -784.865 -0.137006 -0.58512 -0.741798 -0.297658 
3853 2 41.5234 240.798 -675.927 -0.623504 -0.283032 0.0471202 -0.727266 
3874 2 8.94545 245.016 -725.594 -0.174281 0.190145 -0.940376 0.22173 
3854 2 44.8465 236.74 -667.532 0.112162 -0.0597346 0.299967 -0.945448 
3945 2 94.777 230.555 -679.244 -0.8912 0.36406 0.0701158 0.261357 
3944 2 94.9445 226.666 -688.428 -0.512259 0.0735771 0.170847 0.838444 
3943 2 95.5949 225.508 -698.323 0.3696 -0.0514918 0.0348704 0.927108 
3852 2 37.6109 244.052 -684.375 -0.960213 -0.162937 -0.200111 0.106761 
3946 2 95.6283 237.117 -671.816 -0.785383 0.305723 -0.255319 -0.473835 
3942 2 96.0632 225.005 -708.263 0.966597 -0.0297474 0.00529069 0.254513 
3921 2 100.388 186.827 -689.464 0.865214 0.0101339 0.496777 0.0671941 
3941 2 96.7179 226.219 -718.07 0.844515 0.0617233 0.0458948 -0.52998 
3940 2 99.224 228.743 -727.28 0.136483 0.108057 0.0972429 -0.979918 
3939 2 101.807 230.434 -736.765 -0.66933 0.0801647 0.12486 -0.727998 
3922 2 108.566 187.51 -683.98 0.516804 0.361879 0.162474 0.758656 
3923 2 115.638 185.818 -677.259 -0.250779 0.401963 0.00196993 0.880643 
4017 2 190.219 214.115 -801.989 0.358176 0.335121 -0.794249 0.35857 
4016 2 193.243 222.108 -797.149 0.503127 0.834389 -0.218618 -0.0535295 
4015 2 195.332 228.685 -790.074 0.211626 0.732395 0.559899 -0.324539 
3938 3 136.649 237.055 -698.94 0.66731 0.0822564 -0.211192 0.709457 
4014 2 195.994 233.698 -781.585 0.0127749 0.118598 0.949071 -0.291607 
4013 2 194.153 238.908 -773.373 -0.114495 -0.660085 0.6931 -0.266066 
3924 2 122.715 187.593 -670.49 -0.81772 0.334411 -0.257946 0.39111 
3932 2 174.805 238.574 -674.279 -0.156545 -0.00634381 -0.920769 -0.357265 
4012 2 193.704 245.848 -766.365 -0.390805 -0.920263 0.0190826 -0.00489206 
3931 2 169.493 231.533 -669.768 -0.504003 0.644514 -0.570179 -0.0740171 
3933 2 177.444 245.253 -681.061 0.283708 -0.756899 -0.539366 -0.236003 
3930 2 162.744 225.013 -666.704 -0.25971 0.783938 0.238693 0.510899 
3808 2 -66.9784 358.26 -671.161 -0.567308 -0.444466 -0.653761 -0.230668 
3809 2 -57.5702 355.961 -673.447 -0.326832 -0.714451 0.0591376 -0.615827 
3771 2 -56.8698 393.04 -671.294 -0.0160035 0.488125 -0.80756 0.330643 
3851 2 32.3475 248.646 -691.415 -0.486034 0.120884 -0.354645 0.789547 
3873 2 3.42613 248.729 -718.231 0.0657893 0.782437 -0.489329 0.3795 
3872 2 -3.19043 251.226 -711.398 0.241909 0.862232 0.323239 0.305863 
3871 2 -10.3331 254.839 -705.515 0.472864 0.360207 0.804022 -0.0140914 
3772 2 -53.2 388.017 -679.014 -0.276685 -0.380627 -0.868026 0.15843 
3850 2 26.0966 253.717 -697.141 0.331567 0.474761 -0.176491 0.795938 
3773 2 -49.3454 383.267 -686.706 -0.231381 -0.948929 -0.199115 -0.0796896 
3774 2 -46.8227 379.284 -695.469 -0.0617876 -0.720862 0.648634 -0.236248 
3849 2 19.4272 259.737 -701.331 0.806742 0.456965 0.32191 0.191636 
3870 2 -15.763 258.09 -698.088 0.200632 -0.339765 0.88008 -0.264133 
3869 2 -20.7281 262.184 -690.571 -0.131184 -0.892184 0.304394 -0.306827 
3868 2 -24.9376 266.839 -682.92 -0.345747 -0.831099 -0.427514 -0.0834579 
3867 2 -26.7735 272.64 -675.163 -0.183749 -0.28728 -0.90281 0.261995 
3848 2 14.3065 267.324 -705.283 0.625427 0.127649 0.531648 -0.556684 
3866 2 -26.9426 278.719 -667.382 0.173209 0.458179 -0.828716 0.27074 
3899 2 63.133 260.445 -679.224 0.494327 0.403182 -0.0991318 0.763713 
3898 2 59.1468 265.973 -686.52 0.925108 0.345817 0.139533 0.0715294 
3883 1 41.1829 277.304 -796.289 0.994375 0.0358984 -0.0948407 0.0305895 
3884 3 36.1526 275.986 -761.665 0.996483 0.0640343 -0.0424006 -0.0335288 
3896 2 48.8975 277.723 -698.661 -0.0860948 -0.282905 0.298114 -0.907569 
3895 2 46.8655 283.338 -706.523 -0.845423 -0.305207 0.0386745 -0.436593 
3894 2 46.5519 290.135 -713.687 -0.823649 -0.307561 -0.178533 0.441741 
3893 2 46.6298 297.621 -720.232 -0.0468018 -0.0129306 -0.426467 0.903199 
3892 2 45.8274 305.015 -726.75 0.655238 0.302201 -0.276568 0.634703 
3891 2 43.8363 311.675 -733.846 0.933553 0.334441 0.125828 -0.0281997 
3890 2 42.3092 316.776 -742.145 0.535806 0.089048 0.28194 -0.790881 
3840 2 15.9798 344.454 -710.173 -0.394012 -0.26114 0.665143 -0.578053 
3841 2 14.1629 334.789 -710.225 0.309721 0.292463 0.568683 -0.703661 
3842 2 13.1607 324.977 -708.826 0.652559 0.737441 0.0305975 -0.171498 
3885 2 22.659 319.508 -786.347 0.530786 0.183012 0.203184 0.802178 
3886 2 27.6244 321.532 -777.993 -0.174131 0.258804 -0.0712029 0.947433 
3887 2 32.8065 321.5 -769.435 -0.883175 0.0866329 -0.120353 0.444984 
3888 2 35.9788 321.764 -760.113 -0.904054 -0.143691 -0.0976167 -0.390525 
3889 2 39.0634 320.021 -750.863 -0.260507 -0.17308 0.136749 -0.939936 
3843 2 11.2056 315.362 -709.194 0.492908 0.489583 -0.582968 0.421306 
3844 2 10.2215 305.598 -710.628 -0.0503289 -0.115116 -0.666979 0.734407 
3845 2 9.18927 295.707 -710.067 -0.657854 -0.59383 -0.300298 0.352726 
3846 2 8.84409 285.961 -708.562 -0.663669 -0.6573 0.145494 -0.326084 
3847 2 10.8902 276.396 -707.475 -0.110599 -0.293592 0.554222 -0.77098 
3839 2 16.6802 354.263 -711.387 -0.709168 -0.66304 0.169826 -0.169167 
3838 2 18.2773 363.672 -714.002 -0.580696 -0.492955 -0.362457 0.537041 
3837 2 20.3994 373.215 -715.459 0.108552 0.0128319 -0.65903 0.744132 
3836 2 23.9671 381.975 -718.323 0.710151 0.372423 -0.468117 0.371285 
3835 2 29.0228 390.279 -720.179 0.707605 0.623433 -0.0700558 -0.325144 
3819 2 33.7888 326.39 -679.459 0.32381 0.694292 0.450607 0.458322 
3820 2 42.8921 325.574 -683.191 -0.132309 0.825315 -0.212566 0.506127 
3821 2 51.7357 325.803 -687.523 -0.668994 0.250913 -0.691169 0.108512 
3897 2 53.4552 271.476 -692.599 0.629225 -0.0113787 0.458118 -0.627753 
3830 3 65.1645 370.34 -704.225 -0.626099 -0.205682 0.670232 -0.341298 
3822 2 61.5224 327.418 -688.563 -0.554698 -0.424683 -0.550712 -0.456804 
3823 2 71.4167 327.573 -688.444 0.101212 -0.640249 -0.146879 -0.747171 
3824 2 80.6579 330.64 -686.371 0.722797 -0.468373 0.277657 -0.425555 
3818 2 24.6444 327.285 -675.883 0.566746 0.157151 0.808288 0.027792 
3817 2 15.1967 329.482 -673.683 0.406082 -0.444323 0.640795 -0.476503 
3816 2 6.10127 332.031 -670.574 -0.0876865 -0.795888 0.111225 -0.588645 
3815 2 -2.89758 335.09 -667.781 -0.534763 -0.538359 -0.59209 -0.271343 
3814 2 -12.1749 338.237 -668.656 -0.618775 0.107357 -0.681028 0.376554 
3993 2 92.7214 375.885 -737.698 0.715383 0.0704502 0.408177 -0.562722 
3810 2 -48.8645 351.321 -674.059 0.366199 -0.33783 0.57023 -0.653152 
3813 2 -21.6719 341.102 -668.696 -0.0694442 0.618322 -0.269622 0.734955 
3812 2 -30.8738 344.142 -670.558 0.558997 0.574513 0.321299 0.504207 
3811 2 -40.0771 346.939 -672.837 0.779437 0.129165 0.603474 -0.107767 
3834 2 35.5854 397.59 -720.611 0.177785 0.603891 0.385514 -0.674601 
3825 2 88.3354 335.717 -682.583 0.708698 -0.230936 0.589883 0.310568 
3829 1 91.1611 393.616 -703.406 -0.632756 -0.184828 0.694896 -0.287365 
3900 2 67.7845 255.388 -672.129 -0.26063 0.0720615 -0.333481 0.903144 
3826 2 95.1206 342.668 -680.888 0.177944 0.333489 0.574846 0.725723 
3994 2 97.986 370.303 -731.309 0.83945 0.43822 0.18384 0.263608 
3991 1 98.287 354.342 -779.293 0.886704 0.409679 0.213643 0.0166057 
3974 2 133.15 251.172 -670.573 0.270192 -0.217595 -0.933415 -0.091568 
4022 2 133.017 285.524 -816.928 -0.63387 0.0584008 -0.598091 -0.486914 
3995 2 102.839 363.69 -725.822 0.233811 0.442983 -0.253615 0.827513 
4011 2 191.798 254.325 -761.419 -0.394749 -0.51283 -0.7056 0.288631 
3937 1 144.117 250.322 -730.485 0.678814 0.0775177 -0.211161 0.699009 
4019 3 163.91 258.686 -797.65 -0.871862 0.328979 -0.246208 -0.266479 
3934 2 178.145 251.792 -688.427 0.352286 -0.876375 0.325769 0.0416643 
3935 2 179.043 257.812 -696.245 0.199631 -0.208349 0.93787 0.192713 
3936 2 181.935 261.933 -704.764 -0.0157214 0.58702 0.759498 0.279864 
4023 2 140.01 291.978 -814.105 0.0478405 -0.362386 -0.359491 -0.858577 
3985 2 110.412 287.725 -768.656 -0.22793 0.831979 0.50448 0.0368641 
3986 2 109.106 291.85 -777.586 -0.27293 0.894906 -0.352123 -0.0257374 
3987 2 110.371 297.144 -785.893 -0.127404 0.273457 -0.871669 -0.386242 
3990 2 110.999 318.158 -806.73 0.247941 -0.639957 0.684082 0.247007 
3982 2 117.532 277.003 -742.235 0.283645 -0.941955 -0.141247 0.110977 
3989 2 110.566 311.464 -799.474 0.353792 -0.934636 -0.0215973 -0.0286255 
3988 2 110.624 304.222 -792.698 0.246783 -0.567539 -0.730693 -0.288246 
3981 2 121.002 273.089 -733.781 0.274658 -0.372908 -0.87673 -0.129795 
3983 2 114.604 282.008 -750.311 0.0556534 -0.716038 0.677628 0.158156 
3984 2 112.791 284.79 -759.579 -0.163804 0.0964027 0.975531 0.110519 
3992 3 110.898 330.986 -756.457 0.893303 0.389009 0.224034 0.0221417 
4010 2 187.48 262.48 -757.934 -0.0825737 0.232897 -0.802688 0.5428 
4009 2 182.061 269.932 -754.215 0.313536 0.788613 -0.259389 0.460979 
4008 2 177.494 276.658 -748.611 0.444681 0.769518 0.458243 0.0106653 
4007 2 173.366 284.203 -743.7 0.340285 0.187615 0.842437 -0.373238 
4006 2 170.224 291.216 -737.446 -0.0949886 -0.447202 0.771584 -0.442318 
4005 2 165.357 295.715 -730.067 -0.178789 -0.924418 0.0929777 -0.323792 
4064 2 227.981 388.278 -816.394 -0.192171 -0.672572 0.635818 -0.32627 
4063 2 225.346 394.196 -808.933 -0.351673 -0.908153 -0.218211 -0.0629978 
4024 2 145.967 298.434 -809.57 0.704764 -0.360506 0.0764166 -0.606221 
4025 2 151.079 302.329 -802.042 0.898025 -0.0419803 0.310639 0.308693 
4004 2 159.009 300.548 -724.282 -0.447775 -0.558071 -0.698559 -0.00836341 
4026 2 156.178 304.674 -793.89 0.31159 0.128973 0.307326 0.889848 
4027 2 160.381 308.66 -785.834 -0.454014 0.31975 0.017257 0.831464 
4028 2 165.386 312.227 -778.04 -0.924734 0.311162 -0.173015 0.134578 
4029 2 168.901 317.068 -770.086 -0.648445 0.172013 -0.330401 -0.663902 
4030 2 171.088 323.634 -763.043 0.0723485 -0.163862 -0.389006 -0.903653 
4031 2 173.434 331.009 -756.801 0.76969 -0.377295 -0.0963602 -0.505905 
4032 2 175.368 337.62 -749.675 0.855287 -0.322994 0.153486 0.374967 
4033 2 175.867 344.262 -742.261 0.214468 3.23828e-05 0.334679 0.917602 
4034 2 176.265 350.375 -734.467 -0.623749 0.0750375 0.31513 0.711337 
4035 2 173.115 355.216 -726.365 -0.937636 0.280394 0.162559 -0.12567 
4036 2 169.948 360.352 -718.567 -0.511576 0.241846 -0.0416591 -0.823447 
4003 2 152.183 306.137 -719.761 -0.334069 0.15613 -0.837121 0.404042 
4037 2 166.105 362.944 -709.824 0.342281 0.139845 -0.23048 -0.900092 
4038 2 162.24 366.117 -701.372 0.91029 -0.171403 -0.278631 -0.253689 
4039 2 158.354 370.222 -693.222 0.754531 -0.383576 0.0218164 0.532048 
4002 2 144.894 312.048 -716.361 0.0964917 0.703088 -0.404535 0.576809 
4001 2 138.248 319.292 -715.031 0.591257 0.728984 0.199511 0.281412 
3996 2 108.703 357.408 -720.91 -0.517577 0.0837593 -0.55881 0.642518 
4000 2 132.035 327.002 -714.548 0.611892 0.291819 0.680315 -0.278571 
3999 2 126.66 335.393 -714.652 0.118785 -0.298733 0.626666 -0.709886 
3997 2 115.278 351.482 -716.441 -0.733364 -0.467465 -0.476547 0.128675 
3998 2 120.928 343.506 -714.898 -0.531884 -0.701561 0.0995024 -0.463693 
3980 2 121.725 270.092 -724.37 -0.0607924 0.516833 -0.836719 -0.170554 
3979 2 121.868 266.546 -715.125 -0.186315 0.962664 -0.193073 -0.0358746 
3978 2 122.03 262.801 -705.876 -0.125438 0.706356 0.683311 0.135691 
3977 2 121.834 259.051 -696.648 0.0183121 -0.11603 0.969483 0.215183 
3976 2 124.288 255.996 -687.535 0.0733598 -0.860532 0.470669 0.180482 
4040 2 154.519 376.434 -686.65 0.0221502 -0.302418 0.324538 0.895951 
3963 2 203.957 298.589 -702.846 0.265774 -0.591147 0.529078 -0.547709 
4041 2 149.663 382.331 -680.383 -0.643755 -0.0066564 0.481354 0.594839 
3827 2 101.891 349.898 -680.308 -0.426102 0.703735 0.0799834 0.562847 
3828 2 109.078 356.749 -680.113 -0.698719 0.438469 -0.563664 -0.0426536 
3962 2 194.678 300.908 -700.469 -0.231915 -0.800584 -0.110912 -0.541276 
3961 2 185.738 302.894 -696.656 -0.530956 -0.443648 -0.707741 -0.142706 
3960 2 177.134 307.71 -695.449 -0.487761 0.180284 -0.718893 0.461281 
4042 2 143.405 387.959 -675.241 -0.86871 0.37172 0.303325 -0.123129 
3959 2 168.761 311.123 -691.253 -0.000174256 0.779262 -0.365102 0.509364 
3958 2 159.577 311.656 -687.641 0.371866 0.66893 0.476546 0.432611 
3957 2 150.996 308.706 -683.851 0.569658 -0.0735978 0.807187 0.136097 
3956 2 143.272 303.65 -680.173 0.476721 -0.734589 0.385384 -0.290852 
3975 2 128.814 254.049 -678.98 0.181156 -0.86065 -0.450595 0.153063 
3955 2 136.394 299.911 -674.124 0.0131738 -0.828623 -0.354615 -0.432965 
3954 2 128.079 297.215 -669.384 -0.400645 -0.382225 -0.75252 -0.356512 
4043 2 137.663 394.212 -670.053 -0.370056 0.464392 -0.14981 -0.790541 
3965 3 174.257 273.587 -668.303 -0.098971 -0.701402 0.20543 0.675306 
4062 2 224.47 399.626 -800.706 -0.127504 -0.396347 -0.868531 0.268896 
3833 2 42.9443 403.902 -722.309 -0.524525 0.0967998 0.614014 -0.581799 
3832 2 50.8725 409.021 -725.522 -0.790922 -0.405067 0.431957 0.154195 
3831 2 57.5423 415.938 -727.766 -0.442831 -0.595459 -0.146166 0.65419 
3775 1 -8.19608 405.372 -702.877 -0.7948 0.0604829 0.0936074 0.59655 
3777 2 26.8335 433.745 -689.026 0.760618 0.0351398 -0.0540711 -0.645989 
3778 2 25.5983 433.731 -679.244 0.986742 -0.0435547 -0.0771895 0.135962 
3779 2 23.7286 434.659 -669.49 0.566463 -0.0384599 -0.0989726 0.817218 
3776 3 -15.4423 411.14 -669.1 -0.810504 0.0122564 0.132852 0.570336 
4061 2 222.677 404.094 -791.99 0.0403051 0.482078 -0.846389 0.222716 
4060 2 221.291 407.623 -782.815 0.155783 0.934258 -0.292568 0.131523 
4059 2 219.284 410.583 -773.562 0.217072 0.776376 0.590571 -0.0366892 
4058 2 218.077 413.558 -764.232 0.114012 0.0108281 0.983736 -0.138374 
4057 2 217.294 414.718 -754.467 -0.0209096 -0.749569 0.660132 -0.0439861 
4056 2 216.487 417.089 -744.905 -0.131945 -0.970045 -0.201033 -0.0344736 
4055 2 216.24 420.574 -735.602 -0.0928812 -0.437049 -0.880671 0.157419 
4054 2 216.626 424.782 -726.645 0.140476 0.430664 -0.876953 0.160464 
4053 2 214.95 429.422 -718.092 0.227766 0.935759 -0.211469 0.166607 
4052 2 212.514 434.78 -710.129 0.332138 0.764241 0.551654 -0.0360207 
4051 2 211.205 439.692 -701.722 0.0960887 -0.00950755 0.967773 -0.232577 
4050 2 209.811 445.054 -693.509 -0.158211 -0.708524 0.640511 -0.250418 
4049 2 207.028 451.221 -686.264 -0.357843 -0.907224 -0.190116 -0.112912 
4048 2 203.909 456.951 -678.818 -0.292302 -0.4518 -0.817171 0.206564 
4046 3 175.105 418.356 -686.608 0.262442 0.277655 0.908044 -0.171721 
4047 2 200.848 460.266 -670.018 -0.0578853 0.431924 -0.873177 0.218297 
22 1 -52.64 -990.42 -515.628 -0.818275 -0.2106 0.185884 -0.501519 
52 2 2.99425 -982.039 -534.787 0.406154 -0.404436 -0.00824134 0.819391 
51 2 10.4518 -981.86 -541.271 0.88852 -0.105889 -0.374613 0.242867 
53 2 -3.47513 -978.96 -528.043 -0.464909 -0.120811 0.33307 0.811375 
54 2 -8.77202 -974.71 -520.819 -0.969905 0.0627302 0.212789 0.100351 
49 1 47.6788 -994.944 -515.464 0.820807 -0.218634 -0.311654 0.425849 
3855 2 47.0758 231.585 -659.426 0.792605 0.182301 0.255555 -0.52272 
3911 3 56.5757 205.972 -662.924 -0.385611 0.817119 -0.263211 0.338143 
3910 1 29.3283 191.641 -646.353 -0.403419 0.787743 -0.342994 0.314753 
3909 2 58.7233 202.959 -611.199 -0.791142 -0.210282 0.457153 -0.347688 
3908 2 64.6236 209.366 -615.845 -0.757043 -0.507576 0.110716 0.396226 
3907 2 70.7431 215.894 -620.165 -0.102752 -0.440765 -0.320358 0.832189 
3906 2 74.1733 223.173 -626.012 0.504406 0.0892007 -0.434617 0.74076 
3905 2 77.8172 230.316 -631.765 0.887335 0.416015 -0.193715 0.0451932 
3904 2 79.6489 235.153 -640.324 0.688477 0.232616 0.0749298 -0.682843 
3903 2 77.3289 240.517 -648.423 -0.121039 -0.173077 0.257784 -0.942837 
3902 2 73.5108 246.028 -655.669 -0.761199 -0.374421 0.0179269 -0.529211 
3947 2 96.755 243.789 -664.589 -0.160861 0.012296 -0.42116 -0.892523 
3925 2 129.81 191.335 -664.584 -0.724414 0.117993 -0.551378 -0.396591 
3926 2 137.01 196.99 -661.026 -0.0492046 -0.464761 -0.467819 -0.750147 
3927 2 144.195 203.669 -659.248 0.589123 -0.713659 0.089556 -0.368245 
3928 2 150.215 211.511 -659.575 0.528594 -0.450102 0.679178 0.238148 
3929 2 155.789 218.953 -662.82 0.209121 0.348518 0.748115 0.524527 
3968 2 173.592 242.128 -634.144 0.307977 -0.595577 -0.566268 0.479353 
3966 2 192.668 244.49 -629.499 0.459156 0.596858 -0.5111 -0.414383 
3969 2 164.57 240.021 -637.416 -0.0914759 -0.820452 0.212315 0.522888 
3970 2 155.74 240.869 -641.659 -0.458196 -0.225086 0.820437 0.257442 
3971 2 147.128 243.07 -646.126 -0.334189 0.548459 0.758143 -0.112824 
3967 2 183.121 243.653 -632.104 0.627566 0.0763466 -0.770839 0.0783541 
3972 2 141.096 245.612 -653.485 -0.128265 0.975923 0.0536369 -0.168064 
3973 2 137.471 248.221 -662.269 0.061707 0.651528 -0.708282 -0.26465 
3625 2 -383.333 395.449 -524.054 -0.00998309 -0.522467 0.0846805 -0.848385 
3626 2 -374.88 393.666 -519.236 0.657022 -0.298612 0.456093 -0.520704 
3627 2 -365.771 392.41 -515.441 0.733093 0.180767 0.610298 0.239655 
3624 2 -392.09 398.185 -527.643 -0.663363 -0.438081 -0.317851 -0.516725 
3642 2 -313.117 366.543 -597.948 0.763296 -0.290947 -0.372097 0.440764 
3645 2 -333.691 378.805 -581.462 -0.904638 0.348803 0.244396 -0.0153866 
3644 2 -328.06 372.838 -587.072 -0.496351 -0.0188214 0.456355 0.738256 
3643 2 -321.356 368.126 -592.679 0.21698 -0.415424 0.167398 0.867364 
3646 2 -338.045 385.525 -575.635 -0.592926 0.441495 -0.141483 -0.65841 
3647 2 -342.281 393.003 -570.652 0.0510822 0.100478 -0.391403 -0.91329 
3641 3 -303.695 384.927 -550.279 -0.651718 0.414611 0.269333 -0.575171 
3640 1 -276.21 377.21 -570.616 -0.669338 0.369736 0.251879 -0.59316 
3638 2 -264.07 393.437 -525.734 -0.410644 -0.183806 -0.877967 -0.163586 
3639 2 -256.185 394.803 -531.666 -0.174469 -0.781727 -0.458891 -0.384554 
3637 2 -271.406 392.947 -519.194 -0.307712 0.642864 -0.653873 0.253946 
3648 2 -344.265 400.59 -564.585 0.685366 -0.295974 -0.287241 -0.600139 
3807 2 -75.2927 358.124 -665.707 -0.458602 0.330773 -0.811156 0.149332 
3806 2 -84.0231 355.845 -661.622 -0.270394 0.803568 -0.25993 0.46217 
3805 2 -93.0758 353.577 -658.136 0.145959 0.700236 0.459769 0.526287 
3804 2 -101.926 350.742 -654.783 0.52651 -0.00342209 0.83642 0.15224 
3802 1 -91.9374 311.162 -631.122 0.596758 -0.431857 0.660464 -0.14549 
3801 2 -62.3698 279.217 -612.852 -0.149868 -0.609423 -0.411342 0.661015 
3803 3 -60.3432 322.974 -640.687 0.62181 -0.40882 0.634157 -0.209912 
3770 2 -57.8867 397.783 -662.716 0.236559 0.951709 -0.186713 0.058555 
3865 2 -26.8509 285.461 -660.193 0.373613 0.908742 -0.182254 0.0372232 
3800 2 -55.3639 286.026 -611.826 0.409386 -0.0941301 -0.733612 0.534187 
3864 2 -24.0108 293.435 -654.869 0.231473 0.690777 0.54252 -0.418234 
3857 3 16.8849 273.748 -658.095 0.306527 0.425473 -0.82585 -0.207329 
3799 2 -47.3339 291.472 -609.961 0.626259 0.52311 -0.575847 -0.0505511 
3901 2 70.7591 250.083 -664.274 -0.872614 -0.104925 -0.268701 0.394127 
3863 2 -18.5093 300.421 -650.517 -0.318554 0.0181307 0.830799 -0.456035 
3862 2 -11.8185 303.714 -643.913 -0.381749 -0.662749 0.637393 0.0936014 
3798 2 -40.5953 298.65 -608.757 0.394588 0.727767 0.173068 -0.533576 
3797 2 -34.4056 306.452 -608.047 -0.215384 0.241649 0.681068 -0.656782 
3861 2 -5.21073 306.692 -637.144 -0.16211 -0.902544 -0.091649 0.388247 
3796 2 -28.0077 313.837 -609.422 -0.697723 -0.354269 0.570361 -0.249728 
3860 2 2.93464 309.175 -632.02 0.272028 -0.503612 -0.716775 0.398258 
3859 2 11.0552 309.987 -626.461 0.457598 0.239676 -0.853392 -0.0698683 
3856 1 41.001 270.214 -632.998 0.331973 0.417324 -0.818343 -0.214356 
3858 2 19.7363 310.757 -621.749 0.196143 0.798711 -0.311507 -0.475974 
3789 2 -12.0273 379.663 -606.828 -0.672667 -0.54397 0.316822 -0.388895 
3790 2 -12.4416 369.82 -605.07 -0.138912 -0.0774685 0.622121 -0.766594 
3791 2 -12.5443 360.143 -603.024 0.430649 0.579148 0.446315 -0.529086 
3792 2 -14.3407 350.423 -603.883 0.650752 0.749482 -0.107752 -0.0564636 
3793 2 -16.4576 340.929 -605.456 0.431211 0.288023 -0.711563 0.474108 
3794 2 -19.8558 331.733 -606.978 -0.108692 -0.441288 -0.637597 0.62203 
3795 2 -23.6364 322.777 -608.862 -0.598549 -0.726325 -0.0204406 0.337304 
3788 2 -9.2193 389.092 -607.959 -0.653713 -0.664788 -0.127717 0.338237 
3787 2 -5.12973 398.031 -609.61 -0.0836392 -0.337983 -0.53831 0.76746 
3953 2 120.258 293.243 -664.847 -0.496931 0.469561 -0.729445 0.0219657 
3948 2 98.1548 251.325 -658.23 0.374096 -0.547507 -0.301286 -0.685211 
3949 2 103.007 259.613 -655.587 0.706916 -0.664391 0.241848 -0.0190726 
3950 2 106.584 268.796 -654.999 0.396895 -0.264552 0.752763 0.45369 
3952 2 114.968 285.391 -661.897 -0.475451 0.807015 0.0106562 0.350086 
3964 1 209.099 270.934 -665.004 -0.162024 -0.686882 0.224671 0.671911 
3951 2 110.121 277.644 -657.985 0.00940379 0.457028 0.709784 0.535951 
4044 2 131.556 400.166 -665.096 0.371912 0.195652 -0.444323 -0.791188 
3623 2 -399.909 402.043 -532.303 -0.796455 -0.0189218 -0.514155 0.317721 
3622 2 -406.738 407.067 -537.324 -0.203345 0.339031 -0.372802 0.83948 
3621 2 -413.624 412.145 -542.303 0.519715 0.493191 0.0462569 0.696074 
3620 2 -420.637 417.418 -546.984 0.865275 0.308769 0.394778 -0.0104998 
3619 2 -428.173 423.091 -550.065 0.379117 -0.186561 0.543401 -0.725383 
3618 2 -436.031 428.961 -550.95 -0.293828 -0.663973 0.141475 -0.672897 
3617 2 -444.231 434.534 -550.925 -0.68211 -0.499927 -0.50213 -0.180732 
3616 2 -452.539 439.9 -549.991 -0.538914 0.0322985 -0.721112 0.434196 
3615 2 -461.767 443.501 -550.221 -0.098372 0.605446 -0.333211 0.716051 
3649 2 -345.411 407.964 -558.073 0.864821 -0.456173 0.0296137 0.207639 
3653 2 -346.893 443.62 -541.922 -0.610845 0.383373 -0.36352 -0.589701 
3652 2 -347.207 433.936 -543.984 -0.782375 0.606131 0.0800467 0.118688 
3651 2 -346.963 424.66 -547.539 -0.402462 0.244159 0.507281 0.721857 
3650 2 -346.785 416.08 -552.49 0.402218 -0.268309 0.449321 0.751227 
3654 2 -346.889 452.839 -538.323 0.200873 -0.0958361 -0.59289 -0.773917 
3655 2 -347.932 462.002 -534.999 0.744169 -0.457412 -0.277366 -0.40007 
3656 2 -348.515 470.905 -530.7 0.737584 -0.531742 0.222594 0.351671 
3657 2 -349.412 480.449 -527.902 0.124543 -0.121325 0.645998 0.743274 
3658 2 -348.906 490.194 -526.461 -0.603188 0.45179 0.369385 0.543695 
3659 2 -348.11 499.484 -523.149 -0.582546 0.726896 -0.361422 -0.040454 
3660 2 -344.232 507.972 -526.511 -0.369154 0.237607 -0.786587 -0.434223 
3665 2 -334.24 545.55 -555.986 -0.37014 0.681667 0.601616 0.190745 
3662 2 -337.564 523.208 -536.911 0.390237 -0.908897 -0.0409901 -0.141214 
3661 2 -340.831 516.245 -530.706 0.129887 -0.585989 -0.694053 -0.397539 
3664 2 -334.406 537.946 -549.727 -0.0345953 0.0486764 0.887792 0.456354 
3663 2 -335.334 530.577 -543.149 0.304923 -0.634504 0.658215 0.266795 
3453 2 -297.343 490.837 -547.287 -0.597916 0.772297 -0.180746 -0.115693 
3454 2 -296.886 500.335 -549.98 -0.278976 0.31133 -0.618741 -0.665136 
3455 2 -297.006 510.211 -549.584 0.216968 -0.418128 -0.459749 -0.752811 
3667 1 -327.921 525.304 -599.899 -0.150139 0.409271 -0.233378 0.869189 
3668 3 -299.984 519.833 -579.623 -0.1439 0.419692 -0.206328 0.872112 
3673 2 -287.374 479.263 -591.857 0.932579 0.115067 0.191349 0.283621 
3672 2 -293.301 481.745 -599.384 0.798358 -0.0677795 0.322058 -0.504291 
3671 2 -297.59 484.766 -607.847 0.0642918 -0.231095 0.188292 -0.95237 
3674 2 -282.572 478.819 -583.176 0.393578 0.262204 0.230071 0.850537 
3670 2 -300.267 489.823 -615.964 -0.708995 -0.289194 0.0451994 -0.641599 
3669 2 -302.689 494.033 -624.654 -0.943524 -0.143457 -0.187268 0.232623 
3675 2 -276.763 481.11 -575.506 -0.411608 0.3819 0.064151 0.824994 
3676 2 -271.386 485.675 -568.508 -0.87542 0.250215 -0.37951 0.164329 
3677 2 -264.22 488.576 -562.26 -0.660192 -0.136981 -0.450136 -0.585458 
3678 2 -256.588 491.926 -556.813 0.0483186 -0.427766 -0.0798889 -0.899055 
3679 2 -249.19 494.135 -550.546 0.812307 -0.345532 0.218667 -0.415872 
3680 2 -243.231 497.444 -543.382 0.871109 -0.0783323 0.380341 0.300622 
3681 2 -236.95 500.689 -536.482 0.20999 0.25198 0.420215 0.846067 
3682 2 -231.047 506.545 -531.144 -0.567758 0.439233 -0.0192389 0.695957 
3456 2 -293.515 519.283 -547.994 0.823754 -0.508643 0.0775963 -0.238099 
3457 2 -290.264 527.332 -543.358 0.731473 -0.336124 0.414975 0.423985 
3458 2 -287.58 535.631 -538.756 0.131339 0.100194 0.447731 0.878776 
3459 2 -284.681 542.871 -532.704 -0.595142 0.456361 0.200053 0.630491 
3683 2 -224.829 511.023 -524.951 -0.912129 0.13428 -0.370005 0.114396 
3684 2 -218.063 512.749 -517.994 -0.490527 -0.126785 -0.413413 -0.756571 
3460 2 -281.233 551.051 -528.198 -0.827669 0.527386 -0.178182 -0.0712692 
3666 2 -336.123 552.742 -562.407 -0.396957 0.886057 -0.152515 -0.184572 
3705 2 -167.919 479.439 -533.843 0.259553 -0.00409865 -0.933442 -0.24759 
3736 2 -104.846 521.043 -604.398 0.171546 0.736306 0.544407 0.363381 
3735 2 -111.221 519.068 -596.993 0.322334 0.0148808 0.938193 0.125192 
3734 2 -115.182 518.318 -588.015 0.172918 -0.798506 0.564649 -0.116873 
3733 2 -119.754 516.196 -579.57 0.0537051 -0.931069 -0.260141 -0.250105 
3732 2 -122.375 513.71 -570.315 -0.0963275 -0.338229 -0.915738 -0.194283 
3731 2 -124.922 513.268 -560.718 -0.121854 0.430234 -0.893175 0.0478429 
3730 2 -129.562 513.545 -551.972 -0.0486485 0.942221 -0.25068 0.216824 
3729 2 -132.997 516.534 -543.139 0.16563 0.839837 0.513914 0.0559751 
3728 2 -133.787 520.968 -534.309 0.0805084 0.241561 0.938155 -0.234587 
3706 2 -172.559 483.918 -541.457 0.33869 -0.803885 -0.487113 0.0421719 
3737 2 -97.9718 522.736 -611.286 -0.277199 0.779134 -0.268937 0.493745 
3707 2 -176.375 488.809 -549.169 0.178504 -0.895141 0.309212 0.266922 
3708 2 -179.455 494.236 -556.915 0.0329636 -0.313024 0.886056 0.340343 
3709 2 -180.813 500.521 -564.514 -0.103881 0.561057 0.733208 0.369906 
3710 2 -178.419 507.11 -571.542 -0.311137 0.924835 -0.0138637 0.218361 
3711 2 -174.399 512.593 -578.673 -0.354809 0.591942 -0.699873 -0.1841 
3712 2 -171.941 519.685 -585.182 0.0228423 0.0117136 -0.854924 -0.518117 
3713 2 -172.774 528.517 -589.708 0.324597 -0.689298 -0.531241 -0.370524 
3714 2 -171.11 536.923 -594.641 0.52883 -0.830033 0.163625 0.0678994 
3738 2 -88.8612 524.244 -614.909 -0.577054 0.342071 -0.739585 0.0548613 
3739 2 -80.3528 527.318 -618.909 -0.43227 -0.456346 -0.643156 -0.437311 
3740 2 -70.8655 529.161 -621.256 0.182244 -0.800999 -0.0248307 -0.569711 
3727 2 -134.028 526.721 -526.29 -0.174886 -0.553453 0.7749 -0.250267 
3704 2 -164.475 473.807 -526.373 -0.0679882 0.62756 -0.700681 -0.332553 
3715 2 -170.225 545.792 -598.82 0.319008 -0.362198 0.656691 0.579485 
3726 2 -134.304 534.206 -519.783 -0.409295 -0.907398 0.0714468 -0.0632522 
3741 2 -61.6313 531.853 -623.612 0.61883 -0.460797 0.604061 -0.199566 
3755 2 -61.809 495.77 -556.269 0.155668 0.74219 0.587229 -0.28299 
3756 2 -64.3354 490.37 -564.132 0.230721 0.968459 -0.0940203 -0.00385011 
3757 2 -64.8779 485.851 -572.983 0.134186 0.535932 -0.791979 0.259884 
3703 2 -160.739 468.627 -518.877 -0.282309 0.93807 -0.0366719 -0.197439 
3758 2 -64.5014 480.304 -581.238 -0.241016 -0.317515 -0.872672 0.282028 
3759 2 -62.5169 473.861 -588.359 -0.290154 -0.903351 -0.309846 -0.0613505 
3754 2 -58.2412 501.61 -549.024 -0.179797 0.0601827 0.92394 -0.332244 
3769 2 -56.8568 404.501 -655.464 0.264605 0.712624 0.576401 -0.299854 
3760 2 -59.8101 468.97 -596.612 -0.198539 -0.740763 0.565809 -0.30284 
3725 2 -135.652 543.125 -515.512 -0.345631 -0.565263 -0.657588 0.3586 
3761 2 -57.972 462.897 -604.11 0.00911587 -0.0576097 0.93884 -0.339378 
3762 2 -56.853 455.969 -611.115 0.367019 0.616948 0.655074 -0.235691 
3753 2 -54.5449 509.17 -543.678 -0.45881 -0.621546 0.620902 -0.13287 
3786 2 -0.504598 405.382 -614.322 0.653056 0.14447 -0.478882 0.56861 
3752 2 -50.2302 516.717 -538.983 -0.444763 -0.832875 -0.11199 0.30978 
3768 2 -54.1563 410.194 -647.855 -0.152267 0.026436 0.932487 -0.326471 
3742 2 -52.7602 535.695 -625.77 0.581049 0.183505 0.708615 0.355772 
3751 2 -43.3656 523.258 -535.815 0.0777773 -0.465971 -0.639228 0.606802 
3750 2 -35.1366 527.124 -531.839 0.55804 0.114249 -0.809436 0.14266 
3743 2 -43.1897 538.553 -625.852 0.166141 0.619066 0.315957 0.699518 
3785 2 2.81738 410.324 -622.248 0.940483 0.258993 -0.153046 -0.158085 
3767 2 -52.1313 417.328 -641.234 -0.353821 -0.673817 0.628977 -0.158648 
3780 2 21.9229 433.853 -659.752 -0.185462 -0.167778 -0.0649977 0.966038 
3766 2 -51.4344 424.845 -634.824 -0.392301 -0.883983 -0.219783 0.127945 