ITEM: TIMESTEP
10000000
ITEM: NUMBER OF ATOMS
4067
ITEM: BOX BOUNDS pp pp pp
-4.6310929470000001e+03 4.6704658980000004e+03
-4.6310929470000001e+03 4.6704658980000004e+03
-4.6310929470000001e+03 4.6704658980000004e+03
ITEM: ATOMS id type x y z c_q[1] c_q[2] c_q[3] c_q[4] 
3045 2 -122.506 331.073 -589.701 -0.115004 0.0899418 0.918458 -0.367586 
3044 2 -119.278 337.211 -582.658 -0.354167 -0.692878 0.620725 -0.0958465 
3043 2 -117.784 343.867 -575.444 -0.339662 -0.924145 -0.135028 0.111147 
3042 2 -115.156 349.88 -568.095 -0.0962353 -0.546155 -0.748876 0.36282 
3041 2 -111.804 357.292 -562.445 0.258311 0.180924 -0.86687 0.386107 
3040 2 -109.209 363.563 -555.218 0.3401 0.808922 -0.477087 0.0486241 
3039 2 -107.031 371.301 -549.423 0.359363 0.862583 0.266648 -0.236022 
3038 2 -105.398 379.521 -544.287 0.126593 0.373574 0.790528 -0.46849 
3047 3 -74.4554 331.457 -570.004 0.586524 -0.0495914 0.0304507 -0.807838 
3046 1 -77.8152 331.008 -604.845 0.601362 -0.0465214 0.00512348 -0.797604 
3037 2 -102.43 387.941 -540.125 -0.332853 -0.274532 0.80349 -0.410178 
3058 2 -61.1104 288.688 -522.892 0.480793 -0.12953 -0.586824 0.638512 
3059 2 -68.4924 282.642 -520.397 -0.0964338 -0.658292 -0.186807 0.72281 
3060 2 -77.1744 277.986 -519.001 -0.602427 -0.538239 0.355058 0.470441 
3036 2 -97.5274 395.798 -536.735 -0.574204 -0.773293 0.234801 0.131063 
3061 2 -86.5466 275.41 -517.399 -0.747582 -0.122122 0.63531 -0.150293 
3062 2 -95.5083 271.812 -515.318 -0.347426 0.35239 0.50665 -0.70599 
3057 2 -54.796 293.793 -528.634 0.909212 0.275608 -0.308719 -0.0454622 
3056 2 -48.8739 299.543 -534.068 0.478553 0.473071 0.098885 -0.733084 
3055 2 -44.1545 306.348 -539.686 -0.288383 0.148585 0.474723 -0.818166 
3054 2 -38.7532 312.152 -545.505 -0.838478 -0.223145 0.396564 -0.29983 
3053 2 -34.8764 317.141 -553.211 -0.854845 -0.29698 0.0816613 0.417581 
3052 2 -30.8565 319.881 -561.711 -0.173472 -0.230166 -0.101432 0.952178 
3051 2 -28.8943 323.365 -570.76 0.646319 0.0364691 -0.188489 0.738521 
3050 2 -29.3604 326.374 -580.206 0.987834 0.15213 0.014925 0.0285805 
3049 2 -30.3287 329.781 -589.454 0.6014 0.0599957 0.186806 -0.774482 
3048 2 -31.1288 333.686 -598.558 -0.217748 -0.0757831 0.148997 -0.961583 
3009 2 4.84284 385.018 -521.145 -0.0563197 0.575745 0.808987 0.104337 
3010 2 5.95844 387.67 -530.576 -0.147266 0.986738 0.0312941 -0.0606746 
3011 2 5.14396 390.487 -540.046 0.0452988 0.594928 -0.795628 -0.104807 
3012 2 3.0451 391.704 -549.668 -0.014091 -0.361985 -0.931686 0.0270208 
3014 2 0.0316712 389.388 -568.898 -0.0285008 -0.820208 0.567524 0.0660457 
3015 2 -1.47474 389.49 -578.636 -0.0707139 -0.17649 0.981604 0.0174511 
3016 2 -2.94554 389.849 -588.431 -0.125451 0.631485 0.761999 -0.0696128 
3018 2 -6.11631 389.365 -607.752 0.0663336 0.607834 -0.79038 0.0379247 
3017 2 -5.32931 390.723 -598.018 0.0751878 0.996371 0.0152223 -0.0368816 
3013 2 2.81726 390.707 -559.538 -0.00610302 -0.937126 -0.310107 0.159973 
3035 2 -91.6305 403.666 -537.281 -0.303196 -0.581011 -0.34517 0.67183 
3034 2 -86.2634 411.859 -538.849 0.34717 -0.0686234 -0.621142 0.699247 
3033 2 -81.043 419.821 -541.754 0.820117 0.406436 -0.377681 0.139911 
3032 2 -76.9982 428.334 -544.759 0.62624 0.587552 0.100621 -0.502475 
3031 2 -72.4165 435.611 -549.811 -0.0185445 0.242053 0.430992 -0.869087 
3030 2 -69.0301 442.402 -556.07 -0.696019 -0.210956 0.378295 -0.572668 
3029 2 -64.055 449.707 -560.525 -0.829316 -0.484676 0.152606 0.232456 
3028 2 -57.9379 455.974 -565.158 -0.379095 -0.469417 -0.185115 0.775672 
3027 2 -53.9183 461.391 -572.439 0.356353 -0.0951362 -0.346056 0.862674 
3021 2 -51.7063 466.251 -628.802 -0.532132 0.0255688 0.0523398 0.844655 
3025 2 -49.8975 469.286 -589.698 0.826049 0.142679 0.0217737 -0.544805 
3026 2 -51.6305 467.011 -580.283 0.899951 0.282123 -0.192121 0.271263 
3024 2 -50.5485 469.974 -599.567 0.15529 -0.0154865 0.0220491 -0.987501 
3023 2 -51.3117 469.5 -609.372 -0.622641 -0.0340891 -0.0336835 -0.781039 
3022 2 -51.3638 466.81 -618.827 -0.992296 0.114652 0.0185166 0.0431403 
3020 3 -40.7537 426.682 -597.029 -0.959483 0.0138653 0.251378 -0.126528 
3019 1 -25.0767 427.353 -628.33 -0.959805 0.0209177 0.249162 -0.127494 
2968 2 37.8244 420.253 -553.024 0.968051 0.0219484 0.0974482 0.23 
2967 2 37.5663 420.999 -562.914 0.769187 0.00426835 0.0489855 -0.637129 
2969 2 39.2866 419.775 -543.271 0.508332 0.0778156 -0.035589 0.8569 
2970 2 39.8489 418.452 -533.451 -0.313434 -0.042118 -0.0732702 0.945842 
2965 1 21.1454 465.128 -560.139 0.0211682 0.192294 -0.0691455 0.978669 
2971 2 39.2819 416.865 -523.744 -0.922313 -0.043724 -0.0780673 0.375942 
2966 3 36.5158 460.289 -529.128 -0.0638466 0.184649 -0.0733505 0.977982 
2964 2 15.996 507.02 -539.025 0.0349742 0.73999 -0.635569 -0.217358 
2963 2 19.8208 504.806 -530.207 -0.129347 0.96648 0.14912 -0.164164 
2962 2 22.6858 502.875 -520.894 -0.20823 0.564882 0.79815 -0.0224563 
3126 2 -8.79016 74.1423 -469.759 0.254545 -0.250322 0.907146 -0.222782 
3125 2 -14.5379 76.4196 -462.113 0.0101231 -0.878637 0.338279 -0.336842 
3124 2 -21.6461 78.7129 -455.634 -0.317355 -0.814652 -0.398043 -0.27783 
3123 2 -28.4989 83.547 -450.295 -0.413369 -0.214304 -0.869714 0.163703 
3122 2 -33.6959 89.0837 -443.975 -0.0313146 0.534885 -0.707097 0.461445 
3142 2 -41.8974 93.4225 -365.216 -0.317018 0.19437 0.541017 -0.754334 
3121 2 -36.513 95.8794 -437.372 0.333531 0.914218 -0.110173 0.202053 
3143 2 -48.3283 86.6769 -361.74 0.53282 0.497177 0.180568 -0.660539 
3075 2 -173.44 158.426 -500.793 0.16601 0.576381 0.144318 0.787018 
3073 1 -191.571 201.979 -502.774 0.0422141 0.61985 0.13828 0.771286 
3076 2 -164.179 159.069 -497.377 -0.585396 0.488226 -0.239684 0.601248 
3077 2 -155.553 161.529 -493.288 -0.853709 0.0905166 -0.482559 -0.173563 
3074 3 -157.525 207.751 -496.938 -0.0160174 0.644825 0.151467 0.749001 
3078 2 -147.577 164.7 -488.437 -0.359405 -0.272246 -0.498139 -0.740654 
3079 2 -139.492 169.429 -485.152 0.342646 -0.657353 -0.108237 -0.662394 
3080 2 -131.323 174.716 -483.712 0.782977 -0.421011 0.440161 -0.12631 
3081 2 -123.513 180.409 -481.784 0.570619 0.0271588 0.67006 0.473999 
3082 2 -115.684 186.405 -480.997 -0.0131655 0.567695 0.392348 0.72361 
3083 2 -107.865 192.402 -479.762 -0.64089 0.588902 -0.197585 0.451016 
3084 2 -99.9928 198.069 -477.967 -0.69415 0.273528 -0.592566 -0.30365 
3085 2 -92.942 204.974 -476.839 -0.311078 -0.288437 -0.56219 -0.709914 
3086 2 -85.2013 210.939 -475.085 0.377418 -0.546666 -0.00529067 -0.747452 
3087 2 -77.1494 214.981 -471.077 0.860475 -0.362907 0.319062 -0.161497 
3088 2 -70.4084 220.127 -466.021 0.690581 0.0299707 0.406396 0.59753 
3089 2 -64.2452 224.798 -460.052 0.00215914 0.300473 0.227262 0.926317 
3109 2 -88.9725 192.78 -411.913 -0.377584 -0.0704952 -0.867673 0.315601 
3110 2 -83.0969 186.386 -416.664 -0.562806 -0.709939 -0.401775 -0.133463 
3111 2 -76.8531 179.709 -420.385 -0.309556 -0.693384 0.258718 -0.597042 
3108 2 -94.5168 199.703 -407.45 0.0824707 0.612423 -0.603252 0.504207 
3107 2 -101.005 205.434 -402.632 0.376256 0.851576 0.157167 0.329468 
3106 2 -105.654 211.942 -396.671 0.40083 0.480283 0.755379 -0.195106 
3105 2 -110.025 219.584 -392.066 0.0517547 -0.287801 0.796666 -0.528976 
3104 2 -115.15 226.736 -387.561 -0.338008 -0.830798 0.161221 -0.411744 
3103 2 -118.249 234.183 -381.63 -0.455891 -0.703582 -0.531 0.123184 
3101 3 -73.0717 243.076 -398.33 -0.317706 -0.805917 0.421084 -0.268791 
3112 2 -70.3393 172.402 -421.628 0.247015 -0.228011 0.771996 -0.53946 
3102 2 -120.122 242.35 -376.34 -0.152722 -0.12398 -0.872078 0.448091 
3113 2 -63.941 165.679 -425.001 0.572942 0.483523 0.649131 -0.128732 
3114 2 -58.1912 158.31 -428.181 0.557974 0.701079 -0.0774622 0.437211 
3090 2 -58.3389 228.78 -453.193 -0.68065 0.346672 -0.126098 0.632956 
3091 2 -52.4175 232.342 -446.118 -0.915588 0.240898 -0.308224 -0.0930849 
3115 2 -52.6486 150.151 -428.259 0.021035 0.268272 -0.669442 0.692412 
3141 2 -35.8302 100.431 -368.731 -0.756751 -0.211136 0.513654 -0.344832 
3092 2 -47.5291 237.393 -439.068 -0.463457 -0.141708 -0.383099 -0.78636 
3140 2 -29.2692 106.591 -372.669 -0.760498 -0.50307 0.151415 0.381624 
3139 2 -22.8516 112.308 -377.497 -0.143884 -0.438856 -0.286683 0.839354 
3116 2 -49.0331 140.884 -428.138 -0.601448 -0.354992 -0.585229 0.412005 
3138 2 -15.7214 117.732 -381.814 0.655368 -0.0687831 -0.510646 0.552269 
3127 1 28.6802 100.353 -458.154 -0.741854 -0.154702 0.355163 0.547338 
3117 2 -45.6268 131.613 -426.94 -0.683446 -0.709317 -0.0923715 -0.145735 
3118 2 -43.1082 122.086 -426.846 -0.306563 -0.529822 0.534738 -0.582549 
3119 2 -40.7526 112.56 -427.766 0.124186 0.11242 0.827728 -0.535542 
3137 2 -8.06545 122.542 -385.676 0.826964 0.362411 -0.393044 -0.174083 
3128 3 5.79697 107.314 -432.66 -0.744442 -0.0952659 0.375507 0.543806 
3120 2 -39.5139 103.583 -431.831 0.467679 0.673447 0.55307 -0.147847 
3135 2 10.0143 127.96 -391.404 -0.386148 0.476659 0.381678 -0.691381 
3134 2 19.4845 128.681 -394.188 -0.803369 0.00277087 0.581959 -0.126152 
3133 2 27.8362 128.784 -399.476 -0.634202 -0.301551 0.324247 0.633812 
3132 2 35.3678 128.38 -405.834 0.1156 -0.408295 0.00122109 0.9055 
3131 2 41.6828 128.731 -413.47 0.803075 -0.13045 -0.293048 0.502172 
3129 2 52.5848 129.586 -429.859 0.313122 0.299249 -0.0460371 -0.900158 
3130 2 46.4972 129.026 -422.097 0.903951 0.13011 -0.226084 -0.338867 
3136 2 0.464542 126.359 -389.081 0.34052 0.600383 -0.0195074 -0.72333 
3093 2 -41.6471 242.472 -432.942 0.3755 -0.370415 -0.28072 -0.801866 
3072 2 -188.646 249.03 -500.809 0.531682 -0.288424 -0.740187 0.293681 
3063 2 -104.041 267.264 -513.218 0.210851 0.656607 0.0659652 -0.72115 
3064 2 -112.827 262.798 -512.007 0.730695 0.449824 -0.445572 -0.255362 
3071 2 -178.927 250.188 -498.995 0.582747 0.383229 -0.673702 -0.24427 
3070 2 -169.217 251.382 -500.372 0.258265 0.640473 -0.139641 -0.709643 
3067 2 -140.292 253.614 -506.965 -0.539309 -0.503182 0.367376 0.566558 
3066 2 -130.98 256.125 -508.605 0.068453 -0.557877 -0.232947 0.793614 
3068 2 -150.004 252.698 -504.974 -0.746551 -0.00301525 0.665042 0.0192592 
3069 2 -159.745 252.271 -503.075 -0.429848 0.46834 0.367426 -0.678886 
3065 2 -121.565 258.384 -510.368 0.639126 -0.250919 -0.589356 0.425697 
3100 1 -80.686 268.209 -375.188 -0.315957 -0.837045 0.364844 -0.257711 
3094 2 -37.6121 249.482 -427.125 0.911493 -0.370875 0.107193 -0.141925 
3008 2 1.92776 381.672 -512.223 0.156463 -0.265829 0.944232 0.115243 
3095 2 -35.032 256.141 -420.198 0.668955 -0.260695 0.247007 0.650788 
3096 2 -34.6426 262.621 -412.728 -0.159274 0.098644 0.278629 0.941949 
3097 2 -33.7367 267.973 -404.54 -0.874611 0.229039 0.176823 0.389013 
3098 2 -35.144 272.526 -395.941 -0.860598 0.269321 -0.0776727 -0.42521 
3099 2 -36.182 277.837 -387.672 -0.151782 0.07934 -0.245397 -0.954174 
3007 2 -1.10588 379.48 -503.055 0.166837 -0.896122 0.401168 -0.0905201 
2996 2 -30.1529 338.444 -412.27 -0.409409 0.896479 -0.0845922 0.146811 
2997 2 -26.7557 344.815 -419.089 -0.399864 0.433625 -0.800913 -0.103036 
2998 2 -21.3449 350.436 -425.219 -0.132224 -0.3115 -0.838354 -0.427373 
2995 2 -33.2191 334.618 -403.678 -0.0456168 0.734856 0.628688 0.250316 
2994 2 -37.5399 330.217 -395.962 0.269165 -0.119429 0.933572 0.204279 
2999 2 -17.2668 357.298 -431.092 0.207759 -0.872938 -0.28514 -0.336914 
3006 2 -4.52091 376.103 -494.372 0.115278 -0.873599 -0.412691 -0.230699 
3005 2 -8.28032 374.083 -485.546 -0.14602 -0.255583 -0.945514 -0.139134 
3004 2 -9.67643 371.446 -476.054 -0.137077 0.613139 -0.770623 -0.106821 
3000 2 -12.8711 362.789 -438.122 0.169046 -0.844023 0.506862 -0.0462564 
3001 2 -9.8944 365.622 -447.072 0.0506808 -0.12805 0.98596 0.0944302 
3002 2 -9.55615 367.598 -456.736 -0.082872 0.716945 0.691334 0.0343352 
3003 2 -9.75963 369.259 -466.511 -0.127502 0.979454 -0.156084 -0.0071151 
2993 3 -4.04789 368.866 -386.795 0.346347 -0.911762 0.214119 -0.0537334 
2972 2 40.0142 415.746 -513.916 -0.87317 -0.148057 0.107503 -0.451769 
2980 2 28.7363 401.944 -437.27 -0.217662 0.113911 0.0117307 -0.969283 
2981 2 26.5453 402.196 -427.613 0.615016 0.0334574 -0.106125 -0.780624 
2979 2 30.791 401.95 -447.023 -0.911729 0.0457294 0.074675 -0.401352 
2961 2 27.0691 500.951 -512.126 -0.169232 -0.161108 0.965055 0.118635 
2987 2 20.6498 402.084 -370.159 -0.153341 -0.0836197 0.265747 -0.948089 
2982 2 24.6365 402.809 -418.016 0.985418 -0.0852414 -0.141956 0.039174 
2983 2 21.9042 404.995 -408.68 0.621561 -0.116727 0.0076131 0.774583 
2986 2 19.622 405.578 -379.408 -0.863023 -0.191848 0.051814 -0.464437 
2978 2 33.1442 403.575 -456.56 -0.88137 -0.124408 0.0329446 0.45456 
2985 2 18.9494 405.9 -389.226 -0.896134 0.0210133 -0.0577505 0.439509 
2984 2 20.1175 406.534 -399.075 -0.242934 -0.0757572 0.0108099 0.96702 
2976 2 35.4737 405.83 -475.962 0.652214 -0.0580265 -0.10358 0.748679 
2977 2 33.381 404.195 -466.433 -0.181551 -0.0554783 -0.0323911 0.981281 
2975 2 37.0414 407.755 -485.572 0.990268 0.109754 -0.0855752 0.000574074 
2974 2 37.2137 410.279 -495.154 0.528845 0.0934815 0.108928 -0.836492 
2973 2 39.2371 412.531 -504.578 -0.27615 0.0626085 0.140739 -0.948691 
2960 2 32.8578 498.263 -504.453 -0.000558045 -0.817551 0.480571 0.317273 
2959 2 38.083 496.282 -496.273 0.179522 -0.879373 -0.379605 0.224445 
2958 2 43.87 497.722 -488.457 0.246705 -0.212846 -0.935931 0.133668 
2957 2 50.813 498.366 -481.447 0.321864 0.608853 -0.687883 -0.229171 
2956 2 57.5193 499.564 -474.292 -0.0219078 0.926015 0.151941 -0.344863 
2955 2 65.8218 501.368 -469.295 -0.32727 0.459519 0.752346 -0.340165 
2954 2 73.4741 501.74 -463.039 -0.413326 -0.246548 0.867764 0.123941 
2953 2 81.062 502.967 -456.872 -0.234775 -0.839749 0.351145 0.341173 
2952 2 89.8864 504.243 -452.521 0.127669 -0.786047 -0.347439 0.495092 
2951 2 97.931 507.992 -448.21 0.413909 -0.160549 -0.821662 0.357455 
2950 2 104.473 514.213 -444.149 0.545178 0.598396 -0.584036 -0.0600366 
2949 2 111.895 519.612 -440.708 0.307796 0.824015 0.0117026 -0.475525 
2948 2 118.955 524.865 -436.333 -0.159008 0.474946 0.721837 -0.477592 
2947 2 126.967 527.213 -430.993 -0.47791 -0.213899 0.851872 -0.0127971 
2943 2 163.702 531.752 -418.557 0.50157 0.495513 -0.567666 -0.425029 
2942 2 173.512 533.067 -418.186 -0.0101416 0.689885 0.0744288 -0.720011 
2944 2 153.954 531.313 -419.991 0.555427 -0.164299 -0.807756 0.109709 
2941 2 182.665 536.754 -418.425 -0.477036 0.37635 0.603542 -0.51627 
2945 2 144.829 531.153 -423.66 0.203834 -0.743092 -0.383495 0.509115 
2946 2 136.15 529.504 -428.018 -0.395378 -0.758596 0.29563 0.425218 
2940 2 191.772 540.496 -419.497 -0.748725 -0.277562 0.60197 0.00156195 
2899 2 85.946 697.581 -385.077 0.372359 -0.341162 0.414373 -0.757134 
2900 2 94.103 693.636 -380.991 0.789877 0.0513109 0.5944 -0.141952 
2898 2 79.3288 701.846 -390.981 -0.345501 -0.433843 0.102596 -0.825762 
2921 2 89.912 626.524 -367.553 0.214696 0.319683 0.91782 -0.0965141 
2922 2 93.1795 623.566 -376.41 0.199987 0.925421 0.312679 0.0763712 
2923 2 95.8783 620.88 -385.6 0.00929807 0.87152 -0.460508 0.168219 
2938 1 185.794 558.351 -462.767 0.148215 0.382056 -0.29899 -0.861784 
2901 2 103.446 691.419 -378.36 0.58916 0.445935 0.41602 0.530056 
2937 2 161.986 582.531 -495.534 0.0815466 0.830649 -0.37666 0.40187 
2936 2 156.062 587.178 -489.278 0.344201 0.843725 0.359132 0.201688 
2939 3 156.951 568.527 -445.797 0.190595 0.390403 -0.264053 -0.861124 
2924 2 98.7178 619.724 -394.996 -0.277198 0.253061 -0.902423 0.21155 
2925 2 104.896 617.255 -402.22 -0.339852 -0.585719 -0.732139 -0.0735328 
2935 2 149.749 591.667 -483.153 0.387548 0.317425 0.858691 -0.108158 
2934 2 144.652 596.662 -476.31 0.0840873 -0.492447 0.759725 -0.416226 
2933 2 140.128 602.3 -469.422 -0.295244 -0.909056 0.0885441 -0.280373 
2932 2 136.289 605.322 -460.782 -0.248409 -0.648253 -0.719518 -0.0188355 
2931 2 132.306 605.306 -451.617 -0.237163 0.127699 -0.962651 -0.0273894 
2930 2 128.466 605.405 -442.417 -0.0979624 0.822546 -0.534988 0.166162 
2929 2 124.642 604.899 -433.348 0.0703659 0.896741 0.404601 0.164929 
2928 2 121.135 606.215 -424.192 0.162752 0.243003 0.956036 -0.0213727 
2927 2 115.175 610.299 -417.488 0.140057 -0.583769 0.711273 -0.365634 
2926 2 110.886 614.392 -409.538 -0.193221 -0.943199 0.0466683 -0.266203 
2902 2 112.942 690.062 -375.798 -0.0929481 0.587145 -0.104076 0.797364 
2903 2 122.299 688.92 -372.798 -0.724994 0.260477 -0.526011 0.360343 
2904 2 131.904 688.643 -370.516 -0.794242 -0.1737 -0.504245 -0.291109 
2905 2 140.995 688.689 -366.62 -0.30633 -0.413926 -0.124603 -0.848117 
2883 2 -70.2289 743.582 -407.74 -0.0137052 -0.940344 0.261802 0.216852 
2882 2 -66.4708 742.489 -398.621 0.184053 -0.736721 -0.639112 0.122074 
2881 2 -60.9312 743.168 -390.406 0.249607 0.124638 -0.960281 -0.00476567 
2897 2 73.5081 706.886 -397.246 -0.852334 -0.371551 -0.223142 -0.292719 
2896 2 67.768 713.238 -402.266 -0.711013 -0.11872 -0.512795 0.46627 
2880 2 -54.0046 742.12 -383.455 0.159862 0.802033 -0.480388 -0.316882 
2879 2 -47.0247 742.024 -376.456 -0.137507 0.853498 0.314467 -0.392102 
2878 2 -40.3945 744.303 -369.466 -0.309393 0.296974 0.873466 -0.230519 
2884 1 -36.4235 752.365 -439.437 -0.625036 0.184329 -0.206632 0.729832 
2895 2 61.7638 719.923 -406.381 0.0262219 0.410714 -0.384189 0.826453 
2894 2 54.6276 725.474 -410.305 0.672873 0.520453 0.12539 0.510537 
2893 2 46.4275 730.542 -412.486 0.77833 0.230856 0.56504 -0.147094 
2892 2 39.9671 737.799 -414.499 0.405827 -0.130184 0.600661 -0.676434 
2891 2 32.9297 744.463 -416.844 -0.249992 -0.555104 0.267918 -0.746715 
2890 2 26.5805 751.094 -420.497 -0.785321 -0.494585 -0.248046 -0.277723 
2889 2 21.5432 756.884 -426.794 -0.774251 -0.116829 -0.397582 0.478346 
2885 3 -18.7614 749.983 -409.423 -0.659553 0.19191 -0.232686 0.688489 
2887 2 10.9303 761.015 -442.865 0.723846 0.210555 0.157634 0.637859 
2888 2 15.8384 759.79 -434.357 -0.101365 0.318976 -0.172077 0.926482 
2886 2 7.8361 762.404 -452.205 0.9541 -0.00929484 0.157955 -0.254278 
2748 2 74.8776 815.485 -388.899 0.329988 -0.0274873 -0.895016 0.298831 
2747 2 80.5861 820.884 -382.896 0.435106 0.628497 -0.644565 -0.0144869 
2746 2 85.5875 826.867 -376.716 0.333608 0.891029 0.120695 -0.283205 
2877 2 -32.7935 745.442 -363.155 -0.393183 -0.463056 0.780738 0.146405 
2745 2 92.7747 831.461 -371.455 -0.224788 0.484467 0.72445 -0.435815 
2744 2 100.718 836.695 -368.599 -0.57197 -0.215433 0.77448 -0.163156 
2743 2 106.548 844.479 -366.556 -0.583197 -0.760434 0.187799 0.215296 
2742 2 111.047 853.236 -365.905 -0.300757 -0.583285 -0.450598 0.605215 
2720 2 84.8832 989.794 -388.851 0.291406 -0.93063 0.218138 0.0377711 
2721 2 85.3306 995.454 -396.86 0.166672 -0.457462 0.842777 0.229511 
2719 2 83.7442 984.136 -380.817 0.216269 -0.764802 -0.550247 -0.255998 
2718 2 83.6031 979.005 -372.441 0.00416286 -0.150689 -0.952444 -0.264813 
2717 2 85.8579 974.526 -363.83 -0.100541 0.691996 -0.66991 -0.249508 
2741 2 115.452 862.004 -364.915 0.309321 -0.0256946 -0.726421 0.613166 
2723 3 128.297 981.987 -371.043 -0.59775 -0.352559 -0.337507 0.635993 
2724 2 172.964 1008.41 -372.844 0.395161 0.272563 0.507874 -0.715277 
2725 2 173.166 999.292 -369.013 0.830366 0.516356 0.0810458 -0.193135 
2740 2 117.651 871.601 -364.304 0.615817 0.599455 -0.42411 0.285576 
2726 2 172.346 990.611 -364.38 0.687295 0.327323 -0.395225 0.514084 
2722 1 128.737 1012.09 -388.832 -0.609064 -0.33053 -0.378019 0.613916 
1655 2 367.783 -529.28 -224.185 -0.51811 -0.490934 0.571312 -0.405152 
1656 2 366.201 -538.98 -225.971 0.0656286 0.134492 0.736719 -0.659431 
1657 2 364.658 -548.529 -227.431 0.594653 0.663406 0.302509 -0.338773 
1658 2 363.963 -558.454 -227.991 0.655614 0.630399 -0.304911 0.282483 
1659 2 363.037 -568.323 -227.851 0.109225 0.236493 -0.604385 0.752901 
1660 2 365.081 -577.929 -226.625 -0.49503 -0.207908 -0.495201 0.683005 
1661 2 366.483 -586.906 -222.622 -0.816342 -0.554217 -0.0499027 0.154719 
1662 2 366.131 -595.89 -218.519 -0.508369 -0.48314 0.341483 -0.62572 
1663 2 368.408 -604.917 -215.13 0.257187 -0.105142 0.452365 -0.847447 
1654 2 367.885 -519.731 -221.631 -0.584172 -0.803151 -0.0990477 0.0622965 
1664 2 371.756 -612.363 -209.497 0.844413 0.22334 0.35553 -0.332693 
1680 2 408.232 -521.291 -256.471 -0.0252543 -0.0806058 0.961188 0.262646 
1679 2 409.173 -526.372 -248.001 0.177458 -0.749882 0.602562 0.207617 
1678 2 411.813 -530.588 -239.486 0.239957 -0.924952 -0.288314 0.0613194 
1677 2 415.423 -533.843 -230.834 0.266477 -0.274413 -0.917553 -0.108551 
1676 2 419.441 -538.715 -223.302 0.048425 0.537271 -0.762329 -0.35756 
1726 2 433.611 -596.235 -231.447 -0.407568 0.790343 -0.175183 -0.422562 
1727 2 428.773 -588.199 -234.566 -0.0666281 0.304956 -0.807389 -0.500685 
1728 2 426.175 -579.917 -239.269 0.31717 -0.5233 -0.674019 -0.413834 
1729 2 426.687 -571.152 -243.661 0.506863 -0.851118 0.0605971 -0.122541 
1730 2 429.749 -563.003 -248.248 0.475809 -0.507627 0.667956 0.264113 
1731 2 433.736 -554.958 -252.513 0.0592922 0.386323 0.77021 0.503999 
1732 2 438.43 -547.312 -256.773 -0.539451 0.718475 0.102107 0.427038 
1725 2 437.574 -603.808 -226.422 -0.516358 0.631878 0.571072 0.0893344 
1724 3 463.97 -559.462 -219.94 0.441131 -0.794763 0.182033 0.374993 
1733 2 443.306 -538.815 -257.901 -0.72934 0.469677 -0.489594 -0.0881116 
1734 2 449.061 -530.805 -257.84 -0.286005 -0.0845624 -0.723013 -0.62314 
1735 2 454.358 -522.56 -258.25 0.253008 -0.533093 -0.221781 -0.776281 
1723 1 479.223 -589.284 -209.685 0.420417 -0.789659 0.178146 0.409819 
1675 2 423.972 -543.044 -215.638 -0.242903 0.938427 -0.0421663 -0.242024 
1736 2 461.696 -516.613 -255.131 0.711907 -0.427706 0.375685 -0.411239 
1681 2 407.679 -515.711 -264.644 -0.268802 0.743059 0.587414 0.174799 
1653 2 365.594 -510.146 -220.579 -0.374094 -0.303503 -0.678975 0.554015 
1652 2 362.509 -501.956 -215.972 0.10415 0.440774 -0.749741 0.482452 
1651 2 362.154 -493.767 -210.45 0.478581 0.834416 -0.24115 0.128671 
1715 2 462.733 -512.589 -209.12 0.566323 0.513503 0.224598 0.604276 
1737 2 470.044 -512.715 -251.641 0.722089 -0.0389994 0.647953 0.239215 
1695 2 456.715 -435.044 -356.941 -0.258341 0.557468 0.674176 0.409848 
1682 2 406.536 -509.91 -272.527 -0.330446 0.925083 -0.185012 -0.0282361 
1683 2 407.469 -503.022 -279.665 -0.301414 0.469537 -0.791102 -0.250684 
1746 2 541.788 -507.349 -284.549 0.0135651 0.860735 -0.442905 0.250571 
1744 2 532.846 -506.133 -267.023 0.293312 0.252418 0.918469 0.0816567 
1745 2 537.947 -506.368 -275.492 0.116965 0.888875 0.427815 0.114869 
1684 2 410.098 -496.568 -286.629 -0.15209 -0.408263 -0.822746 -0.365074 
1700 2 418.729 -402.65 -277.316 0.805972 0.381257 0.254319 -0.374665 
1685 2 415.196 -491.992 -293.781 0.207272 -0.921543 -0.270641 -0.185878 
1699 2 417.642 -394.779 -283.189 0.285389 0.087954 0.413623 -0.860077 
1738 2 478.934 -508.741 -249.754 0.324533 0.505382 0.514384 0.612109 
1686 2 417.695 -487.806 -302.442 0.3122 -0.761818 0.565453 0.049261 
1694 2 455.371 -443.548 -352.004 0.163508 -0.14451 0.851854 0.476158 
1739 2 488.387 -505.686 -250.337 -0.226353 0.712067 -0.162516 0.644448 
1740 2 498.122 -504.424 -251.311 -0.604486 0.345423 -0.691178 0.193783 
1698 2 417.015 -387.106 -289.414 -0.535167 -0.269417 0.353805 -0.718215 
1701 2 419.741 -411.357 -272.561 0.708458 0.567822 -0.191519 0.372808 
1702 2 421.553 -420.835 -270.094 0.205058 0.159416 -0.567135 0.781598 
1703 2 421.819 -430.147 -266.947 -0.508993 -0.428702 -0.401527 0.629219 
1687 2 421.034 -482.505 -310.122 0.177849 -0.0580871 0.95242 0.240607 
1709 2 425.36 -483.01 -243.646 0.0733151 0.208041 -0.304819 0.926515 
1752 2 458.744 -504.408 -325.941 -0.892998 0.447369 0.0353226 0.0341776 
1704 2 420.984 -439.803 -264.558 -0.790336 -0.612373 0.0190214 -0.00245693 
1705 2 420.618 -449.439 -262.271 -0.443366 -0.343167 0.51257 -0.650335 
1688 2 424.555 -477.974 -318.205 0.00325105 0.733597 0.598289 0.322297 
1706 2 420.302 -459.069 -259.865 0.281675 0.139409 0.550794 -0.773208 
1707 2 421.276 -467.98 -255.607 0.8157 0.442333 0.238962 -0.286132 
1697 3 433.824 -431.483 -310.492 -0.887922 -0.440889 0.130942 0.0080935 
1689 2 429.725 -473.894 -325.593 -0.282881 0.876313 -0.215819 0.32477 
1690 2 436.303 -470.496 -332.146 -0.376597 0.375113 -0.841227 -0.0990039 
1708 2 422.811 -476.238 -250.408 0.760255 0.415469 -0.0735438 0.493953 
1693 2 451.619 -451.57 -347.59 0.489868 -0.727528 0.471561 0.0914445 
1741 2 507.714 -503.004 -253.457 -0.482625 -0.469499 -0.657031 -0.33905 
1696 1 438.972 -401.86 -328.512 -0.887188 -0.455634 0.072456 0.00672134 
1691 2 441.847 -466.256 -339.173 -0.173651 -0.299123 -0.785564 -0.513089 
1692 2 447.826 -459.908 -343.736 0.376133 -0.793724 -0.270717 -0.394002 
1753 2 458.718 -496.38 -320.141 -0.680252 0.203908 -0.358973 -0.605654 
1756 2 463.371 -474.2 -301.147 0.854455 -0.287851 0.35808 0.242543 
1757 2 467.949 -467.569 -295.394 0.417896 0.0574899 0.364375 0.830234 
1755 2 461.169 -481.884 -307 0.74405 -0.431117 -0.135762 -0.492032 
1754 2 460.871 -489.194 -313.577 0.107615 -0.0486576 -0.392015 -0.912346 
1742 2 517.209 -502.854 -256.015 -0.0575281 -0.828272 0.00383632 -0.557352 
1743 2 526.128 -504.326 -259.9 0.247491 -0.519058 0.755109 -0.31486 
1751 3 501.961 -496.117 -298.107 -0.824067 0.224897 -0.0713166 -0.515023 
1758 2 471.685 -461.772 -288.313 -0.460364 0.34981 0.209439 0.788564 
1759 2 475.438 -455.43 -281.691 -0.934183 0.353178 -0.0134549 0.0488467 
1750 1 505.47 -510.416 -329.841 -0.849773 0.196772 -0.089715 -0.480746 
1760 2 476.514 -448.608 -274.54 -0.715355 0.102644 -0.279729 -0.632047 
1761 2 479.56 -443.901 -266.367 0.0467778 -0.0560045 -0.19614 -0.977857 
1762 2 480.752 -439.714 -257.474 0.826033 -0.211102 -0.0622688 -0.518871 
1763 2 481.273 -435.143 -248.717 0.912112 -0.184531 0.133911 0.340688 
1764 2 482.52 -430.695 -239.899 0.351628 -0.0535622 0.180961 0.91692 
1765 2 482.085 -426.714 -230.789 -0.447794 0.0878817 0.236153 0.857898 
1766 2 480.972 -421.932 -222.178 -0.931787 0.242276 0.20862 0.171908 
1710 2 429.05 -488.738 -236.436 -0.729688 -0.107589 -0.504412 0.448943 
1711 2 435.533 -494.347 -231.451 -0.824903 -0.364732 -0.288932 -0.320972 
1712 2 442.31 -498.811 -225.742 -0.260269 -0.428263 0.068706 -0.86263 
1713 2 449.116 -502.992 -219.873 0.42364 -0.161107 0.458585 -0.764378 
1747 2 545.975 -509.648 -293.214 -0.0395873 0.201659 -0.974178 0.0935116 
1749 2 549.311 -511.692 -312.555 -0.0252786 -0.992804 -0.0610978 -0.0998405 
1748 2 547.379 -511.397 -302.807 -0.0996351 -0.534057 -0.838753 -0.0367478 
1714 2 455.571 -508.347 -214.575 0.8706 0.203243 0.440244 -0.0832644 
1767 2 478.32 -417.483 -213.711 -0.784048 0.293713 0.0542044 -0.544117 
198 2 -28.8443 -289.182 -222.163 -0.846341 -0.152804 0.0102026 0.51015 
197 2 -25.9972 -288.165 -231.581 -0.0533054 -0.182864 -0.0435482 0.980726 
196 2 -23.5545 -284.859 -240.53 0.676031 0.0387048 -0.192373 0.710266 
195 2 -21.4673 -280.302 -249.051 0.952172 0.247511 -0.0924881 -0.153471 
194 2 -16.0786 -274.749 -255.105 0.310999 0.41521 0.174745 -0.836866 
193 2 -8.42832 -270.008 -259.136 -0.452496 0.252833 0.499912 -0.693838 
192 2 -0.237001 -265.066 -261.65 -0.762812 -0.238162 0.591226 -0.108853 
191 2 7.45071 -259.123 -263.355 -0.552679 -0.632601 0.0795663 0.536684 
190 2 14.0303 -251.613 -263.646 -0.0505742 -0.499985 -0.469644 0.725873 
189 2 20.1511 -243.878 -264.101 0.560876 0.16802 -0.653445 0.479789 
156 2 18.7329 -322.741 -268.528 -0.317992 -0.887729 0.145998 -0.29917 
155 2 14.4132 -316.158 -262.467 -0.448625 -0.714224 -0.535879 0.0381284 
154 2 11.3677 -309.121 -256.102 -0.249075 -0.0720848 -0.887019 0.38205 
153 2 7.18261 -303.215 -249.336 0.0639746 0.662498 -0.629361 0.401133 
157 1 62.1545 -326.131 -250.502 0.490031 0.148326 -0.347526 -0.785554 
158 3 44.1835 -309.939 -225.289 0.493465 0.0830044 -0.332174 -0.799539 
128 2 68.2997 -247.303 -283.032 -0.315575 -0.457016 -0.831579 0.00498001 
129 2 73.6308 -250.187 -290.846 -0.205769 -0.943493 -0.0903801 -0.243538 
148 2 19.4723 -275.465 -214.278 -0.16001 -0.874805 -0.237078 0.391032 
149 2 13.0363 -279.548 -220.599 -0.364388 -0.75771 0.525878 0.128641 
152 2 4.59905 -295.913 -243.127 0.383382 0.908229 0.128528 0.10779 
150 2 7.76434 -284.253 -227.571 -0.174386 -0.169583 0.92978 -0.276296 
151 2 5.10861 -289.553 -235.547 0.182228 0.530406 0.783237 -0.268332 
188 2 24.6944 -235.241 -262.55 0.61291 0.742003 -0.218426 -0.161441 
127 2 61.6032 -243.655 -276.493 -0.231486 0.41814 -0.804587 0.352439 
126 2 56.487 -241.989 -268.152 0.0294792 0.914418 -0.258275 0.310266 
125 2 53.1329 -240.641 -259.002 0.117589 0.807637 0.568478 0.103574 
187 2 27.5379 -226.269 -259.514 0.315688 0.633634 0.492792 -0.50597 
185 3 -15.8891 -230.184 -237.802 -0.252255 -0.337732 -0.572027 0.703626 
122 2 55.3898 -232.555 -231.255 -0.116253 -0.974518 -0.0871598 0.170888 
124 2 52.2673 -239.62 -249.18 0.0235706 -0.000162256 0.997817 -0.0616865 
123 2 52.6573 -235.215 -240.332 -0.209978 -0.745131 0.619428 -0.130373 
121 2 59.1826 -229.245 -222.746 0.0782708 -0.511151 -0.804388 0.292505 
199 2 -30.3677 -292.004 -212.834 -0.912719 -0.163672 0.00726793 -0.374303 
180 2 -50.9459 -220.221 -209.883 0.322726 -0.499213 -0.746179 -0.299753 
159 2 94.5705 -319.435 -216.872 0.952949 -0.158656 -0.250913 0.0613104 
120 2 64.172 -226.093 -214.803 0.315106 0.269647 -0.90655 0.0785162 
186 2 30.7935 -217.305 -256.654 -0.25692 -0.0909606 0.782683 -0.559576 
147 2 26.7868 -270.639 -209.742 0.250708 -0.445193 -0.712341 0.481164 
181 2 -52.4446 -212.564 -215.932 0.479647 -0.874267 -0.00904832 0.0742594 
131 3 95.6794 -239.376 -245.168 -0.615042 -0.190071 0.285585 0.709955 
130 1 116.831 -245.678 -272.365 -0.601767 -0.241759 0.316961 0.692073 
132 2 146.942 -237.114 -237.05 0.936827 -0.117546 -0.288735 0.158652 
133 2 141.077 -235.259 -229.239 0.511449 -0.321987 -0.0852114 0.792138 
134 2 135.302 -233.417 -221.387 -0.296705 -0.301581 0.131787 0.896464 
135 2 129.117 -232.566 -213.761 -0.844815 -0.332477 0.326776 0.262609 
1860 2 537.164 -229.748 -249.547 -0.848992 -0.267738 0.0427018 -0.453547 
1861 2 539.001 -234.645 -241.053 -0.134662 -0.194896 0.16373 -0.95764 
1862 2 541.649 -237.819 -232.062 0.649119 -0.0566999 0.202444 -0.731058 