ITEM: TIMESTEP
10000000
ITEM: NUMBER OF ATOMS
4067
ITEM: BOX BOUNDS pp pp pp
-4.6310929470000001e+03 4.6704658980000004e+03
-4.6310929470000001e+03 4.6704658980000004e+03
-4.6310929470000001e+03 4.6704658980000004e+03
ITEM: ATOMS id type x y z c_q[1] c_q[2] c_q[3] c_q[4] 
2643 2 -69.2766 218.686 -367.201 0.568123 -0.279138 0.0115499 0.774071 
3046 1 -434.847 830.386 -377.784 -0.997227 -0.000217622 -0.0698282 -0.0257456 
3045 2 -415.959 787.921 -369.73 -0.134589 -0.66858 -0.729782 -0.0480006 
3048 2 -449.12 873.427 -364.715 0.583454 0.158292 0.238144 0.76014 
3145 2 -304.551 1116.11 -401.295 0.112808 -0.850564 -0.470884 -0.205141 
3144 2 -307.228 1111.51 -392.995 -0.101979 -0.184903 -0.949125 -0.233608 
3146 2 -301.814 1119.89 -410.07 0.107847 -0.889348 0.423218 -0.135333 
3147 2 -298.606 1120.95 -419.395 0.202445 -0.22671 0.952466 0.0206723 
3148 2 -295.026 1121.96 -428.613 0.196625 0.535076 0.752963 0.328754 
3149 2 -289.074 1124.45 -436.248 -0.0134809 0.869566 0.100022 0.483393 
3150 2 -280.995 1126.33 -441.699 -0.365725 0.593286 -0.678231 0.232936 
3155 3 -260.463 1141.39 -406.297 0.798437 0.40344 -0.226907 -0.385029 
3151 2 -273.718 1127.86 -448.165 -0.450185 -0.168102 -0.838271 -0.257636 
3143 2 -308.939 1108.06 -383.883 -0.158894 0.55773 -0.807027 -0.111344 
3152 2 -265.282 1130.46 -452.792 -0.0770002 -0.758567 -0.371588 -0.529688 
3153 2 -257.121 1133.43 -457.477 0.359598 -0.795715 0.32696 -0.36142 
3142 2 -310.569 1101.86 -376.324 -0.32373 0.940257 0.00230358 0.105408 
3154 1 -237.38 1160.61 -424.331 0.747538 0.460316 -0.216391 -0.427167 
3141 2 -313.449 1095.63 -369.257 -0.0849752 0.627672 0.687308 0.355549 
3140 2 -316.568 1088.58 -363.075 0.25274 -0.103109 0.902347 0.333558 
3160 2 -263.135 1157.76 -364.597 -0.757143 -0.00695743 0.600373 -0.257368 
3161 2 -272.098 1154.39 -361.873 -0.269909 0.439199 0.349175 -0.782515 
3159 2 -254.897 1162.27 -367.74 -0.697436 -0.500813 0.302098 0.414133 
3158 2 -247.928 1167.45 -372.413 -0.0911268 -0.434291 -0.255303 0.859016 
3157 2 -239.57 1171.58 -375.706 0.630646 -0.120945 -0.561856 0.521513 
3156 2 -231.641 1175.73 -380.05 0.813776 0.384373 -0.364536 -0.239038 
3261 2 -271.467 1347.08 -424.373 0.0827918 -0.812218 -0.574895 -0.0542426 
3262 1 -303.788 1380.72 -417.659 -0.963673 -0.0255322 -0.1851 -0.19084 
3260 2 -271.541 1345.69 -414.546 0.00727745 -0.0859178 -0.994423 -0.0607221 
3259 2 -270.053 1342.75 -405.199 -0.0575815 0.717778 -0.677698 -0.149013 
3258 2 -268.31 1341.36 -395.576 -0.0741349 0.985426 0.127429 -0.0848565 
3257 2 -266.173 1341.06 -386.002 -0.138261 0.551938 0.81828 -0.0816437 
3263 3 -289.105 1377.43 -386.005 -0.941116 -0.0923906 -0.172416 -0.275749 
3264 2 -327.36 1412.08 -391.533 0.749549 0.220613 0.255447 0.569433 
3265 2 -321.358 1411.1 -383.747 0.228225 0.229487 0.0201505 0.945961 
3256 2 -264.834 1341.19 -376.098 -0.068943 -0.211902 0.974128 0.0376694 
3255 2 -264.163 1341.55 -366.232 -0.0501142 -0.919481 0.386193 0.0538338 
3266 2 -316.968 1410.56 -374.886 -0.59024 0.236557 -0.0911408 0.766388 
3341 2 -213.115 1458.05 -374.282 -0.181305 -0.59889 0.609754 -0.486476 
3340 2 -215.999 1467.07 -371.369 -0.545642 -0.805749 0.0533942 -0.224035 
3267 2 -311.956 1411.74 -366.447 -0.930502 -0.0561995 -0.361932 0.00361029 
3342 2 -209.215 1450.35 -379.241 0.262907 0.081403 0.855775 -0.438067 
3343 1 -162.972 1452.97 -370.338 0.560366 -0.0599394 -0.461492 -0.685144 
3339 2 -218.011 1475.15 -366.227 -0.432816 -0.607182 -0.619744 0.244781 
2109 2 -75.1842 -531.212 -223.239 -0.96076 -0.273145 0.0380667 -0.0297253 
2108 2 -75.0971 -524.177 -230.19 -0.611355 -0.257547 -0.298359 0.686218 
2107 2 -75.2261 -519.62 -239.1 0.121581 0.0421845 -0.238707 0.962527 
2110 2 -75.5962 -536.785 -215.063 -0.539427 -0.0759936 0.18568 -0.817781 
2106 2 -71.8223 -516.069 -247.694 0.889475 0.08829 -0.248783 0.373022 
2102 3 -31.7461 -527.652 -240.078 0.811747 0.108513 -0.338955 0.463034 
2097 2 6.82689 -546.719 -227.883 0.330386 -0.727528 -0.384445 -0.462331 
2098 2 10.5009 -538.744 -232.402 0.532058 -0.777106 0.320131 -0.102647 
2099 2 15.0741 -531.212 -236.694 0.363625 -0.247209 0.871098 0.218751 
2100 2 20.0599 -525.079 -242.682 0.0101269 0.587096 0.68168 0.436494 
2096 2 0.339979 -551.912 -222.618 -0.291381 -0.24502 -0.829725 -0.408188 
2095 2 -7.598 -554.147 -217.153 -0.472181 0.421433 -0.761361 0.140603 
2094 2 -16.476 -557.777 -214.421 -0.292125 0.796368 -0.126799 0.514181 
2093 2 -24.9763 -561.845 -211.472 0.204853 0.556541 0.589281 0.548676 
2105 2 -69.9272 -512.778 -256.879 0.889034 0.22428 -0.0317707 -0.39788 
2104 2 -68.0129 -509.301 -265.902 0.34307 0.162921 0.167531 -0.909776 
2103 2 -63.9726 -503.774 -272.992 -0.546503 -0.000130867 0.363292 -0.754555 
2101 1 -17.5908 -509.774 -266.619 0.792967 0.0692487 -0.361807 0.485287 
2173 2 -1.7634 -427.373 -218.624 -0.515115 0.362315 -0.769779 0.10404 
2174 2 6.82855 -425.388 -223.151 -0.365522 -0.426111 -0.77224 -0.297435 
2177 2 33.2412 -423.427 -236.212 0.484556 0.0971802 0.869343 0.00206517 
2178 2 41.7092 -424.862 -241.233 0.27079 0.644861 0.509167 0.501573 
2179 2 50.9691 -423.634 -244.422 -0.270132 0.768489 -0.127108 0.565948 
2176 2 24.0041 -423.104 -232.741 0.336918 -0.635098 0.522358 -0.458561 
2175 2 15.0838 -423.656 -228.423 -0.0575423 -0.834467 -0.146031 -0.528231 
2182 1 62.7487 -384.866 -279.497 0.819867 -0.113289 -0.535823 0.166964 
2180 2 60.2403 -420.723 -246.323 -0.638727 0.285555 -0.699792 0.144146 
2181 2 69.8441 -419.198 -247.937 -0.503653 -0.397873 -0.657484 -0.394647 
2183 3 32.0029 -386.962 -262.857 0.812024 -0.0732799 -0.541914 0.203901 
2172 2 -10.5178 -428.867 -214.298 -0.254603 0.819468 -0.289562 0.424032 
2171 2 -19.0989 -430.378 -209.586 0.200244 0.701117 0.469367 0.498028 
2184 2 35.9497 -353.405 -302.314 0.572574 -0.29785 -0.243427 0.724008 
2185 2 28.5417 -353.164 -295.654 -0.170818 -0.310518 0.191658 0.915242 
2186 2 21.6823 -351.109 -288.76 -0.793495 -0.11247 0.222821 0.555038 
2187 2 16.605 -350.987 -280.191 -0.910498 0.190506 0.230266 -0.285796 
2188 2 11.3758 -349.212 -271.921 -0.294719 0.235663 -0.113701 -0.919062 
2189 2 8.01323 -346.254 -263.059 0.555462 -0.0618333 -0.355939 -0.748964 
2192 2 0.312569 -328.54 -240.517 -0.0816438 -0.0620384 0.405071 0.908517 
2193 2 -1.44993 -321.567 -233.718 -0.681785 0.422443 0.379113 0.461502 
2194 2 -2.88436 -312.56 -229.941 -0.670419 0.668891 -0.12547 -0.295603 
2195 2 -4.86054 -302.948 -229.016 -0.201931 0.340967 -0.643715 -0.654672 
2196 2 -6.4312 -293.204 -229.46 0.422475 -0.257093 -0.584877 -0.642912 
2197 2 -7.822 -283.594 -227.953 0.738856 -0.666509 -0.085972 -0.0496696 
2198 2 -8.2787 -273.69 -227.202 0.50285 -0.459488 0.477587 0.554909 
2199 2 -8.73029 -263.916 -225.925 -0.0842853 0.11844 0.670131 0.727868 
2200 2 -8.08656 -254.158 -224.78 -0.580653 0.597988 0.38824 0.393093 
2191 2 2.78227 -334.469 -248.065 0.665104 -0.314352 0.128767 0.66501 
2190 2 4.84754 -340.655 -255.456 0.935231 -0.320112 -0.124208 -0.086278 
2201 2 -8.86638 -244.378 -225.648 -0.40253 0.880934 -0.187854 -0.163206 
2202 2 -10.0248 -236.369 -231.391 -0.100398 0.42444 -0.769706 -0.46618 
2203 2 -12.732 -228.314 -236.527 0.434714 -0.220267 -0.782128 -0.388307 
2204 2 -17.6692 -220.308 -239.599 0.621589 -0.697619 -0.296987 0.196859 
2205 2 -23.74 -212.616 -240.764 0.212473 -0.668577 0.374374 0.606386 
2345 3 -120.871 -96.8592 -254.882 0.979573 0.0648395 -0.161817 -0.100235 
2338 2 -139.964 -134.408 -240.726 -0.172994 0.152225 -0.946007 0.227974 
2344 1 -110.712 -96.0248 -288.289 0.981054 0.0335312 -0.153144 -0.113824 
2339 2 -135.951 -138.096 -249.02 -0.247247 -0.613748 -0.737179 -0.136923 
2340 2 -130.953 -139.481 -257.431 -0.164497 -0.925155 -0.0907204 -0.329848 
2341 2 -124.697 -142.035 -264.701 0.220348 -0.722175 0.603992 -0.255155 
2342 2 -118.495 -142.589 -272.303 0.455502 0.0314995 0.888655 0.0426354 
2343 2 -110.299 -142.05 -277.962 0.263124 0.666694 0.585968 0.378055 
2337 2 -143.919 -129.968 -232.88 0.104998 0.84011 -0.435898 0.30526 
2336 2 -146.819 -124.543 -225.08 0.360998 0.874102 0.314974 0.0801097 
2335 2 -148.963 -119.667 -216.773 0.210996 0.375704 0.889633 -0.151264 
2209 1 -71.3489 -203.932 -212.42 -0.633459 -0.532901 -0.298712 -0.474887 
2303 2 -126.19 -70.3151 -217.5 -0.697837 -0.434718 0.0454154 -0.567434 
2302 2 -128.152 -62.9913 -223.915 -0.875458 -0.356725 -0.214385 0.245682 
2301 2 -129.737 -57.3859 -231.936 -0.314647 -0.0368009 -0.293915 0.901807 
2304 2 -122.124 -76.9879 -211.298 0.0242713 -0.279379 0.341237 -0.897171 
2354 2 -81.5867 -57.519 -211.565 0.302062 -0.49264 0.0558832 -0.814212 
2353 2 -89.2932 -58.2905 -217.839 -0.561475 -0.322872 -0.294205 -0.702811 
2350 2 -108.501 -57.9237 -240.126 0.221391 0.334909 -0.036626 0.91514 
2352 2 -95.9684 -57.8949 -225.102 -0.940127 0.0170853 -0.330506 0.0814588 
2351 2 -102.687 -59.3187 -232.205 -0.572308 0.351061 -0.180944 0.718664 
2206 2 -30.4299 -205.404 -242.185 -0.275147 -0.101018 0.769599 0.56728 
2208 2 -41.9752 -189.85 -246.584 -0.428147 0.773145 -0.095541 -0.458049 
2278 2 -40.6444 -85.328 -265.15 0.77476 -0.450315 -0.392911 -0.206359 
2277 2 -35.0563 -92.3673 -269.341 0.234409 0.17909 -0.505892 -0.810588 
2276 2 -30.161 -99.4472 -274.191 -0.421315 0.429758 -0.205926 -0.771619 
2207 2 -36.1353 -197.516 -244.17 -0.606079 0.569365 0.549306 0.0821868 
2264 3 29.7962 -124.525 -277.252 0.479093 -0.448508 -0.30317 0.690941 
2265 2 40.6024 -154.354 -318.297 0.74604 -0.324478 -0.463825 0.35072 
2266 2 31.3259 -153.858 -314.953 0.076521 -0.57328 0.10955 0.80839 
2267 2 22.3522 -150.968 -311.909 -0.52157 -0.308597 0.556337 0.568526 
2268 2 12.9405 -148.529 -309.616 -0.7748 0.284966 0.551106 -0.121495 
2269 2 3.77111 -145.786 -307.177 -0.472458 0.407954 0.154931 -0.765737 
2270 2 -3.83969 -144.081 -301.09 0.264144 0.214688 -0.321387 -0.883656 
2271 2 -9.09391 -139.047 -294.383 0.851009 -0.275537 -0.356574 -0.269664 
2272 2 -13.2155 -131.921 -288.856 0.648284 -0.593966 0.152429 0.45133 
2273 2 -16.9687 -123.348 -285.669 0.0726752 -0.302473 0.475515 0.822869 
2263 1 61.9254 -122.449 -290.86 0.458608 -0.413762 -0.303016 0.725714 
2274 2 -21.3948 -115.151 -282.197 -0.58703 0.204535 0.541192 0.56628 
2256 2 38.4986 -133.373 -223.114 0.487817 -0.815145 0.264575 0.166053 
2275 2 -25.7947 -107.118 -278.644 -0.84205 0.490693 0.181428 -0.131363 
2257 2 38.7384 -124.648 -227.772 0.253067 -0.149036 0.846155 0.444709 
2258 2 41.505 -116.243 -232.299 -0.172195 0.624288 0.620503 0.442255 
2259 2 44.807 -108.696 -237.737 -0.405459 0.864587 -0.0519664 0.292217 
2260 2 50.4583 -102.193 -242.65 -0.478844 0.531345 -0.698808 0.00698297 
2279 2 -44.8392 -76.7954 -262.16 0.683734 -0.540448 0.117927 0.475937 
2261 2 57.0987 -97.0395 -247.988 -0.304301 -0.16537 -0.892601 -0.288647 
2262 2 63.7427 -92.8985 -254.103 0.0209384 -0.786428 -0.437631 -0.435399 
2280 2 -48.281 -68.2153 -258.542 0.0965259 -0.275649 0.656069 0.695899 
2255 2 40.3302 -142.271 -219.189 0.482223 -0.624041 -0.562726 -0.247734 
2254 2 42.3678 -151.054 -214.97 0.0666061 0.0598506 -0.839108 -0.536545 
2281 2 -50.409 -58.5151 -258.746 -0.556448 0.336249 0.569519 0.502942 
2300 2 -131.106 -55.836 -241.585 0.616879 0.138766 -0.00373441 0.77472 
2349 2 -111.226 -56.0069 -249.446 0.947622 0.10065 0.108015 0.283221 
2348 2 -113.944 -54.132 -258.831 0.782159 -0.0254598 0.164075 -0.600549 
2347 2 -116.374 -52.2293 -268.262 0.0249169 -0.0829915 0.120178 -0.988964 
2299 2 -131.412 -51.4434 -250.408 0.973444 0.223843 -0.0035785 0.0478287 
2346 2 -117.167 -50.4467 -277.887 -0.751831 -0.0971367 0.0260342 -0.651642 
2298 2 -131.377 -45.1638 -258.047 0.650771 0.212869 0.258302 -0.681515 
2297 2 -130.929 -38.1708 -264.991 -0.191791 -0.0407026 0.367919 -0.908953 
2296 2 -130.77 -32.7457 -273.274 -0.848079 -0.228368 0.131012 -0.459833 
2295 2 -131.098 -27.2333 -281.54 -0.918609 -0.288908 -0.0606977 0.262689 
2294 2 -130.29 -20.1367 -288.269 -0.184123 -0.16126 -0.367974 0.897045 
2293 2 -129.463 -11.4973 -293.184 0.551041 0.326494 -0.393056 0.659745 
2292 2 -129.286 -3.87706 -299.502 0.899693 0.432614 -0.0279065 0.0511748 
2290 1 -94.319 17.1056 -275.771 0.430603 0.375616 -0.46792 0.674199 
2291 3 -91.0057 -16.5853 -266.872 0.428286 0.387634 -0.457812 0.67581 
2560 1 -169.499 41.9735 -229.032 -0.745071 0.382518 -0.544939 0.0398809 
2561 3 -138.598 57.0807 -222.462 -0.762279 0.346627 -0.545743 0.0307466 
2559 2 -142.142 5.52856 -216.928 0.0627602 0.761586 0.434286 -0.47691 
2562 2 -177.93 87.6938 -236.941 -0.651979 0.0297791 -0.732303 -0.194342 
2563 2 -168.75 91.0363 -238.393 -0.155417 -0.610188 -0.389138 -0.672375 
2564 2 -159.411 94.1968 -239.089 0.499582 -0.647874 0.242017 -0.521637 
2558 2 -135.475 10.4379 -211.637 -0.340088 0.0940867 0.874938 -0.33162 
2289 2 -58.4631 17.5018 -245.085 -0.711283 0.688702 0.132778 -0.0462277 
2288 2 -55.8747 7.9027 -245.337 -0.413618 0.242634 0.650664 0.588799 
2282 2 -52.6882 -48.9989 -257.311 -0.805005 0.590583 0.0259082 0.0500762 
2283 2 -53.0641 -39.6073 -254.148 -0.617258 0.393164 -0.432965 -0.526266 
2287 2 -53.0892 -1.62083 -245.076 0.145186 -0.363523 0.632046 0.668798 
2284 2 -52.1755 -30.1818 -251.245 0.0697682 -0.109214 -0.590023 -0.796917 
2286 2 -52.1574 -11.4095 -245.669 0.670172 -0.664738 0.225567 0.241064 
2285 2 -51.2728 -21.0177 -247.603 0.695642 -0.516768 -0.350106 -0.355609 
2373 2 -12.7602 38.3581 -224.867 -0.268504 0.339541 0.269748 -0.860147 
2374 2 -20.3347 35.4266 -219.24 0.543211 0.479989 -0.0477203 -0.687208 
2375 2 -27.7206 31.6251 -213.802 0.881305 0.267425 -0.386421 0.0496381 
2376 2 -34.8298 26.5574 -209.165 0.573682 -0.0718969 -0.431718 0.692343 
2565 2 -150.172 97.8248 -238.87 0.705231 -0.117061 0.690844 -0.108074 
2568 2 -120.794 98.0791 -235.012 -0.560084 0.41422 -0.530699 0.48279 
2566 2 -140.368 98.3201 -238.077 0.532267 0.456425 0.436043 0.564123 
2567 2 -130.599 98.2475 -236.555 -0.0073234 0.645607 -0.0627714 0.76105 
2569 2 -110.906 97.9068 -234.348 -0.766381 -0.129123 -0.576719 -0.251759 
2570 2 -101.467 98.2993 -231.409 -0.230879 -0.462517 -0.328368 -0.790536 
2571 2 -92.5646 101.016 -227.92 0.585297 -0.487557 0.154409 -0.629185 
2644 2 -73.1759 222.081 -358.824 -0.15667 -0.157704 0.223956 0.948909 
2616 2 -94.9749 107.273 -262.003 -0.00991392 0.505553 0.252296 0.825024 
2617 2 -86.9151 111.776 -258.381 -0.698639 0.457526 -0.252937 0.488463 
2618 2 -79.1929 115.963 -253.799 -0.778579 0.0253555 -0.49285 -0.387648 
2614 1 -131.258 134.28 -248.61 0.243382 -0.426101 -0.062809 -0.869056 
2572 2 -84.7567 104.914 -223.04 0.899626 -0.262732 0.338402 0.084437 
2615 3 -105.311 144.928 -227.741 0.241122 -0.418692 -0.062796 -0.873277 
2619 2 -72.3735 120.758 -248.49 -0.160984 -0.380359 -0.470033 -0.780051 
2620 2 -65.2567 127.114 -245.805 0.564609 -0.625225 -0.134031 -0.521868 
2573 2 -79.1097 109.9 -216.615 0.465125 0.177918 0.296865 0.814786 
2621 2 -60.6021 135.604 -244.271 0.770646 -0.532829 0.337851 0.0897482 
2647 2 -84.3553 234.562 -334.445 -0.263409 0.210195 -0.20759 -0.918335 
2646 2 -80.5692 229.286 -341.876 -0.88988 0.314045 0.0916618 -0.317942 
2645 2 -76.5322 225.724 -350.257 -0.851417 0.0449046 0.278698 0.442042 
2613 2 -150.89 169.628 -224.326 0.529781 -0.0695062 -0.753236 0.383584 
2648 2 -87.3967 239.037 -326.167 0.587436 -0.083192 -0.272127 -0.757592 
2612 2 -142.231 174.295 -222.747 0.599761 0.600161 -0.464728 -0.253221 
2649 2 -89.5019 244.627 -318.351 0.949313 -0.283961 -0.129625 -0.0370037 
2611 2 -134.097 179.77 -221.088 0.188284 0.724643 0.240104 -0.617893 
2610 2 -126.338 185.69 -219.494 -0.352816 0.303091 0.703779 -0.536984 
2532 2 -167.524 179.559 -213.918 -0.614887 0.779348 0.118775 0.0205516 
2609 2 -117.52 187.686 -215.552 -0.543422 -0.298271 0.7784 0.099094 
2608 2 -107.962 187.792 -212.951 -0.160063 -0.77475 0.178565 0.585028 
2531 2 -166.802 169.985 -211.522 -0.315988 0.325851 0.708318 0.540609 
2622 2 -56.4786 144.444 -242.408 0.307721 -0.221217 0.685745 0.621389 
2641 1 -26.6515 237.926 -360.717 -0.655103 0.20414 0.139134 -0.714009 
2623 2 -54.9393 154.187 -243.079 -0.287064 0.532392 0.559327 0.56684 
2624 2 -52.2971 163.64 -244.647 -0.629945 0.769644 0.0528171 0.0895934 
2625 2 -51.6936 173.449 -246.023 -0.484709 0.516329 -0.582419 -0.399061 
2626 2 -50.4194 183.018 -248.303 0.0835956 -0.0848674 -0.783024 -0.610478 
2627 2 -50.4698 192.408 -251.334 0.385517 -0.77306 -0.405274 -0.299178 
2628 2 -49.4285 200.932 -256.324 0.538665 -0.756178 0.371423 0.00896627 
2629 2 -46.2537 209.354 -260.441 0.396646 -0.257298 0.747831 0.466067 
2630 2 -42.6958 218.038 -263.389 0.00603035 0.477567 0.673977 0.563603 
2631 2 -37.3344 225.426 -267.025 -0.359492 0.877536 -0.107618 0.29852 
2632 2 -31.4817 231.169 -272.727 -0.401911 0.436514 -0.792578 -0.140511 
2642 3 -41.2462 240.115 -328.988 -0.628419 0.201016 0.112666 -0.742959 
2633 2 -25.9297 236.581 -278.8 -0.27366 -0.323417 -0.840146 -0.338624 
2634 2 -18.7585 240.059 -284.727 -0.0181615 -0.885996 -0.269542 -0.376866 
2635 2 -12.1797 241.925 -291.935 0.287337 -0.82095 0.461699 -0.174106 
2636 2 -6.70025 244.973 -299.617 0.222414 -0.0976512 0.966514 0.0827457 
2637 2 -3.0326 247.668 -308.331 0.0551815 0.658695 0.689526 0.296025 
2697 2 -232.336 306.733 -270.139 0.0654436 -0.352456 -0.202161 -0.911385 
2698 2 -226.524 310.837 -263.269 0.812406 -0.334638 0.098075 -0.467327 
2699 2 -221.847 315.203 -255.781 0.845464 -0.092078 0.34559 0.396586 
2695 1 -215.443 330.719 -307.082 -0.544268 -0.250908 -0.305612 -0.739877 
2700 2 -216.248 318.886 -248.559 0.172288 0.208316 0.472447 0.838877 
2701 2 -210.829 325.758 -244.034 -0.504425 0.588615 0.0249787 0.63124 
2650 2 -91.9202 249.904 -310.29 0.567402 -0.219884 0.201453 0.767543 
2651 2 -93.0042 255.39 -302.149 -0.288173 -0.175245 0.259419 0.904957 
2652 2 -97.4384 259.434 -294.328 -0.878285 0.183475 0.252352 0.362313 
2653 2 -100.524 264.134 -286.192 -0.828656 0.280978 0.0379171 -0.482642 
2654 2 -104.115 268.393 -278.1 -0.198788 0.209033 -0.135363 -0.947874 
2702 2 -203.556 331.727 -240.627 -0.841726 0.427281 -0.329131 0.0245357 
2703 2 -198.328 339.072 -236.671 -0.449106 0.103674 -0.552657 -0.694353 
2704 2 -195.431 347.696 -232.769 0.374843 -0.381499 -0.47823 -0.696597 
2705 2 -193.769 357.122 -230.398 0.762202 -0.632442 0.00356737 -0.13803 
2706 2 -191.529 366.333 -227.376 0.58571 -0.46419 0.470755 0.468893 
2655 2 -107.623 271.05 -269.252 0.666073 0.05023 -0.207439 -0.714698 
2656 2 -111.527 273.746 -260.498 0.987593 0.00118331 -0.143604 0.0635292 
2657 2 -115.19 273.37 -251.251 0.492418 -0.335682 -0.138394 0.791005 
2658 2 -121.035 274.652 -243.398 -0.406402 -0.324218 0.114671 0.846505 
2659 2 -127.907 274.186 -236.302 -0.896272 -0.174053 0.371511 0.168468 
2660 2 -135.193 272.885 -229.758 -0.702043 0.192853 0.365732 -0.579813 
2661 2 -142.79 270.684 -223.674 -0.0367302 0.542373 0.130819 -0.829077 
2694 2 -184.621 359.553 -328.153 -0.431637 0.0968949 0.893497 0.0772278 
2693 2 -177.178 357.406 -322.042 -0.130697 -0.713294 0.552939 0.410352 
2662 2 -151.822 268.75 -220.235 0.538317 0.488877 -0.33452 -0.599425 
2692 2 -168.815 353.773 -318.017 0.257649 -0.85115 -0.100014 0.446271 
2691 2 -161.811 348.565 -313.332 0.522004 -0.491235 -0.697084 0.01654 
2696 3 -191.366 336.294 -282.284 -0.540763 -0.238189 -0.29298 -0.751667 
2690 2 -155.465 343.441 -307.819 0.26637 0.244492 -0.84476 -0.394527 
2689 2 -150.235 337.66 -301.871 -0.152019 0.835141 -0.339546 -0.40514 
2688 2 -145.074 334.093 -294.23 -0.30284 0.805398 0.480381 -0.169868 
2681 2 -116.965 312.767 -235.65 -0.181963 0.964611 0.15109 -0.116563 
2682 2 -119.574 315.263 -244.862 0.0305083 0.778199 -0.584443 -0.227822 
2683 2 -123.982 317.32 -253.533 0.0932513 0.128574 -0.965142 -0.208026 
2684 2 -126.477 320.391 -262.523 0.210941 -0.631863 -0.745073 -0.0334644 
2685 2 -129.687 323.499 -271.393 0.177082 -0.954459 -0.021356 0.239153 
2686 2 -134.029 326.846 -279.7 -0.0198441 -0.675651 0.670884 0.304988 
2687 2 -139.206 330.246 -287.327 -0.358167 0.113864 0.904756 0.200421 
2680 2 -114.322 310.372 -226.508 -0.180651 0.464396 0.866353 0.033684 
2707 2 -190.385 376.032 -226.419 -0.00789717 0.140623 0.643098 0.75272 
2708 2 -189.181 385.792 -225.198 -0.633738 0.551413 0.241659 0.485716 
2709 2 -187.143 395.274 -223.043 -0.811044 0.501343 -0.223451 -0.202317 
2679 2 -112.799 310.406 -216.662 -0.0838225 -0.453297 0.887132 0.0221766 
2663 2 -161.161 267.357 -217.385 0.83746 -0.0472596 -0.542888 0.0412209 
2664 2 -170.103 267.582 -213.115 0.620516 -0.388279 -0.180963 0.65685 
2638 2 0.980274 251.05 -316.732 -0.10194 0.973907 -0.146495 0.140192 
2639 2 4.0494 252.761 -325.953 -0.273796 0.476215 -0.83154 -0.0824437 
2640 2 7.61654 256.713 -334.396 -0.112376 -0.364749 -0.8884 -0.255097 
2803 1 -513.87 530.891 -247.241 0.1612 0.633086 0.040425 0.75603 
2805 2 -504.485 485.186 -253.901 0.589038 0.392998 0.306859 0.635943 
2806 2 -496.426 485.054 -248.309 -0.257713 0.472283 -0.0904778 0.838061 
2790 2 -407.853 517.101 -252.375 -0.438223 -0.127405 0.70654 0.540859 
2791 2 -415.267 523.742 -252.745 -0.711196 0.512682 0.480978 0.00420315 
2789 2 -399.511 512.383 -255.045 0.186086 -0.563931 0.228904 0.771335 
2788 2 -393.278 505.379 -258.101 0.785088 -0.53097 -0.212324 0.237963 
2787 2 -386.788 498.076 -259.588 0.644482 -0.182911 -0.615851 -0.414626 
2786 2 -381.517 490.224 -262.179 0.0473619 0.303697 -0.520991 -0.7963 
2785 2 -376.901 481.475 -262.337 -0.515817 0.657075 -0.200451 -0.511864 
2804 3 -479.366 529.175 -242.592 0.147743 0.632838 0.0811341 0.755715 
2807 2 -488.256 485.699 -242.741 -0.781957 0.213728 -0.464449 0.356581 
2784 2 -372.299 472.719 -261.21 -0.642297 0.588503 0.478217 0.111474 
2783 2 -369.18 463.262 -261.545 -0.218671 -0.00672581 0.710588 0.668732 
2808 2 -479.93 486.027 -237.39 -0.697136 -0.171301 -0.625184 -0.306273 
2809 2 -470.229 487.435 -235.591 -0.211141 -0.472093 -0.294832 -0.803506 
2810 2 -461.717 489.976 -231.15 0.440545 -0.623787 0.19504 -0.615442 
2811 2 -452.144 492.117 -229.744 0.770559 -0.189659 0.588443 -0.154933 
2812 2 -442.524 493.01 -227.557 0.584812 0.279464 0.578414 0.49531 
2813 2 -433.033 495.667 -226.125 -0.0514605 0.539009 0.159943 0.825372 
2782 2 -366.828 453.679 -261.854 0.387994 -0.510852 0.460754 0.613349 
2792 2 -422.043 530.93 -252.649 -0.525213 0.662027 -0.0284352 -0.533913 
2793 2 -428.837 538.127 -251.648 -0.00785556 0.45558 -0.477406 -0.751311 
2794 2 -435.23 545.648 -250.506 0.540242 -0.153006 -0.659397 -0.499924 
2814 2 -424.298 498.776 -222.52 -0.678256 0.51473 -0.301305 0.42923 
2781 2 -361.706 445.755 -264.696 0.769649 -0.565013 -0.181605 0.235415 
2815 2 -415.766 503.106 -219.926 -0.751194 0.198626 -0.550885 -0.304599 
2816 2 -408.776 509.205 -216.355 -0.148378 -0.359572 -0.486346 -0.782406 
2817 2 -401.795 515.643 -213.605 0.500187 -0.572151 0.0284871 -0.649342 
2818 2 -393.931 520.8 -210.603 0.782859 -0.306104 0.541692 0.00162724 
2780 2 -358.518 436.678 -267.331 0.60367 -0.279346 -0.515357 -0.54033 
2779 2 -354.467 428.747 -271.543 -0.0222155 0.25368 -0.447686 -0.857164 
2778 2 -354.011 419.417 -274.675 -0.701612 0.522819 -0.260219 -0.408274 
2776 1 -349.898 432.825 -319.729 0.216207 -0.133942 0.524161 0.812755 
2775 2 -347.379 465.021 -354.129 -0.321876 -0.846065 -0.232541 0.355662 
2774 2 -342.707 472.381 -349.357 0.0856016 -0.342672 -0.800566 0.484089 
2773 2 -338.056 478.521 -343.177 0.371752 0.345093 -0.836662 0.206657 
2777 3 -349.687 463.257 -302.376 0.206194 -0.131014 0.488943 0.837409 
2772 2 -332.758 484.105 -336.894 0.381595 0.865502 -0.227597 -0.231279 
2771 2 -329.59 489.057 -328.947 0.047413 0.733334 0.613801 -0.288481 
2770 2 -326.533 494.971 -321.585 -0.167696 -0.0752874 0.937299 -0.296109 
2769 2 -324.336 499.427 -313.04 -0.24025 -0.815522 0.524172 -0.0494701 
2768 2 -320.997 503.66 -304.759 -0.189332 -0.93048 -0.222838 0.220687 
2767 2 -315.79 507.129 -297.147 0.182887 -0.401279 -0.856079 0.269548 
2766 2 -309.178 509.951 -290.417 0.404571 0.404156 -0.819972 -0.0250225 
2765 2 -303.007 512.916 -283.349 0.214363 0.913394 -0.133646 -0.319214 
2732 2 -223.185 501.685 -228.007 0.384418 0.308862 -0.380729 -0.782222 
2733 2 -231.194 505.367 -223.519 0.80123 -0.0646333 -0.587302 -0.0945016 
2734 2 -240.282 507.289 -220.05 0.628356 -0.509503 -0.20979 0.549147 
2735 2 -248.142 511.441 -215.801 -0.0287405 -0.469319 0.166576 0.866698 
2736 2 -256.164 514.417 -210.933 -0.641515 -0.180648 0.631541 0.396208 
2764 2 -296.914 517.698 -277.063 -0.0165254 0.71178 0.563057 -0.4196 
2731 2 -217.197 499.09 -235.548 -0.40196 0.387785 0.0486078 -0.828063 
2730 2 -212.156 497.794 -243.966 -0.919864 0.125129 0.236949 -0.28644 
2763 2 -291.334 524.413 -272.365 -0.303667 0.0142264 0.856037 -0.418072 
2762 2 -286.855 531.297 -266.858 -0.448758 -0.688865 0.563745 -0.0791969 
2761 2 -283.571 539.78 -262.87 -0.414604 -0.791164 -0.264172 0.363836 
2760 2 -279.294 547.359 -258.051 0.122673 -0.216323 -0.829977 0.499293 
2710 2 -184.922 404.046 -219.017 -0.419645 0.235878 -0.592134 -0.646248 
2729 2 -206.686 496.418 -252.09 -0.788401 -0.0810204 0.292676 0.534977 
2728 2 -200.499 494.69 -259.622 -0.0821497 -0.316068 0.107394 0.939052 
2727 2 -193.796 495.329 -266.811 0.599642 -0.274641 -0.260225 0.705184 
2726 2 -185.555 495.943 -272.129 0.870595 0.0511403 -0.488666 -0.0255823 
2725 2 -176.414 498.729 -274.763 0.52368 0.527417 -0.273782 -0.610437 
2724 2 -167.339 500.114 -278.521 -0.196949 0.513108 0.205797 -0.809678 
2722 1 -144.079 502.171 -237.497 0.572854 -0.135798 -0.627519 0.509527 
2723 3 -171.861 482.348 -229.931 0.607644 -0.140053 -0.600349 0.500734 
2711 2 -182.821 413.39 -216.555 0.226812 -0.326692 -0.558662 -0.727823 
2712 2 -180.693 422.773 -214.131 0.775453 -0.544243 -0.0629696 -0.313859 
2713 2 -178.385 431.514 -210.203 0.773456 -0.349914 0.295768 0.438004 
2795 2 -441.325 553.411 -249.918 0.72173 -0.582056 -0.258109 0.271471 
2796 2 -448.402 560.231 -248.748 0.203152 -0.590035 0.208846 0.752975 
2797 2 -455.96 566.554 -247.369 -0.553361 -0.206826 0.581499 0.559351 
2798 2 -464.516 571.076 -245.049 -0.791233 0.280858 0.529449 -0.121464 
2799 2 -473.464 574.077 -242.211 -0.375971 0.540002 0.205946 -0.724314 
2800 2 -482.921 574.741 -239.228 0.334001 0.588416 -0.278249 -0.681753 
2801 2 -492.651 574.217 -237.634 0.728942 0.157342 -0.619015 -0.246389 
2802 2 -502.318 575.115 -235.652 0.640489 -0.413635 -0.468235 0.446582 
2759 2 -272.936 553.76 -254.01 0.533583 0.470548 -0.696746 0.0917576 
2758 2 -266.836 561.024 -251.514 0.536812 0.762511 -0.10748 -0.344758 
2757 2 -261.676 569.331 -249.596 0.111856 0.467936 0.598925 -0.640166 
2756 2 -256.188 576.467 -245.709 -0.372461 -0.111541 0.83447 -0.390501 
2755 2 -251.457 583.918 -241.196 -0.51216 -0.703845 0.49178 -0.021168 
2754 2 -248.254 592.282 -236.978 -0.386668 -0.799772 -0.282932 0.361667 
2753 2 -246.601 600.952 -232.53 -0.0425811 -0.219077 -0.831735 0.508339 
2863 2 -209.538 635.769 -222.644 -0.0354711 -0.259461 0.246935 0.932976 
2864 2 -214.387 640.332 -215.337 -0.783063 0.00901301 0.393593 0.481473 
2752 2 -247.31 608.765 -226.402 0.279204 0.606097 -0.663381 0.338551 
2751 2 -245.875 616.64 -220.595 0.425939 0.889259 0.0893846 -0.140731 
2750 3 -285.933 584.086 -214.375 0.239774 0.265722 0.795813 -0.488448 
2862 2 -204.963 630.837 -229.866 0.726132 -0.394798 -0.0271104 0.562256 
2861 2 -200.935 623.231 -234.603 0.829619 -0.312051 -0.37299 -0.274289 
2860 2 -195.135 616.318 -238.681 0.415586 0.0671921 -0.539369 -0.729283 
2859 2 -189.723 609.516 -243.489 -0.306981 0.443505 -0.268095 -0.798242 
3024 2 -523.807 833.193 -225.87 -0.697058 -0.23473 -0.674013 0.0686912 
3021 2 -551.025 842.974 -222.322 0.601542 0.414103 0.588395 0.34707 
3023 2 -532.511 837.829 -225.791 -0.374254 0.332935 -0.630581 0.592837 
3022 2 -541.266 841.145 -222.807 0.143118 0.799335 -0.0650417 0.579957 
3025 2 -514.817 829.199 -226.212 -0.424165 -0.747569 -0.221301 -0.460706 
3044 2 -418.602 789.132 -360.252 -0.0950927 0.210639 -0.968794 0.0895878 
3026 2 -506.095 825.006 -228.109 0.0515833 -0.704143 0.422063 -0.568669 
3027 2 -497.768 820.768 -231.481 0.396411 -0.105197 0.827326 -0.383829 
3028 2 -490.621 815.502 -235.994 0.454491 0.607559 0.626192 0.179425 
3029 2 -483.032 811.369 -240.795 0.126888 0.888527 -0.0739864 0.434678 
3030 2 -475.502 808.268 -246.364 -0.325459 0.585584 -0.688761 0.277084 
3031 2 -467.335 807.698 -251.957 -0.520725 -0.178461 -0.834242 -0.0322005 
3032 2 -458.851 806.657 -256.905 -0.2688 -0.846165 -0.312017 -0.338226 
3043 2 -418.523 789.654 -350.372 -0.00765146 0.920456 -0.390679 0.00849626 
3042 2 -418.88 789.654 -340.541 0.0311334 0.922364 0.384783 0.0147356 
3033 2 -451.209 804.193 -262.907 0.103322 -0.703584 0.551479 -0.436078 
3034 2 -443.859 801.078 -268.843 0.291013 -0.0292327 0.94628 -0.13788 
3035 2 -437.971 798.045 -276.288 0.243842 0.769498 0.555706 0.199007 
3036 2 -432.397 795.719 -284.081 0.0781909 0.912599 -0.32808 0.231112 
3037 2 -428.9 792.486 -292.719 -0.0685774 0.292068 -0.944044 0.137023 
3038 2 -426.948 790.086 -302.151 -0.200058 -0.55714 -0.801357 -0.0860121 
3039 2 -423.537 788.939 -311.416 0.0430855 -0.995446 -0.0392035 -0.0754523 
3040 2 -421.688 789.758 -321.127 0.0232915 -0.637904 0.769631 -0.0143206 
3041 2 -421.442 790.077 -330.993 0.146175 0.21273 0.965757 -0.0262966 
3062 2 -401.446 830.349 -247.107 0.672816 0.288471 0.0472129 0.679613 
3063 2 -396.458 826.905 -239.314 -0.161709 0.133549 -0.208573 0.955255 
3061 2 -404.652 836.756 -253.97 0.921697 0.309375 0.214496 -0.093557 
3047 3 -430.045 830.233 -343.229 -0.994853 0.031391 -0.0939672 -0.0212715 
3064 2 -393.43 823.052 -230.68 -0.794656 -0.165584 -0.290803 0.506495 
3065 2 -390.725 817.701 -222.858 -0.928435 -0.330698 0.0570073 -0.159365 
3060 2 -409.414 841.715 -261.181 0.615811 -0.0219909 0.360855 -0.700055 
3059 2 -412.76 846.69 -269.089 -0.142997 -0.195222 0.237185 -0.940842 
3058 2 -415.724 851.198 -277.448 -0.829637 -0.287282 -0.00475536 -0.478695 
3066 2 -390.117 811.79 -214.892 -0.46865 -0.167811 0.227414 -0.836952 
2915 2 -361.996 775.584 -276.109 -0.979375 0.0297442 0.109999 0.166857 
2916 2 -363.66 776.184 -266.376 -0.76235 0.0163066 0.033448 -0.646094 
2917 2 -363.887 775.871 -256.479 -0.0227788 -0.0541054 -0.0804723 -0.995027 