ITEM: TIMESTEP
10000000
ITEM: NUMBER OF ATOMS
4067
ITEM: BOX BOUNDS pp pp pp
-4.6310929470000001e+03 4.6704658980000004e+03
-4.6310929470000001e+03 4.6704658980000004e+03
-4.6310929470000001e+03 4.6704658980000004e+03
ITEM: ATOMS id type x y z c_q[1] c_q[2] c_q[3] c_q[4] 
2371 1 599.469 502.558 -683.453 -0.349829 -0.152523 -0.576951 0.722139 
2374 2 642.774 485.966 -701.521 0.449798 0.414885 0.59832 -0.517267 
2375 2 643.285 476.092 -701.471 0.778745 0.625708 -0.0415298 0.0179027 
2376 2 643.142 466.464 -699.497 0.439302 0.335105 -0.512615 0.657225 
2377 2 643.049 456.88 -697.246 -0.194364 -0.258802 -0.532312 0.782233 
2378 2 640.341 447.823 -694.383 -0.728863 -0.568823 -0.0112684 0.380882 
2379 2 636.624 439.603 -690.338 -0.8029 -0.324147 0.303469 -0.397728 
2373 2 643.065 495.818 -700.078 -0.207361 -0.231267 0.745027 -0.590298 
2372 3 606.582 469.613 -674.091 -0.383206 -0.211022 -0.564435 0.700025 
2380 2 634.18 432.125 -684.351 -0.318116 0.0291422 0.428577 -0.845148 
2381 2 630.782 425.391 -677.935 0.40154 0.28554 0.0991674 -0.864522 
2382 2 626.807 421.708 -669.668 0.912322 0.249084 -0.282341 -0.160965 
2211 2 527.208 318.639 -528.257 -0.769195 0.160168 0.519546 -0.335795 
2212 2 518.416 318.149 -523.823 -0.207966 0.501844 0.178802 -0.820325 
2397 2 525.428 392.091 -573.911 0.711236 -0.0249673 -0.240344 0.660117 
2396 2 529.203 394.644 -582.716 0.966493 0.161323 -0.177262 -0.0918917 
2395 2 533.84 394.287 -591.496 0.586876 0.173948 -0.16191 -0.774018 
2427 2 490.959 394.751 -622.642 -0.232807 0.0594325 -0.556846 -0.795105 
2394 2 538.047 396.796 -600.13 -0.29181 0.152672 0.198118 -0.923194 
2213 2 509.561 316.933 -519.498 0.558516 0.380817 -0.27872 -0.682168 
2393 2 543.232 400.685 -607.52 -0.88087 -0.0963327 0.345942 -0.308403 
2292 2 625.628 397.667 -532.661 0.588547 -0.591559 -0.399273 0.379805 
2449 2 382.859 442.35 -524.197 0.728762 0.667907 -0.148458 0.0276962 
2450 2 381.344 432.655 -523.08 0.420669 0.215896 -0.654046 0.590467 
2448 2 386.147 451.009 -527.752 0.517437 0.484301 0.259542 -0.656011 
2447 2 390.625 459.497 -530.419 -0.191686 0.125603 0.603579 -0.763658 
2451 2 378.642 423.229 -521.758 -0.174125 -0.329556 -0.574194 0.728954 
2446 2 397.882 466.128 -531.808 -0.734306 -0.317695 0.582601 -0.142968 
2392 2 549.163 405.523 -613.799 -0.741285 -0.419039 0.123887 0.509465 
2425 1 447.549 401.112 -639.914 0.240939 -0.356923 -0.519217 -0.73822 
2445 2 406.079 469.526 -536.045 -0.589258 -0.471387 0.180814 0.630774 
2424 2 410.675 427.594 -652.825 -0.0744903 0.306859 0.676126 -0.665689 
2261 2 510.332 423.006 -531.857 0.149552 0.3489 -0.912291 -0.153717 
2262 2 506.747 424.479 -540.931 0.223557 -0.469512 -0.853839 0.0232324 
2423 2 415.824 435.876 -651.598 -0.591361 -0.414727 0.634948 -0.274108 
2422 2 421.135 444.062 -650.29 -0.559385 -0.757898 0.0841273 0.324965 
2421 2 425.945 452.699 -651.118 -0.0831603 -0.378888 -0.547633 0.741368 
2428 2 492.156 403.986 -619.337 0.482683 -0.427506 -0.309673 -0.698826 
2429 2 494.808 412.656 -615.278 0.852865 -0.515711 0.0735605 0.0353862 
2430 2 495.806 421.454 -610.906 0.445505 -0.332084 0.498067 0.665714 
2426 3 457.144 433.415 -630.425 0.226197 -0.370581 -0.516025 -0.738392 
2431 2 495.477 430.954 -607.979 -0.259176 0.0358447 0.598481 0.757208 
2432 2 492.741 440.032 -604.94 -0.77031 0.427112 0.388139 0.271195 
2433 2 488.833 448.527 -601.59 -0.719275 0.522121 -0.0388401 -0.456645 
2416 2 463.845 479.64 -646.015 -0.651684 -0.133919 0.74487 0.0504316 
2417 2 454.372 478.189 -648.358 -0.281936 0.359588 0.717505 -0.525733 
2418 2 446.541 473.044 -651.682 0.266793 0.755953 0.162034 -0.575414 
2434 2 484.692 456.561 -597.391 -0.166974 0.431139 -0.298974 -0.834778 
2435 2 478.384 462.773 -592.879 0.564367 -0.0416973 -0.535729 -0.626694 
2436 2 472.769 469.499 -588.285 0.822375 -0.396301 -0.326572 0.24494 
2437 2 465.252 474.436 -584.065 0.305058 -0.470183 0.0611497 0.825911 
2438 2 457.944 478.921 -579.116 -0.475028 -0.322724 0.40834 0.709546 
2415 2 473.313 480.069 -643.02 -0.365199 -0.65261 0.458658 0.479962 
2419 2 438.674 467.444 -653.509 0.725771 0.575307 -0.300773 -0.227628 
2420 2 431.276 461.034 -651.963 0.512857 0.142879 -0.687815 0.49343 
2414 2 483.105 479.41 -641.787 0.239419 -0.722609 -0.230648 0.606066 
2444 2 413.152 470.482 -542.861 0.176313 -0.355141 -0.131472 0.908572 
2413 2 492.771 479.413 -639.472 0.60015 -0.244617 -0.743398 0.165356 
2412 2 501.679 477.819 -635.507 0.334878 0.509502 -0.67669 -0.412741 
2439 2 449.642 481.11 -574.083 -0.891272 -0.0460779 0.450317 -0.0269449 
2440 2 441.705 480.275 -568.127 -0.540551 0.248437 0.343726 -0.726592 
2443 2 420.528 472.785 -548.784 0.801881 -0.0471805 -0.456019 0.383154 
2441 2 434.511 477.949 -561.704 0.205505 0.382825 0.0911225 -0.896052 
2442 2 428.072 475.141 -554.68 0.83545 0.292118 -0.317572 -0.340352 
2411 2 510.187 474.691 -631.55 -0.178051 0.826635 -0.0282388 -0.53308 
2410 2 517.659 473.131 -625.244 -0.410063 0.556544 0.69897 -0.183163 
2409 2 524.196 473.351 -617.809 -0.355474 -0.282894 0.887784 0.0738164 
2408 2 530.111 474.453 -610.002 -0.185588 -0.868617 0.354337 0.292414 
2398 1 545.958 426.59 -549.196 0.00488652 0.0487972 0.983025 0.176796 
2407 2 535.467 477.152 -602.173 0.0294326 -0.801521 -0.493928 0.335758 
2399 3 547.102 438.492 -582.106 0.0212969 0.0418089 0.98763 0.149615 
2260 2 513.821 418.764 -523.594 -0.151843 0.897125 -0.321984 -0.261604 
2263 1 474.405 454.73 -524.626 -0.922893 -0.132029 -0.293296 -0.211696 
2406 2 541.304 479.302 -594.443 0.314531 -0.174587 -0.919333 0.159425 
2405 2 546.156 481.603 -586.082 0.25287 0.68825 -0.67402 -0.0898115 
2310 2 548.028 546.109 -532.854 -0.416667 0.498971 -0.622186 -0.436236 
2404 2 551.745 482.032 -577.913 0.0165334 0.941944 0.132194 -0.30821 
2309 2 549.101 536.926 -529.285 -0.567616 0.822864 0.0169936 -0.0204479 
2259 2 515.545 414.564 -514.815 -0.22278 0.810106 0.53725 0.0738958 
2308 2 551.536 527.578 -527.267 -0.417698 0.390283 0.681342 0.457144 
2370 2 559.686 488.698 -662.287 0.253703 -0.050201 -0.797211 -0.545499 
2307 2 556.105 518.971 -525.433 0.0613877 -0.439543 0.646187 0.620867 
2383 2 621.12 418.534 -662.242 0.772605 -0.0927261 -0.34334 0.525929 
2293 2 616.565 401.761 -532.87 0.0885148 -0.591764 0.34744 0.721988 
2391 2 556.407 408.636 -619.738 -0.0184007 -0.423507 -0.155972 0.892175 
2384 2 614.848 416.681 -654.865 0.137323 -0.482153 -0.0638241 0.8629 
2369 2 563.276 479.915 -659.535 -0.282444 0.5893 -0.532183 -0.538268 
2403 2 557.672 479.309 -570.486 -0.351972 0.438593 0.825303 -0.0512511 
2402 2 561.948 476.654 -561.957 -0.146269 -0.410707 0.866643 0.242601 
2368 2 565.96 470.863 -656.377 -0.566567 0.803744 0.161124 -0.0838809 
2390 2 563.999 409.998 -625.876 0.74586 -0.193926 -0.415047 0.483551 
2306 2 559 509.938 -522.791 0.526416 -0.766916 0.186074 0.316389 
2401 2 564.078 472.301 -553.296 0.248108 -0.934583 0.21814 0.131952 
2385 2 606.621 416.504 -649.439 -0.520138 -0.402629 0.332328 0.675948 
2367 2 569.187 462.294 -652.55 -0.438834 0.396388 0.733925 0.334149 
2389 2 572.274 410.921 -631.248 0.77893 0.26609 -0.398802 -0.404254 
2386 2 597.656 416.589 -645.255 -0.87754 -0.144308 0.449918 -0.0816794 
2387 2 589.468 413.525 -640.641 -0.497794 0.39333 0.387624 -0.66876 
2366 2 573.792 455.681 -646.896 -0.0543858 -0.408663 0.77847 0.473308 
2388 2 580.703 412.103 -636.228 0.255981 0.489663 -0.0686591 -0.830657 
2365 2 579.917 451.407 -640.412 0.151941 -0.879112 0.208667 0.400667 
2400 2 567.34 468.39 -544.769 0.257788 -0.740687 -0.619628 -0.0314493 
2364 2 586.095 449.404 -632.997 0.322043 -0.666694 -0.658757 0.133593 
2363 2 591.609 448.745 -624.793 0.280874 0.0631309 -0.957225 -0.0290583 
2362 2 597.844 450.008 -617.225 0.256466 0.702384 -0.629895 -0.210035 
2361 2 603.713 452.481 -609.613 0.0307208 0.900849 0.253698 -0.350949 
2360 2 609.736 456.574 -602.895 -0.265621 0.265108 0.877064 -0.299869 
2359 2 615.492 462.05 -597.021 -0.46915 -0.572993 0.671632 -0.0220791 
2358 2 620.663 467.678 -590.716 -0.299262 -0.901251 -0.0636571 0.306818 
2357 2 623.987 472.808 -583.061 -0.0891359 -0.607775 -0.716476 0.330647 
2354 2 639.441 488.966 -564.713 0.11558 0.775597 0.346945 -0.514509 
2355 2 632.432 483.29 -569.011 0.360447 0.827812 -0.376399 -0.207677 
2356 2 626.49 478.556 -575.365 0.19601 0.249873 -0.91995 0.229859 
2353 2 647.678 492.403 -560.604 -0.373854 0.32757 0.77853 -0.383174 
2352 2 656.107 495.275 -556.185 -0.533146 -0.426533 0.721516 0.115069 
2351 2 664.982 497.229 -552.134 -0.229404 -0.824267 0.176244 0.48672 
2350 2 674.236 499.937 -549.672 0.289993 -0.565106 -0.579072 0.511111 
2332 2 603.975 522.003 -553.748 -0.114563 -0.241488 -0.950074 -0.160991 
2329 2 600.044 520.135 -524.833 0.0184341 0.688094 0.720936 -0.0802412 
2330 2 599.958 518.811 -534.631 -0.0665127 0.996435 -0.00131264 0.051882 
2331 2 601.248 520.13 -544.344 -0.170982 0.601557 -0.78031 0.00319444 
2335 2 616.325 535.222 -576.898 0.310382 -0.0894905 0.877822 0.35367 
2334 2 611.234 529.938 -570.231 0.400775 -0.772607 0.48593 -0.0795657 
2333 2 606.855 524.969 -562.817 0.177994 -0.850032 -0.379567 -0.318893 
2345 3 667.256 529.225 -583.56 -0.460411 -0.635505 -0.0192911 0.619502 
2336 2 621.271 541.13 -583.12 -0.0220891 0.679598 0.628563 0.377581 
2290 1 653.951 435.424 -533.258 -0.359415 0.55274 -0.00613425 -0.751839 
2349 2 682.731 505.08 -549.326 0.641168 0.131769 -0.725979 0.210941 
2348 2 690.872 510.622 -548.846 0.572153 0.674938 -0.272116 -0.378223 
2289 2 663.388 481.254 -527.34 -0.202946 -0.887837 -0.352405 -0.215336 
2347 2 697.551 517.808 -548.237 0.166397 0.608678 0.375636 -0.678764 
2346 2 705.108 524.114 -548.384 -0.455008 0.0941349 0.709958 -0.529212 
2294 2 608.577 407.5 -532.069 -0.548998 -0.103046 0.707129 0.433533 
2337 2 625.287 546.433 -590.415 -0.19812 0.943022 -0.161895 0.212717 
2295 2 600.194 412.706 -532.161 -0.766591 0.452341 0.448162 -0.0829297 
2296 2 592.511 418.822 -530.693 -0.453435 0.645011 -0.25537 -0.559592 
2338 2 629.938 548.762 -598.822 -0.3548 0.37945 -0.849914 0.0882082 
2344 1 695.732 549.306 -587.152 -0.458511 -0.620751 -0.00074593 0.635952 
2299 2 579.637 445.448 -528.392 0.7095 -0.616453 -0.0504209 0.337716 
2339 2 636.632 549.886 -606.123 -0.297469 -0.341734 -0.843164 -0.289489 
2291 3 624.199 447.974 -519.956 -0.373992 0.558453 0.0146923 -0.7403 
2300 2 575.503 454.078 -525.702 0.230427 -0.344876 0.502529 0.75857 
2297 2 587.339 427.334 -530.328 0.18749 0.11374 -0.674619 -0.704841 
2298 2 583.547 436.498 -529.801 0.655503 -0.42719 -0.494092 -0.379076 
2302 2 569.784 472.182 -520.146 -0.732712 0.642717 0.223682 -0.0037675 
2301 2 572.764 463.285 -523.35 -0.451758 0.11879 0.552166 0.690591 
2304 2 564.944 491.235 -520.49 0.16792 -0.0448336 -0.743508 -0.645746 
2303 2 566.543 481.551 -519.77 -0.46906 0.570979 -0.432434 -0.516687 
2305 2 562.874 500.899 -521.743 0.626927 -0.586498 -0.467876 -0.209943 
2328 2 599.717 521.199 -515.009 0.0132988 -0.0869979 0.993364 -0.074041 
2288 2 658.129 483.758 -519.224 -0.296973 -0.199842 -0.931926 0.0581768 
2340 2 643.644 553.342 -612.284 0.0160225 -0.781079 -0.263259 -0.565998 
2311 2 549.008 555.664 -535.035 0.0181549 -0.184271 -0.813021 -0.552007 
2312 2 549.901 564.767 -538.815 0.475243 -0.728477 -0.285862 -0.402181 
2313 2 553.36 573.874 -540.536 0.701606 -0.607519 0.303492 0.215782 
2314 2 555.232 583.471 -538.817 0.291137 -0.105549 0.651396 0.692663 
2341 2 651.993 556.328 -616.748 0.421868 -0.684681 0.473638 -0.359037 
2315 2 557.962 592.873 -536.996 -0.408648 0.301078 0.470805 0.721596 
2316 2 558.7 601.993 -533.412 -0.824903 0.551235 0.046802 0.116123 
2342 2 660.72 558.7 -621.027 0.5508 -0.0732375 0.827686 0.0786895 
2343 2 669.708 560.565 -624.915 0.240204 0.645239 0.521445 0.504047 
2184 2 403.387 220.36 -392.446 0.589247 -0.716469 -0.000342278 -0.373444 
2185 2 408.409 228.896 -392.018 0.711443 -0.360038 0.585413 0.14667 
2186 2 415.594 235.702 -391.706 0.337084 0.260764 0.55434 0.714901 
2187 2 423.198 241.612 -389.531 -0.3961 0.681743 0.0919787 0.608171 
2188 2 430.46 248.343 -388.48 -0.774182 0.398239 -0.489621 0.0481554 
2230 2 400.52 396.003 -443.199 -0.223173 -0.335055 0.615785 0.677304 
2214 2 501.591 316.69 -513.56 0.90751 -0.0467375 -0.416706 0.0244576 
2189 2 438.221 254.108 -386.264 -0.55333 -0.245893 -0.522794 -0.600041 
2215 2 493.651 316.581 -507.57 0.515275 -0.299894 -0.196529 0.778416 
2209 1 546.451 350.593 -499.442 -0.464073 0.228498 0.375034 -0.769269 
2216 2 486.831 316.51 -500.497 -0.319573 -0.324112 0.283618 0.844029 
2229 2 408.178 389.692 -443.238 0.335016 -0.729028 0.102115 0.588095 
2217 2 480.199 319.586 -493.806 -0.839849 -0.0226798 0.39695 0.369554 
2190 2 446.957 257.981 -383.317 0.0997484 -0.62125 -0.230913 -0.742144 
2191 2 455.542 262.803 -382.174 0.587703 -0.678282 0.26595 -0.351865 
2228 2 415.43 383.003 -444.044 0.728764 -0.442306 -0.522494 -0.0163615 
2192 2 463.358 268.866 -383.089 0.530379 -0.435984 0.703619 0.18313 
2227 2 423.149 376.963 -445.708 0.44265 0.217877 -0.622849 -0.607165 
2193 2 468.877 276.319 -386.532 0.205324 0.21222 0.769569 0.566187 
2226 2 429.547 370.003 -448.429 -0.296929 0.541769 -0.258975 -0.742463 
2225 2 436.105 362.914 -450.241 -0.745529 0.55835 0.287342 -0.223307 
2224 2 442.843 355.594 -450.81 -0.628822 0.205429 0.662047 0.352244 
2210 3 521.941 335.673 -479.476 -0.464077 0.236352 0.410555 -0.748475 
2218 2 473.814 322.563 -486.793 -0.832923 0.337783 0.150488 -0.411699 
2219 2 468.74 326.76 -479.43 -0.259387 0.344017 -0.11009 -0.895684 
2204 2 530.632 346.074 -437.489 -0.0915525 -0.507211 -0.647257 -0.561617 
2203 2 524.041 339.385 -434.613 -0.495877 0.201857 -0.798202 -0.276104 
2202 2 518.216 333.509 -429.21 -0.418308 0.8185 -0.359021 0.161801 
2200 2 506.429 324.15 -416.325 0.2326 0.219608 0.887277 0.332279 
2201 2 512.043 329.092 -422.885 -0.0776323 0.810065 0.381894 0.438093 
2199 2 501.891 318.698 -409.428 0.372171 -0.593807 0.707423 0.0918405 
2198 2 495.337 313.994 -403.728 0.294599 -0.894649 0.122151 -0.31288 
2197 2 489.797 307.059 -399.353 0.0393808 -0.57998 -0.610109 -0.538367 
2220 2 463.495 330.321 -471.842 0.47277 0.08914 -0.374097 -0.792839 
2221 2 459.076 336.176 -465.19 0.907669 -0.322237 -0.247013 -0.106235 
2222 2 455.229 342.621 -458.757 0.582357 -0.524669 0.0463793 0.619218 
2223 2 449.367 348.955 -454.061 -0.087478 -0.332319 0.466651 0.814953 
2205 2 537.138 352.775 -440.963 0.289568 -0.889935 -0.103698 -0.336768 
2206 2 542.802 358.803 -446.567 0.428169 -0.624094 0.638592 0.139205 
2196 2 485.574 299.156 -395.311 -0.321611 0.200371 -0.827365 -0.41459 
2195 2 479.828 291.677 -392.41 -0.55085 0.70959 -0.43645 0.0505803 
2194 2 474.165 283.983 -389.779 -0.32263 0.730946 0.331253 0.501896 
2207 2 546.849 365.85 -452.326 0.2045 0.131363 0.877894 0.412584 
2208 2 551.553 372.514 -457.961 -0.185599 0.761053 0.455329 0.423117 
2560 1 104.818 539.699 -373.77 -0.340188 -0.462245 -0.312893 -0.756769 
2532 2 220.893 522.932 -482.564 -0.166344 -0.963979 -0.198502 0.0605935 
2531 2 221.6 526.364 -473.261 -0.0484372 -0.461768 -0.868755 0.172307 
2545 2 217.179 505.797 -388.042 -0.848849 0.406553 0.301668 -0.152206 
2546 2 210.579 511.639 -383.465 -0.36297 0.649994 -0.197276 -0.637842 
2547 2 203.351 518.353 -382.963 0.141464 0.257905 -0.602919 -0.741594 
2548 2 198.396 526.929 -382.173 0.585396 -0.362597 -0.622203 -0.372422 
2549 2 194.009 535.805 -382.805 0.696257 -0.654118 -0.0606974 0.289259 
2530 2 222.997 529.878 -464.105 0.154837 0.314466 -0.927054 0.133071 
2533 1 229.838 477.479 -473.833 0.0742695 0.0691103 0.256827 0.961118 
2534 3 236.503 492.846 -443.125 0.0550485 0.0738684 0.186473 0.978131 
2550 2 189.384 544.513 -381.46 0.176947 -0.503247 0.412556 0.738397 
2551 2 183.151 552.011 -379.698 -0.468394 0.0312171 0.679263 0.564123 
2529 2 225.704 533.378 -455.238 0.219704 0.887742 -0.403087 -0.0341166 
2528 2 231.041 536.172 -447.357 0.0262672 0.908721 0.277079 -0.311069 
2527 2 235.801 537.468 -438.856 -0.25575 0.34717 0.883244 -0.184242 
2544 2 223.968 499.535 -391.736 -0.682491 0.0271136 0.524244 0.508566 
2543 2 229.653 491.971 -394.5 0.105517 -0.413846 0.430895 0.794939 
2542 2 235.135 484.249 -397.237 0.690037 -0.589891 -0.0339053 0.418004 
2541 2 239.332 476.084 -400.789 0.75397 -0.307805 -0.450819 -0.365442 
2540 2 243.284 468.463 -405.646 0.113473 0.128332 -0.451841 -0.875497 
2539 2 245.434 461.605 -412.411 -0.638036 0.331571 -0.198151 -0.666113 
2538 2 244.788 455.045 -419.805 -0.928237 0.359101 -0.00150383 0.0970597 
2537 2 243.697 450.89 -428.771 -0.538626 0.186441 0.102504 0.815239 
2536 2 242.086 446.859 -437.668 0.256648 0.0227005 0.201843 0.944921 
2535 2 239.975 441.157 -445.412 0.85774 -0.235087 0.227747 0.396418 
2526 2 241.231 535.371 -430.732 -0.186086 -0.516102 0.803679 0.230459 
2525 2 247.96 533.492 -423.741 0.065053 -0.896547 0.173297 0.402418 
2561 3 137.647 544.652 -362.591 -0.346419 -0.460081 -0.334187 -0.746082 
2231 2 393.553 402.954 -442.312 -0.643721 0.273789 0.695601 0.163711 
2524 2 255.32 529.923 -418.256 0.398081 -0.718211 -0.528713 0.214864 
2232 2 385.264 408.208 -443.357 -0.597875 0.681044 0.213536 -0.364865 
2233 2 377.859 414.77 -443.013 -0.167973 0.584212 -0.488952 -0.625625 
2523 2 260.005 523.882 -411.988 0.303776 -0.0944081 -0.897267 -0.306134 
2505 2 262.799 446.522 -421.759 0.133619 0.476191 0.348808 -0.796066 
2504 2 269.309 453.37 -424.586 -0.517433 0.0166866 0.59345 -0.61628 
2492 2 369.598 508.419 -446.898 0.676617 0.578768 -0.232999 -0.391061 
2493 2 361.884 502.97 -443.927 0.819599 0.183614 -0.514972 0.17131 
2494 2 353.948 498.287 -440.288 0.331786 -0.421705 -0.474021 0.698132 
2495 2 345.05 494.41 -438.637 -0.454445 -0.651476 -0.0471396 0.605671 
2496 2 337.284 488.433 -437.071 -0.757556 -0.410902 0.499403 0.0886826 
2497 2 328.85 483.346 -436.012 -0.485544 0.219427 0.695948 -0.481409 
2498 2 320.003 478.835 -436.617 0.0805466 0.694672 0.224119 -0.678759 
2499 2 310.759 475.187 -437.04 0.662094 0.534481 -0.351294 -0.390581 
2500 2 301.849 471.324 -435.361 0.735876 0.107022 -0.633457 0.213928 
2501 2 292.829 467.714 -433.802 0.296067 -0.419879 -0.355862 0.780646 
2502 2 284.176 464.873 -430.054 -0.457488 -0.611572 0.0350062 0.644561 
2503 2 275.837 460.154 -427.638 -0.818609 -0.414622 0.394872 -0.0452163 
2507 3 303.144 459.908 -392.023 -0.00319172 0.249868 0.728987 0.637286 
2517 2 300.675 502.544 -374.786 0.398933 -0.651482 -0.622782 0.169015 
2518 2 294.147 505.545 -381.531 0.101948 -0.918189 0.132067 0.359297 
2519 2 287.454 508.406 -388.343 -0.178282 -0.428525 0.811443 0.355165 
2520 2 281.318 512.775 -394.829 -0.456852 0.390979 0.797516 0.0488909 
2521 2 274.676 516.833 -400.827 -0.242408 0.863018 0.119835 -0.426705 
2522 2 266.888 519.72 -406.187 0.120819 0.653572 -0.598163 -0.447714 
2491 2 376.833 514.473 -450.03 0.123889 0.531582 0.278899 -0.790118 
2490 2 383.533 521.278 -452.564 -0.434718 0.12411 0.618374 -0.64283 
2234 2 372.038 422.719 -444.174 0.391549 -0.0460246 -0.755991 -0.522541 
2235 2 366.766 430.842 -445.917 0.650992 -0.599433 -0.464088 -0.0388816 
2236 1 377.444 455.873 -407.389 0.675363 0.393664 0.623406 0.0166715 
2489 2 389.138 528.244 -456.919 -0.81713 -0.342044 0.429759 -0.174964 
2488 2 392.835 534.303 -463.863 -0.754812 -0.395155 -0.0102301 0.523457 
2506 1 289.848 427.914 -387.888 0.00887055 0.268881 0.704167 0.657095 
2487 2 396.451 539.709 -471.308 -0.0611235 -0.220034 -0.27243 0.934682 
2516 2 306.234 498.188 -367.824 0.296251 -0.00525179 -0.921314 -0.251768 
2515 2 313.762 493.484 -363.546 0.10908 0.647577 -0.549039 -0.517013 
2486 2 400.031 543.124 -479.933 0.708296 -0.00321272 -0.249901 0.660193 
2485 2 400.695 548.973 -487.887 0.937502 0.32395 0.0296074 -0.123569 
2238 2 404.923 467.612 -370.915 0.33546 0.807218 0.0929621 0.476679 
2237 3 405.335 435.09 -411.477 0.696342 0.41602 0.584348 0.0239447 
2239 2 413.145 462.572 -373.393 -0.220761 0.535556 -0.526227 0.622519 
2467 2 420.523 525.892 -424.374 0.690575 -0.562118 0.175279 0.420008 
2255 2 511.54 409.53 -476.669 -0.140905 -0.481879 -0.863126 -0.0543271 
2257 2 516.681 410.804 -495.646 0.0548927 -0.753939 0.653426 0.0399628 
2258 2 516.887 411.5 -505.558 -0.075069 0.0963835 0.973875 0.191424 
2256 2 514.469 409.841 -486.081 -0.00190371 -0.981144 -0.136615 -0.136709 
2254 2 507.484 410.711 -467.712 -0.204567 0.249092 -0.936771 0.136259 
2253 2 503.793 412.523 -458.682 -0.0380796 0.813565 -0.538994 0.214818 
2252 2 500.198 416.739 -450.439 0.266368 0.942023 0.165161 0.119843 
2466 2 420.978 516.642 -427.75 0.756461 -0.520902 -0.232935 -0.319639 
2465 2 423.047 507.104 -429.253 0.253147 -0.112753 -0.662609 -0.695811 
2464 2 424.98 497.898 -432.185 -0.427238 0.425915 -0.40751 -0.685565 
2240 2 421.992 458.329 -375.095 -0.489357 -0.0343383 -0.85953 0.14338 
2463 2 427.581 489.43 -436.716 -0.853723 0.50792 0.106773 -0.0421281 
2452 1 416.991 409.427 -498.001 0.185649 -0.234731 -0.704287 -0.643751 
2251 2 495.514 421.116 -442.878 0.340776 0.419845 0.835216 -0.100076 
2250 2 489.348 425.99 -436.773 0.193017 -0.404732 0.795726 -0.407132 
2249 2 483.846 431.848 -430.943 -0.219062 -0.84493 0.273106 -0.404373 
2453 3 420.248 444.259 -498.78 0.163906 -0.238733 -0.698518 -0.654381 
2248 2 478.215 436.409 -424.2 -0.378731 -0.706852 -0.591598 -0.0832779 
2247 2 472.587 439.456 -416.693 -0.275937 0.135916 -0.931322 0.195002 
2246 2 466.542 443.229 -409.749 0.017071 0.798998 -0.437398 0.412302 
2245 2 460.271 446.049 -402.63 0.28946 0.865048 0.33752 0.232348 
2244 2 454.334 448.223 -395.07 0.348479 0.37559 0.858658 -0.0141647 
2462 2 429.765 481.174 -441.85 -0.617246 0.227465 0.415154 0.628422 
2461 2 431.935 474.337 -448.634 0.16313 -0.205902 0.357358 0.896264 
2460 2 434.373 467.441 -455.357 0.780307 -0.414423 0.0787864 0.4617 
2459 2 438.407 459.195 -459.002 0.816571 -0.425006 -0.344658 -0.183828 
2265 2 454.775 481.605 -491.211 0.24162 0.48845 0.288212 0.787382 
2266 2 463.677 484.095 -487.751 -0.488357 0.429686 -0.125386 0.749103 
2267 2 471.501 486.196 -481.885 -0.864515 0.105581 -0.465043 0.158747 
2268 2 479.97 486.678 -476.835 -0.609759 -0.302394 -0.478169 -0.555073 
2264 3 496.267 451.001 -497.473 -0.922717 -0.126039 -0.318309 -0.177163 
2454 2 457.479 417.237 -475.053 0.191061 -0.234236 0.522362 0.79735 
2455 2 456.101 426.545 -471.986 -0.565058 0.237044 0.563104 0.554467 
2456 2 452.602 435.476 -469.238 -0.831667 0.492953 0.243606 -0.0773548 
2457 2 447.898 443.145 -465.245 -0.476561 0.521772 -0.274998 -0.651935 
2458 2 444.088 451.441 -461.533 0.339705 0.141606 -0.605925 -0.705268 
2269 2 489.251 487.946 -473.502 -0.0281823 -0.63301 0.0461081 -0.772255 
2270 2 498.961 486.909 -471.753 0.587614 -0.274088 0.589351 -0.481924 
2241 2 430.025 454.865 -379.707 -0.429943 -0.636857 -0.556982 -0.315173 
2242 2 438.704 453.048 -384.101 -0.079014 -0.884163 0.110346 -0.44703 
2243 2 446.816 450.573 -389.239 0.348929 -0.402347 0.783771 -0.319481 
2271 2 508.294 484.06 -470.57 0.670045 0.311949 0.645018 0.194111 
2272 2 517.967 481.927 -471.693 0.284364 0.746152 -0.00322372 0.601984 
2273 2 526.759 477.731 -473.14 -0.388327 0.550818 -0.539861 0.504333 
2274 2 536.493 476.438 -474.574 -0.678835 -0.0539296 -0.730858 -0.0460534 
2275 2 546.45 475.874 -475.272 -0.447312 -0.669045 -0.300436 -0.511888 
2468 2 417.926 534.952 -421.042 0.0792109 -0.154081 0.625138 0.761043 
2469 2 416.003 544.495 -419.148 -0.499718 0.47658 0.492237 0.529958 
2276 2 555.928 473.23 -475.298 0.151632 -0.747817 0.238385 -0.600792 
2287 2 652.439 484.742 -511.178 -0.171805 0.654105 -0.696707 0.239227 
2286 2 646.388 482.859 -503.608 -0.0582776 0.912855 0.154749 0.373299 
2327 2 598.155 523.143 -505.393 -0.0579141 -0.839665 0.524367 -0.129029 
2326 2 596.75 525.096 -495.814 -0.0797163 -0.952082 -0.292764 -0.0384042 
2277 2 565.343 472.274 -478.108 0.625181 -0.296546 0.686484 -0.223493 
2325 2 594.744 528.182 -486.602 -0.122289 -0.410263 -0.898136 0.100404 
2324 2 592.737 532 -477.631 0.00783607 0.501673 -0.82384 0.263723 
2285 2 640.652 481.565 -495.625 0.221108 0.440344 0.851545 0.179108 
2284 2 632.214 480.495 -490.511 0.491307 -0.289273 0.812187 -0.123655 
2283 2 623.121 477.76 -487.813 0.220614 -0.812161 0.0945213 -0.53178 
2279 2 584.928 473.044 -481.048 0.126891 0.717256 0.0536359 0.683056 
2280 2 594.81 472.6 -480.975 -0.477832 0.534436 -0.532441 0.450068 
2281 2 604.513 473.31 -482.887 -0.567721 -0.0425047 -0.816803 -0.0933801 
2282 2 613.825 474.639 -486.057 -0.231905 -0.59174 -0.511558 -0.578249 
2278 2 575.142 472.002 -479.954 0.535354 0.39121 0.649477 0.372197 
2323 2 591.738 537.67 -469.589 0.330443 0.916916 -0.185465 0.125198 
2322 2 589.604 545.916 -464.444 0.492372 0.691928 0.487741 -0.202272 
2552 2 177.151 559.828 -379.457 -0.680065 0.507158 0.522214 0.0871458 
2553 2 171.318 567.818 -379.902 -0.345009 0.786077 0.028062 -0.512118 
2554 2 163.203 572.918 -382.03 0.31138 0.45701 -0.644662 -0.527821 
2555 2 154.282 576.697 -384.075 0.642281 -0.209466 -0.735921 -0.0449401 
2559 2 118.393 578.495 -397 -0.308079 0.463956 0.718025 -0.41746 
2558 2 126.706 581.647 -392.564 -0.535936 -0.313837 0.783401 0.0236891 
2557 2 135.722 582.204 -388.468 -0.208467 -0.790913 0.297689 0.492321 
2556 2 145.137 580.046 -386.229 0.415425 -0.67806 -0.374949 0.476518 
2478 2 379.431 618.721 -424.838 -0.250941 0.781699 -0.368732 -0.435903 
2477 2 384.81 611.958 -420.049 -0.491069 0.786599 0.361394 -0.0975048 
2479 1 388.386 610.504 -470.404 -0.0491915 0.121191 -0.491406 0.861054 
2476 2 390.919 605.032 -416.523 -0.453961 0.225065 0.805829 0.306439 
2475 2 395.728 597.114 -412.945 0.0431759 -0.489395 0.643634 0.586826 
2480 3 396.935 580.249 -455.048 -0.0269682 0.143898 -0.451916 0.879964 
2474 2 402.241 589.602 -412.856 0.492218 -0.72439 0.0595916 0.478987 
2484 2 401.75 557.129 -493.37 0.438986 0.286285 0.368081 -0.768016 
2483 2 401.714 566.321 -497.044 -0.298411 -0.200009 0.517247 -0.77679 
2473 2 408.419 581.918 -412.72 0.732523 -0.492979 -0.465373 -0.0617281 
2481 2 402.085 583.525 -506.606 -0.681598 -0.364134 -0.308887 0.554454 
2482 2 402.184 575.394 -501.048 -0.820963 -0.519781 0.159037 -0.174798 
2472 2 412.622 573.089 -414.16 0.375544 -0.0281086 -0.657375 -0.652714 
2471 2 415.59 564.154 -417.114 -0.353596 0.392416 -0.41543 -0.740539 
2470 2 416.462 554.41 -418.792 -0.767015 0.632765 -0.0461803 -0.0957303 
2321 2 588.259 555.052 -460.807 0.136739 0.0648841 0.855449 -0.495278 
2320 2 588.098 563.937 -456.417 -0.376397 -0.579084 0.617507 -0.376392 
2318 3 573.982 564.613 -500.883 -0.53507 -0.786543 -0.263604 0.159883 
2319 2 588.794 572.661 -451.788 -0.503974 -0.861331 -0.00444207 0.0640249 
2317 1 573.114 597.364 -488.758 -0.548664 -0.775657 -0.267177 0.161063 
2721 2 6.47884 718.557 -391.305 0.552777 0.130507 -0.807937 -0.156983 
2722 1 2.85307 763.417 -405.317 0.781636 -0.118214 0.571082 -0.221215 
2724 2 18.6911 807.612 -409.945 -0.0450759 0.590805 -0.0325241 0.804897 
2725 2 28.2931 806.921 -407.213 -0.681969 0.325227 -0.50342 0.419183 
2726 2 37.8676 807.032 -404.593 -0.778419 -0.253582 -0.524602 -0.233566 
2727 2 47.1265 805.437 -401.337 -0.393486 -0.503901 0.0351265 -0.768127 
2728 2 55.0466 801.458 -396.919 0.32431 -0.281724 0.349336 -0.832718 
2729 2 61.9641 797.192 -391.316 0.819775 0.140854 0.429852 -0.35122 
2730 2 68.49 791.973 -385.9 0.733108 0.429715 0.155352 0.503749 
2731 2 75.2383 787.504 -380.35 0.0491881 0.373101 -0.329041 0.866088 
2723 3 35.9614 761.201 -394.25 0.790004 -0.0834807 0.5869 -0.156437 
2732 2 81.4637 781.664 -375.455 -0.67745 0.0491303 -0.496007 0.540948 
2733 2 88.8718 777.499 -370.341 -0.862666 -0.332634 -0.302092 -0.232169 
2720 2 15.7747 716.757 -388.639 0.233376 0.681804 -0.419849 -0.55173 
2719 2 25.5633 716.914 -386.708 -0.21002 0.726618 0.264843 -0.598144 
2718 2 35.2398 717.418 -384.701 -0.553622 0.271536 0.743481 -0.258855 
2717 2 44.3081 719.992 -381.655 -0.55975 -0.405725 0.709067 0.138891 
2716 2 52.287 722.801 -376.554 -0.228628 -0.863434 0.14302 0.426329 
2715 2 58.4294 729.403 -372.426 0.0272681 -0.545149 -0.634274 0.547509 
2714 2 63.0721 735.952 -366.535 0.331851 0.201134 -0.86473 0.318844 
2734 2 95.5298 773.539 -364.267 -0.425069 -0.325922 -0.0273705 -0.844004 
2775 2 87.3932 919.678 -383.195 -0.313348 0.130425 0.863608 0.372806 
2774 2 92.0381 912.681 -377.98 0.0925082 -0.61024 0.624569 0.4785 
2773 2 95.4647 905.785 -371.77 0.419871 -0.883239 -0.182495 0.101454 
2772 2 99.2046 901.355 -363.84 0.286715 -0.442315 -0.845459 -0.0857423 
2829 2 112.939 1007.84 -363.028 0.404499 -0.487248 -0.773035 0.0372431 
3640 1 -1273.84 1816.36 -385.437 0.545295 0.28571 0.294556 0.730931 
3638 2 -1234.19 1839.28 -402.534 0.365091 -0.228644 -0.901515 0.0412443 
3639 2 -1241.08 1840.24 -409.61 0.221385 -0.809606 -0.464637 0.282204 
3637 2 -1226.29 1837.42 -396.864 0.286304 0.571197 -0.659717 -0.395647 
3636 2 -1218.74 1836.79 -390.493 -0.0679336 0.908606 0.0759149 -0.405039 
3669 2 -1201.94 1867.57 -394.859 -0.458636 -0.327253 0.0575889 0.824161 
3670 2 -1207.64 1865.16 -387.258 -0.924327 -0.105279 0.301844 0.208392 
3671 2 -1213.94 1864.06 -379.62 -0.703211 0.270281 0.221381 -0.61922 
3672 2 -1221.07 1864.25 -372.711 0.0292687 0.412058 -0.0562843 -0.908947 
3673 2 -1228.5 1865.19 -366.079 0.715783 0.0817373 -0.345276 -0.601464 
3635 2 -1212.07 1835.22 -383.338 -0.340343 0.574429 0.731992 -0.135598 
3634 2 -1206.31 1832.91 -375.527 -0.219982 -0.294459 0.902757 0.223453 
3633 2 -1201.41 1830.52 -367.268 -0.00271764 -0.890731 0.348336 0.291982 
3667 1 -1194.74 1913.91 -390.22 -0.238394 0.190317 0.185736 -0.93405 
3641 3 -1248.3 1820.95 -361.965 0.594092 0.2532 0.279049 0.710687 
3666 2 -1195.28 1954.57 -366.206 -0.159092 0.392807 -0.903909 -0.0578008 
3850 2 -1189.96 2161.46 -403.063 0.54687 -0.58662 -0.45767 -0.38386 
3851 2 -1190.21 2171.22 -405.022 0.612825 -0.754387 0.159585 0.172856 
3849 2 -1194.4 2152.78 -400.965 -0.141982 -0.176821 -0.778696 -0.584985 
3848 2 -1199.94 2145.05 -398.185 -0.593393 0.44017 -0.64707 -0.188245 
3847 2 -1206.43 2138.3 -394.828 -0.447537 0.788211 -0.0429685 0.420222 
3852 2 -1190.19 2181.08 -406.241 0.180414 -0.315123 0.58241 0.727287 