ITEM: TIMESTEP
10000000
ITEM: NUMBER OF ATOMS
4067
ITEM: BOX BOUNDS pp pp pp
-4.6310929470000001e+03 4.6704658980000004e+03
-4.6310929470000001e+03 4.6704658980000004e+03
-4.6310929470000001e+03 4.6704658980000004e+03
ITEM: ATOMS id type x y z c_q[1] c_q[2] c_q[3] c_q[4] 
1803 2 447.66 46.5726 -374.943 0.396924 0.823906 -0.246474 -0.32075 
1804 1 415.886 81.2542 -372.144 0.8174 -0.154877 0.546752 0.0945126 
1802 2 454.794 51.4573 -369.988 0.0192326 0.727621 0.473453 -0.496024 
1801 2 462.056 55.5651 -364.553 -0.38504 0.146205 0.865671 -0.284574 
4018 1 -993.109 164.535 -491.68 0.793402 -0.397118 -0.0671173 -0.456405 
4017 2 -1016.35 147.448 -454.335 0.14995 0.276148 -0.760254 0.56857 
4016 2 -1017.71 156.548 -450.864 0.504413 0.768705 -0.283604 0.272449 
4015 2 -1017.7 164.217 -444.731 0.393479 0.817521 0.376838 -0.18662 
4014 2 -1017.2 171.165 -437.572 0.0846501 0.30762 0.874536 -0.365227 
4013 2 -1013.06 178.339 -432.103 -0.358504 -0.409423 0.795794 -0.26563 
4012 2 -1008.02 184.985 -426.674 -0.415646 -0.870191 0.193022 0.180965 
4011 2 -1003.56 193.379 -424.051 -0.254399 -0.596952 -0.512394 0.562479 
4010 2 -998.863 201.666 -421.478 0.356324 0.0923997 -0.791907 0.487216 
4009 2 -992.377 208.648 -418.67 0.603716 0.611504 -0.509337 -0.046527 
4019 3 -985.561 187.524 -466.371 0.797363 -0.39125 -0.0724603 -0.453746 
4008 2 -987.217 215.574 -413.978 0.302135 0.849062 0.168963 -0.399073 
4007 2 -984.648 221.631 -406.644 -0.0516385 0.281218 0.890073 -0.354993 
4006 2 -982.644 228.194 -399.508 -0.285753 -0.539789 0.75782 -0.229525 
4005 2 -979.587 234.641 -392.671 -0.41018 -0.892225 0.145348 0.120665 
4004 2 -977.425 240.33 -384.878 -0.130155 -0.60698 -0.723187 0.302714 
4003 2 -974.271 243.257 -375.919 0.168706 0.10116 -0.973627 0.115568 
3990 2 -964.355 158.853 -377.722 0.693075 0.217554 -0.428781 0.537089 
4020 2 -963.433 194.588 -512.699 -0.142602 0.186071 0.356131 0.904551 
4021 2 -961.011 200.881 -505.486 -0.79059 0.333799 0.100868 0.50336 
4022 2 -959.179 207.398 -498.255 -0.896122 0.277009 -0.191606 -0.288997 
4023 2 -957.44 213.103 -490.419 -0.347267 0.0289638 -0.147256 -0.925679 
4024 2 -956.381 215.828 -480.842 0.417701 -0.0186261 -0.141001 -0.897384 
3989 2 -960.829 166.46 -383.051 0.859248 0.476474 -0.11865 -0.143483 
4025 2 -957.409 218.731 -471.445 0.959097 -0.177259 0.030473 -0.218594 
3988 2 -956.341 173.419 -388.513 0.369942 0.404445 0.258337 -0.795506 
3987 2 -952.939 182.06 -391.945 -0.370544 -0.0286114 0.558821 -0.741349 
3986 2 -949.844 190.156 -396.698 -0.86527 -0.423608 0.233417 -0.131837 
3984 2 -943.546 208.482 -394.929 0.028281 -0.255056 -0.755965 0.602216 
3985 2 -947.171 199.649 -397.592 -0.549745 -0.649365 -0.268316 0.451788 
3983 2 -938.283 216.259 -391.643 0.521052 0.386887 -0.722833 0.237352 
3982 2 -932.477 223.618 -388.459 0.545727 0.771322 -0.232935 -0.230186 
4026 2 -955.908 222.442 -462.463 0.780103 -0.128537 0.165904 0.589401 
4027 2 -954.918 226.852 -453.636 0.0661656 0.121942 0.352188 0.925589 
3981 2 -927.515 230.625 -383.583 0.162348 0.742226 0.48023 -0.438317 
4028 2 -952.849 233.297 -446.46 -0.748158 0.300345 0.240053 0.540766 
3937 1 -844.478 232.137 -403.706 -0.782059 0.470624 0.211299 0.349642 
4029 2 -952.846 240.263 -439.522 -0.92596 0.317549 -0.087124 -0.184852 
3980 2 -922.567 236.425 -377.25 -0.280512 0.0577609 0.900963 -0.325949 
3979 2 -919.893 241.102 -368.967 -0.277099 -0.712578 0.64403 -0.0259548 
4002 2 -971.337 244.71 -366.54 0.152201 0.840206 -0.51612 -0.0671518 
4030 2 -952.09 246.713 -432.07 -0.459884 0.209796 -0.280295 -0.816044 
3936 2 -864.866 223.53 -362.05 -0.415667 -0.252213 0.828215 -0.278692 
3855 2 -761.152 146.488 -393.719 -0.365026 -0.619818 -0.240142 0.651854 
3854 2 -755.354 154.418 -395.009 0.288307 -0.16913 -0.634103 0.697271 
3853 2 -748.514 161.467 -395.901 0.713506 0.344442 -0.5871 0.166081 
3852 2 -740.964 167.816 -396.207 0.503562 0.684558 -0.0667865 -0.522824 
3851 2 -733.783 174.702 -395.902 -0.0548519 0.483756 0.537054 -0.688872 
3813 2 -721.981 232.536 -394.165 0.998403 0.0297804 0.0396224 -0.0271165 
3814 2 -720.782 231.845 -384.323 0.621866 -0.00540776 -0.0628481 0.780579 
3815 2 -722.01 230.754 -374.535 -0.291592 -0.222469 -0.0715253 0.927559 
3850 2 -727.096 180.442 -391.355 -0.406753 -0.0294176 0.856173 -0.31726 
3816 2 -725.525 227.616 -365.818 -0.909033 -0.174776 0.100955 0.364583 
3849 2 -723.541 187.891 -385.771 -0.464839 -0.721508 0.506939 -0.0797679 
3812 2 -724.206 233.188 -403.816 0.595908 -0.0856428 0.115437 -0.790084 
3811 2 -725.898 234.415 -413.449 -0.254386 -0.0767299 0.0428152 -0.963103 
3810 2 -729.601 237.433 -422.208 -0.873832 -0.228896 -0.111051 -0.414358 
3848 2 -719.703 194.132 -379.137 -0.287749 -0.87767 -0.257429 0.283947 
3809 2 -734.038 243.036 -428.972 -0.810079 -0.177946 -0.377733 0.411613 
3847 2 -716.952 200.638 -372.268 0.0841906 -0.267194 -0.879364 0.385016 
3846 2 -715.105 206.002 -364.161 0.228707 0.493536 -0.823008 0.163625 
1743 2 507.91 97.6413 -370.709 0.081871 -0.478844 0.869571 0.0886114 
1744 2 508.548 100.132 -380.289 0.0154134 0.445265 0.876713 0.181314 
1745 2 510.919 102.69 -389.623 -0.25574 0.940468 0.223708 -0.00851637 
1746 2 510.18 107.531 -398.112 -0.185184 0.795918 -0.522298 -0.243776 
1747 2 508.308 113.591 -405.712 0.131902 0.0105479 -0.938257 -0.319631 
1748 2 505.827 119.278 -413.357 0.18858 -0.769183 -0.599194 -0.117311 
1749 2 505.483 123.416 -422.226 0.202918 -0.935795 0.26979 0.10161 
1750 1 459.172 129.377 -415.393 0.84881 0.196898 0.0984407 0.48069 
1751 3 471.265 122.894 -383.134 0.840313 0.181514 0.113847 0.497962 
1752 2 420.631 133.164 -388.464 0.844218 -0.295898 0.285846 -0.343559 
1753 2 427.045 135.939 -381.351 0.856909 -0.00299991 0.209599 0.47092 
1754 2 430.68 137.796 -372.332 0.123667 0.16667 0.194655 0.958664 
1833 2 456.694 233.639 -368.903 0.953648 0.02836 -0.283929 -0.0955805 
1755 2 434.349 141.122 -363.747 -0.53746 0.268182 -0.180501 0.778867 
1806 2 401.971 125.169 -361.969 -0.884645 0.189295 -0.274803 0.32566 
4031 2 -953.003 253.325 -424.741 0.376449 -0.0794255 -0.36744 -0.846738 
4032 2 -954.626 259.805 -417.516 0.884782 -0.39631 -0.136422 -0.203686 
4067 2 -933.561 294.816 -476.059 -0.0520006 0.64869 -0.629374 -0.424718 
4066 2 -928.719 289.086 -469.68 -0.356863 0.896492 0.145372 -0.218674 
4033 2 -955.32 267.617 -411.498 0.718564 -0.186643 0.307275 0.595325 
3938 3 -845.109 263.634 -388.503 -0.805007 0.460245 0.222673 0.300924 
4065 2 -924.451 284.104 -462.29 -0.32476 0.451069 0.822608 0.119933 
4034 2 -953.284 273.897 -404.248 -0.135603 0.162186 0.330395 0.919862 
4035 2 -951.085 280.395 -397.172 -0.816214 0.385344 0.0507841 0.427464 
4064 2 -920.491 279.731 -454.355 -0.0640282 -0.358032 0.884724 0.29151 
4063 2 -916.254 275.54 -446.523 0.123054 -0.901027 0.302917 0.285042 
4036 2 -948.767 287.155 -390.264 -0.825465 0.25691 -0.36294 -0.347678 
4037 2 -944.627 293.938 -384.358 -0.17112 -0.152065 -0.429874 -0.873386 
4062 2 -910.575 272.748 -438.846 0.258268 -0.796861 -0.5039 0.210699 
4061 2 -905.145 270.69 -430.873 0.282742 -0.175766 -0.941337 -0.0552062 
4060 2 -898.955 271.149 -423.168 0.241646 0.633085 -0.703617 -0.213855 
4057 2 -886.724 268.877 -396.432 -0.0922301 -0.371955 0.917145 0.10949 
4058 2 -890.137 270.053 -405.672 -0.180861 0.570378 0.799918 -0.0457192 
4056 2 -883.664 267.265 -387.193 0.0704105 -0.941578 0.27333 0.183749 
4059 2 -893.659 271.526 -414.813 -0.0131154 0.956107 0.11877 -0.267545 
4055 2 -881.216 265.328 -377.799 0.131278 -0.833684 -0.535674 0.0281139 
4054 2 -879.095 263.814 -368.291 0.120653 -0.0168931 -0.98972 -0.0749168 
4038 2 -940.829 300.808 -378.356 0.667291 -0.379937 -0.229788 -0.59797 
3939 2 -825.562 260.362 -436.434 0.500956 -0.349722 -0.242088 -0.753745 
3940 2 -822.103 266.985 -429.965 0.868014 -0.482434 0.116631 -0.0143852 
4039 2 -937.875 307.988 -372.114 0.941675 -0.28632 0.101932 0.144498 
4040 2 -936.499 313.376 -363.948 0.416386 -0.0825196 0.415189 0.804631 
3948 2 -820.919 295.198 -365.762 0.834561 0.0395187 -0.200296 0.51169 
3941 2 -818.666 274.863 -425.199 0.694718 -0.224386 0.367561 0.576123 
3808 2 -739.925 248.822 -434.36 -0.165699 0.253286 -0.399749 0.865212 
3942 2 -815.656 281.851 -418.738 0.0326164 0.0652106 0.36785 0.927022 
3947 2 -818.023 297.231 -375.08 0.931732 0.124388 -0.115722 -0.320955 
3943 2 -814.785 288.986 -411.876 -0.662216 0.220837 0.16862 0.695894 
3944 2 -814.452 294.444 -403.671 -0.971947 0.195948 0.0636319 -0.11346 
3946 2 -817.033 298.893 -384.775 0.319141 0.0856895 0.0930022 -0.939232 
3945 2 -816.086 297.976 -394.531 -0.571787 0.0772351 -0.02663 -0.816324 
3807 2 -744.67 256.207 -439.197 0.584325 0.485878 -0.127762 0.63731 
3804 2 -758.37 281.226 -446.964 -0.284168 -0.451181 0.349991 -0.770189 
3805 2 -753.628 273.432 -443.111 0.372666 0.0252948 0.627863 -0.682839 
3802 1 -782.572 283.258 -406.487 -0.370491 0.361379 -0.474147 0.712268 
3806 2 -749.122 264.859 -441.094 0.779245 0.523255 0.33546 -0.080296 
3803 3 -752.714 267.42 -397.259 -0.343565 0.364277 -0.466929 0.728864 
3790 2 -682.705 282.32 -361.914 0.705988 0.0190034 -0.702576 0.0872158 
3791 2 -692.44 280.68 -361.805 0.432189 -0.534145 -0.330295 0.647153 
2074 1 451.823 306.695 -423.806 -0.309349 -0.0335554 -0.297525 -0.902583 
1914 2 502.134 291.575 -415.475 -0.885566 0.350067 -0.229021 -0.201929 
1915 2 505.201 298.83 -409.383 -0.451548 -0.0611027 -0.350907 -0.818068 
1916 2 508.869 303.921 -401.806 0.248867 -0.385416 -0.193161 -0.867299 
2073 2 467.53 348.831 -438.155 -0.244403 -0.771888 0.56934 0.142509 
2072 2 472.522 350.858 -429.811 -0.0567622 -0.953705 -0.137948 0.261141 
1917 2 513.894 309.435 -395.282 0.858122 -0.460554 0.123155 -0.190653 
1918 2 517.615 316.998 -390.046 0.702571 -0.0662719 0.516311 0.485206 
1919 2 523.643 323.151 -385.102 0.15288 0.448458 0.300553 0.827757 
2071 2 477.021 353.036 -421.299 0.123823 -0.517737 -0.819394 0.212626 
2070 2 479.566 357.27 -412.746 0.218456 0.343018 -0.895598 0.180333 
2076 2 439.598 275.195 -390.87 0.741349 -0.282075 -0.190523 -0.578392 
2075 3 461.145 322.352 -393.957 -0.336418 -0.0322253 -0.294101 -0.89403 
2069 2 481.404 360.854 -403.706 0.214929 0.958449 -0.181888 -0.0458 
2068 2 482.562 362.036 -393.925 0.0349117 0.719029 0.685785 -0.107137 
2067 2 484.479 362.629 -384.185 -0.126405 -0.0657554 0.989784 -0.00501515 
2077 2 439.506 281.361 -383.124 0.933808 -0.279702 0.0395614 0.219557 
2078 2 439.276 286.82 -374.858 0.409912 -0.295914 0.290177 0.81253 
1912 1 536.2 295.079 -447.876 -0.681171 -0.0432428 -0.333893 -0.650117 
1920 2 531.949 327.449 -381.705 -0.442094 0.71525 -0.181043 0.510092 
1921 2 540.905 331.848 -381.932 -0.652838 0.265646 -0.704114 -0.0863624 
2066 2 485.423 364.565 -374.422 -0.134573 -0.883371 0.448629 -0.0166857 
2079 2 437.268 293.598 -367.888 -0.376145 0.200465 0.430343 0.795697 
1922 2 548.986 337.329 -383.583 -0.292898 -0.37869 -0.716859 -0.50687 
1913 3 551.128 308.552 -419.255 -0.718375 0.0255751 -0.322254 -0.615984 
2065 2 487.027 367.457 -365.098 -0.0907831 -0.897649 -0.410646 0.131736 
2080 2 436.901 301.861 -362.337 -0.858428 0.491901 0.085532 0.117555 
1923 2 556.762 342.94 -386.028 0.300295 -0.723883 -0.182837 -0.593622 
1924 2 564.044 349.604 -386.998 0.560358 -0.679421 0.460406 -0.111411 
1902 2 593.141 305.413 -377.75 -0.0162612 -0.0406295 0.998947 -0.0137982 
1903 2 592.554 305.39 -387.65 0.048558 0.672512 0.738407 0.0111622 
1904 2 593.711 305.521 -397.54 0.0355184 0.997497 -0.0247886 0.0558891 
1905 2 594.416 304.761 -407.345 0.0493694 0.588338 -0.80379 0.0730911 
1906 2 595.018 303.198 -417.057 0.0222334 -0.257306 -0.959891 0.109126 
1911 2 579.486 306.737 -462.662 -0.0962001 0.976664 -0.0519527 -0.184863 
1908 2 591.666 301.363 -436.308 0.000490202 -0.85366 0.423207 0.303579 
1907 2 594.082 301.176 -426.73 0.0459137 -0.881234 -0.458406 0.10575 
1909 2 586.868 304.153 -444.52 -0.212437 -0.271094 0.935756 0.0757578 
1910 2 582.801 304.606 -453.523 -0.20871 0.628447 0.749053 -0.0203613 
1925 2 571.114 355.755 -390.326 0.421037 0.0472796 0.849221 0.315144 
1926 2 578.674 360.599 -394.392 0.0941224 0.668519 0.41713 0.608462 
1927 2 587.361 364.733 -396.832 -0.49401 0.734205 -0.277469 0.374043 
1928 2 595.493 369.77 -399.356 -0.689323 0.202827 -0.689023 -0.0945617 
1929 2 604.546 373.534 -400.319 -0.44717 -0.501841 -0.559586 -0.484828 
1930 2 614.346 374.493 -401.267 0.133316 -0.767085 -0.0407926 -0.626213 
1901 2 593.229 303.988 -367.979 0.0609658 -0.80803 0.577811 0.0974926 
1949 2 660.155 337.302 -373.193 0.663443 -0.152557 -0.565684 -0.465373 
1948 2 667.376 331.497 -376.679 0.137914 0.410469 -0.441166 -0.786045 
1940 3 688.399 367.107 -397.318 -0.0944277 -0.327466 -0.0468439 0.938965 
1947 2 675.444 327.257 -380.583 -0.57082 0.528671 0.117993 -0.617049 
1946 2 684.255 324.409 -384.083 -0.820714 0.128163 0.551475 0.0766702 
1950 2 653.534 344.243 -370.862 0.754559 -0.606063 -0.209728 0.139075 
1951 2 648.945 352.828 -369.165 0.413933 -0.496388 0.484425 0.589568 
1931 2 623.684 376.81 -403.537 0.538937 -0.542811 0.613711 -0.195608 
1945 2 693.225 323.038 -387.896 -0.489788 -0.413516 0.37293 0.670846 
1932 2 632.223 380.328 -407.22 0.516247 0.18073 0.7385 0.394262 
1933 2 641.344 383.97 -408.739 -0.00881397 0.738947 0.216003 0.63814 
1934 2 650.505 386.794 -411.149 -0.522266 0.625512 -0.5049 0.284692 
2019 2 595.611 378.574 -367.116 0.404336 0.822147 -0.377483 -0.134514 
1944 2 702.328 324.631 -391.539 0.09874 -0.555986 -0.193283 0.802354 
1935 2 659.351 390.397 -413.809 -0.370015 0.0654724 -0.885738 -0.272524 
1955 2 659.115 389.731 -370.401 -0.475617 0.0374529 -0.705887 -0.523555 
1952 2 647.788 362.673 -368.864 -0.0874087 0.236308 0.644931 0.721514 
1954 2 653.36 381.698 -370.018 -0.696091 0.573514 -0.430394 -0.0360659 
1956 2 665.619 397.164 -370.514 0.0702862 -0.637708 -0.447586 -0.62294 
1953 2 649.905 372.458 -368.838 -0.513133 0.756813 0.188507 0.358321 
1936 2 665.628 395.641 -419.383 -0.0443824 -0.611715 -0.558913 -0.558079 
1943 2 710.837 327.74 -395.595 0.721534 -0.145418 -0.520799 0.432449 
1939 1 709.803 372.553 -424.432 -0.11473 -0.323314 -0.0707008 0.936647 
1942 2 719.103 330.985 -400.062 0.834906 0.303744 -0.403984 -0.217871 
1941 2 727.494 333.658 -404.488 0.273445 0.529406 -0.00782761 -0.803054 
1957 2 672.803 403.607 -372.671 0.403948 -0.789841 0.347226 -0.30399 
1938 2 678.563 407.771 -427.953 0.512327 -0.453539 0.718376 0.125542 
1937 2 672.714 401.05 -423.606 0.410754 -0.852257 0.101063 -0.307775 
1958 2 680.551 407.54 -377.401 0.370681 -0.322523 0.867094 0.0819927 
1959 2 686.985 411.059 -384.125 0.233341 0.519206 0.751565 0.333358 
1960 2 693.792 413.625 -390.827 -0.163976 0.891546 0.0156791 0.421915 
1961 2 701.096 417.22 -396.397 -0.47064 0.530634 -0.703592 0.0434064 
1962 2 708.095 421.588 -402.017 -0.325068 -0.209591 -0.869582 -0.30697 
1963 2 714.933 425.77 -407.839 0.0337301 -0.782146 -0.311697 -0.538474 
1967 3 736.24 419.982 -368.395 0.612969 0.568501 -0.0166744 -0.548451 
1966 1 758.341 443.727 -381.431 0.59699 0.593039 0.0380138 -0.538946 
1965 2 729.294 434.915 -417.576 0.418972 -0.125143 0.866513 0.240743 
1964 2 722.679 429.453 -412.65 0.467901 -0.748477 0.432385 -0.184103 
1695 2 382.888 54.147 -263.085 0.316113 0.77304 -0.425687 -0.348243 
1696 1 394.601 54.925 -308.793 -0.533286 0.422615 -0.303365 0.667062 
1694 2 390.956 55.6578 -257.579 -0.103558 0.812826 0.357541 -0.448056 
1693 2 399.309 57.1601 -252.58 -0.44234 0.306064 0.801993 -0.259747 
1742 2 508.753 95.8293 -361.033 0.0987328 -0.973569 0.194288 0.0683204 
1800 2 469.465 58.7984 -358.792 -0.459441 -0.556793 0.680558 0.125447 
1692 2 407.981 60.0197 -248.831 -0.536103 -0.423707 0.715728 0.144221 
1691 2 417.565 62.4677 -247.769 -0.227413 -0.717966 0.0707792 0.654063 
1799 2 473.889 63.065 -351.025 -0.253392 -0.940124 -0.036831 0.224951 
1690 2 427.038 64.9899 -247.631 0.453384 -0.429605 -0.556157 0.548244 
1798 2 476.136 69.0313 -343.403 -0.0452939 -0.452372 -0.812824 0.364178 
1697 3 425.609 55.9824 -292.569 -0.575343 0.411138 -0.270013 0.653482 
1797 2 476.24 76.7883 -337.221 0.227268 0.461564 -0.764358 0.38867 
1796 2 476.587 84.7863 -331.409 0.472367 0.875664 -0.0931276 0.0375501 
1795 2 475.615 92.7982 -325.558 0.334165 0.669039 0.60372 -0.276121 
1698 2 425.225 59.8637 -344.316 -0.636767 0.301933 -0.350971 0.61659 
1699 2 433.111 59.8139 -338.317 -0.841158 -0.136222 -0.515502 -0.0902996 
1700 2 441.898 58.1067 -334.133 -0.478162 -0.522235 -0.11029 -0.697472 
1688 2 444.083 71.6649 -255.147 0.544276 0.53707 -0.0938068 -0.63759 
1689 2 435.872 67.6792 -251.352 0.815152 0.232073 -0.52888 -0.044231 
1701 2 450.007 54.4205 -329.858 0.304196 -0.367807 0.247232 -0.843243 
1702 2 457.286 53.232 -323.291 0.907703 -0.0831961 0.350408 -0.215332 
1704 2 470.777 54.1678 -308.923 -0.0694878 0.44849 0.0976738 0.885713 
1705 2 478.655 56.3883 -303.339 -0.737289 0.324549 -0.281066 0.521608 
1703 2 463.695 53.3585 -315.746 0.710973 0.221494 0.351469 0.567386 
1706 2 486.22 57.9466 -297.133 -0.778209 0.0971398 -0.562749 -0.261281 
1707 2 494.589 62.062 -293.714 -0.175379 -0.376467 -0.377389 -0.827703 
1708 2 502.232 66.9495 -289.699 0.577563 -0.533087 0.154963 -0.598519 
1709 2 510.024 71.8689 -286.118 0.82781 -0.205124 0.502983 0.140222 
1687 2 452.437 76.756 -256.482 -0.100956 0.510598 0.414324 -0.746614 
1710 2 517.932 76.7625 -282.829 0.395187 0.323247 0.654691 0.557421 
1617 2 539.266 -17.813 -230.681 0.510984 0.0952807 -0.354582 -0.777232 
1711 2 526.576 81.5999 -283.3 -0.172857 0.712202 0.273429 0.622997 
1618 2 533.945 -13.4345 -223.593 0.888036 -0.3432 -0.30495 -0.0247299 
1712 2 534.668 87.1698 -284.912 -0.685111 0.626204 -0.324779 0.181687 
1713 2 541.505 94.3687 -285.621 -0.512968 -0.0441005 -0.708664 -0.482404 
1619 2 528.549 -7.4022 -218.016 0.623958 -0.461908 0.035084 0.629354 
1686 2 459.106 83.7258 -254.396 -0.497567 -0.112413 0.77584 -0.3713 
1620 2 523.728 -1.19751 -211.975 -0.0104803 -0.142487 0.388558 0.910281 
1741 2 511.917 94.0089 -351.809 0.214745 -0.726058 -0.650874 0.0555574 
1740 2 512.223 93.7471 -341.97 0.0411946 0.0998924 -0.993152 -0.0444147 
1739 2 513.76 94.3367 -332.203 0.0620076 0.83354 -0.546037 -0.0566559 
1685 2 463.772 91.729 -250.699 -0.537454 -0.76599 0.350061 0.0431237 
1615 1 578.315 8.52128 -233.117 0.516532 -0.312563 -0.0254497 0.796776 
1614 2 608.138 41.417 -217.081 0.163983 -0.467294 0.853575 -0.161725 
3978 2 -917.828 245.851 -360.524 -0.244454 -0.950979 -0.123815 0.143359 
4001 2 -968.617 245.667 -357.146 -0.0120944 0.92782 0.357897 -0.104467 
3935 2 -859.24 230.037 -357.137 -0.470667 -0.781096 0.384939 0.142068 
3992 3 -951.763 202.31 -352.175 -0.0516583 0.0473882 -0.889764 -0.451006 
3934 2 -852.391 236.006 -353.124 -0.169157 -0.779856 -0.316356 0.512961 
3933 2 -845.817 241.072 -347.705 0.274862 -0.264075 -0.856875 0.347104 
3991 1 -954.372 172.672 -333.738 -0.0709743 0.0413605 -0.87132 -0.483791 
3993 2 -942.994 204.786 -301.126 -0.463206 0.649926 0.56922 0.197546 
3994 2 -946.272 212.933 -305.679 -0.40104 0.872096 0.0441994 -0.276878 
3995 2 -951.139 220.234 -310.229 -0.258871 0.614076 -0.654712 -0.35672 
3997 2 -954.66 235.226 -322.677 0.334665 -0.742489 -0.571008 -0.103247 
3996 2 -952.642 227.787 -316.442 0.15103 -0.0313748 -0.895971 -0.416463 
3963 2 -867.566 206.464 -262.656 0.123271 -0.154903 -0.200324 0.959521 
3962 2 -863.623 210.082 -270.95 0.764538 0.0242102 -0.260315 0.589179 
3961 2 -857.704 213.547 -278.141 0.897375 0.274068 -0.256847 -0.23159 
3960 2 -853.137 218.972 -285.067 0.421338 0.393237 0.152352 -0.802887 
3959 2 -850.057 225.067 -292.144 -0.37794 0.0277664 0.385237 -0.841417 
3958 2 -847.369 232.323 -298.262 -0.854709 -0.385477 0.226463 -0.263806 
3957 2 -844.556 240.328 -303.303 -0.710403 -0.491368 -0.114735 0.490633 
3998 2 -956.693 240.942 -330.608 0.115956 -0.944073 0.129325 0.280276 
3999 2 -961.246 244.458 -338.745 -0.119613 -0.487177 0.853699 0.139817 
3964 1 -891.097 245.021 -249.056 0.166156 -0.368301 0.914738 -0.00128562 
3932 2 -838.156 246.269 -344.217 0.567983 0.401004 -0.718707 0.00719669 
4000 2 -964.749 245.58 -347.952 -0.20792 0.348948 0.9112 -0.0686977 
3956 2 -841.836 248.322 -308.346 -0.091029 -0.205499 -0.45203 0.863222 
3817 2 -728.983 225.356 -356.819 -0.838862 0.106629 0.348195 -0.4046 
3828 2 -813.848 216.76 -297.169 0.851698 -0.300875 -0.362401 0.229674 
3845 2 -713.451 210.286 -355.452 0.208498 0.97048 -0.0904883 -0.08068 
3857 3 -755.349 180.532 -354.847 0.325011 0.00881768 0.786349 0.525305 
3844 2 -712.621 214.27 -346.358 0.0609675 0.670783 0.71952 -0.169188 
3856 1 -772.951 151.036 -348.281 0.358084 -0.0200413 0.750477 0.555121 
3843 2 -712.071 216.822 -336.832 -0.0560801 -0.236208 0.960872 -0.133363 
3842 2 -713.707 218.511 -327.183 -0.0637685 -0.92435 0.354769 -0.125099 
3841 2 -715.564 221.021 -317.83 -0.144318 -0.885367 -0.440931 -0.0296248 
3818 2 -734.996 224.721 -348.896 -0.300721 0.355084 0.206158 -0.860802 
3840 2 -717.021 224.595 -308.698 -0.162198 -0.206879 -0.939908 0.217867 
3819 2 -742.444 222.832 -342.692 0.505782 0.394195 -0.194382 -0.742301 
3820 2 -750.533 222.009 -336.875 0.882032 0.240889 -0.40476 -0.0126834 
3821 2 -757.219 217.868 -330.808 0.564199 -0.231991 -0.520061 0.597826 
3822 2 -765.837 214.384 -327.448 0.0394168 -0.535227 -0.190488 0.822006 
3858 2 -775.928 174.883 -307.688 0.637169 -0.211631 0.70371 0.232423 
3859 2 -767.98 180.869 -308.646 0.201941 0.44676 0.622788 0.609722 
3860 2 -759.549 185.965 -309.553 -0.394437 0.638413 0.0331975 0.660111 
3861 2 -751.363 191.298 -307.97 -0.853288 0.282665 -0.40298 0.172071 
3862 2 -743.171 194.454 -303.402 -0.720942 -0.0619911 -0.385299 -0.572664 
3863 2 -737.269 198.068 -296.391 -0.0553553 -0.326796 -0.173359 -0.927409 
3864 2 -731.44 200.964 -288.998 0.718391 -0.339977 0.215366 -0.567405 
3865 2 -724.442 203.207 -282.315 0.905551 -0.00891783 0.39339 0.158564 
3866 2 -716.859 204.546 -276.093 0.408073 0.427259 0.26992 0.760309 
3826 2 -799.799 210.07 -309.352 0.0747923 0.384624 -0.197945 -0.898492 
3825 2 -792.42 209.152 -315.904 -0.547004 0.360806 0.232752 -0.718632 
3824 2 -783.755 209.893 -320.793 -0.861308 0.019629 0.501469 -0.0793281 
3823 2 -774.566 211.139 -324.163 -0.541658 -0.454616 0.36294 0.606799 
3827 2 -806.736 213.222 -302.988 0.705867 0.0675422 -0.449499 -0.543268 
3830 3 -764.406 220.9 -281.99 -0.284475 -0.482489 -0.798124 -0.221983 
3838 2 -719.647 232.098 -290.722 0.14977 0.979017 0.1123 0.0805247 
3839 2 -717.795 229.242 -299.966 0.0933359 0.607063 -0.755601 0.227661 
3829 1 -788.958 219.161 -257.137 -0.2808 -0.492121 -0.785227 -0.249773 
3837 2 -720.963 234.003 -281.102 0.125325 0.557879 0.816858 -0.0762071 
3867 2 -708.295 205.184 -271.091 -0.205372 0.381101 -0.221125 0.873893 
3868 2 -700.194 203.404 -265.632 -0.780163 0.229278 -0.406352 0.41672 
3869 2 -692.404 203.775 -259.67 -0.806369 -0.0752075 -0.412218 -0.41736 
3870 2 -685.057 205.85 -253.334 -0.257144 -0.37176 -0.368153 -0.812487 
3831 2 -748.896 222.825 -232.471 -0.0739434 0.904245 0.283268 0.310856 
3832 2 -743.209 225.647 -240.064 -0.375248 0.746619 -0.495917 0.236255 
3833 2 -736.328 229.164 -246.176 -0.275087 -0.0327863 -0.947763 -0.158106 
3834 2 -731.067 232.322 -253.907 -0.0712011 -0.785453 -0.547714 -0.279291 
3836 2 -723.036 235.222 -271.503 0.0640014 -0.316081 0.94128 -0.0999404 
3871 2 -677.217 209.828 -248.7 0.456193 -0.525323 0.0753741 -0.714313 
3835 2 -726.329 234.401 -262.267 0.080932 -0.964969 0.214275 -0.127948 
3872 2 -669.466 214.005 -244.143 0.882117 -0.298172 0.359696 -0.0598479 
3873 2 -662.727 218.223 -238.412 0.623812 0.0930026 0.464972 0.621297 
3874 2 -655.891 222.498 -232.777 -0.140154 0.433354 0.18967 0.86982 
3875 2 -648.87 227.106 -227.564 -0.724475 0.356824 -0.310899 0.501152 
3876 2 -641.259 229.589 -221.761 -0.841287 -0.00397865 -0.455233 -0.291519 
3877 2 -633.415 232.121 -216.371 -0.213725 -0.456467 -0.414859 -0.75753 
3878 2 -624.858 236.17 -213.656 0.55447 -0.572441 0.112163 -0.593543 
3879 2 -617.105 241.361 -210.465 0.740608 -0.467355 0.482535 0.0154592 
3880 2 -610.239 248.355 -209.333 0.437807 -0.0141539 0.670059 0.599288 
1805 3 445.315 96.5421 -360.939 0.826997 -0.194032 0.513777 0.120254 
1834 2 451.54 233.264 -360.44 0.652492 -0.135949 -0.159481 0.728243 
1794 2 474.681 101.592 -320.928 -0.0171206 -0.0641069 0.842027 -0.535339 
1738 2 514.767 97.2189 -322.757 0.143057 0.920779 0.349179 -0.0988681 
1714 2 548.936 100.858 -285.476 0.0238206 -0.561514 -0.506851 -0.653634 
1793 2 474.195 110.025 -315.812 -0.375047 -0.665504 0.555946 -0.32767 
1756 2 440.293 140.6 -355.793 -0.912313 0.0121269 -0.396852 0.100229 
1737 2 513.658 101.726 -313.984 0.15687 0.307751 0.920001 -0.185146 
1736 2 512.268 105.848 -305.148 -0.0280911 -0.488724 0.840828 -0.231014 
1792 2 474.236 118.791 -311.23 -0.4925 -0.822633 -0.237217 0.156355 
1735 2 510.545 110.326 -296.517 -0.197774 -0.954063 0.180917 -0.133857 
1684 2 467.993 99.9484 -247.02 -0.350534 -0.715742 -0.365553 0.480842 
1734 2 510.661 115.864 -288.197 -0.171871 -0.669823 -0.679524 0.245039 
1807 2 407.868 126.954 -354.272 -0.798641 -0.0131987 -0.357022 -0.484288 
1733 2 511.268 119.693 -279.095 0.0730726 0.0859911 -0.978676 0.171638 
1808 2 413.287 130.024 -346.636 -0.240732 -0.302525 -0.254872 -0.886322 
1791 2 473.765 127.936 -307.427 -0.213293 -0.303216 -0.77638 0.509706 
1809 2 419.925 132.869 -339.95 0.569924 -0.367857 -0.144721 -0.720363 
1810 2 423.748 138.902 -333.095 0.927101 -0.333462 0.171126 0.0015611 
1811 2 427.06 145.347 -326.347 0.486987 -0.0716414 0.468083 0.7339 
1757 2 447.469 139.209 -349.029 -0.627189 -0.392072 -0.269587 -0.616633 
1758 2 455.426 137.746 -343.194 0.236597 -0.61927 0.0449199 -0.747334 
1759 2 464.77 139.634 -340.964 0.761852 -0.355542 0.494668 -0.220173 
1760 2 473.842 142.853 -338.672 0.680212 0.19364 0.555193 0.437694 
1761 2 483.142 144.796 -336.237 0.10821 0.664975 0.209573 0.708645 
1762 2 492.861 146.199 -335.648 -0.447082 0.519459 -0.39845 0.609523 
1812 2 430.97 152.664 -321.056 -0.212017 0.332203 0.40184 0.826568 
1813 2 434.367 160.41 -315.836 -0.844805 0.435377 -0.038152 0.308701 
1814 2 438.059 167.495 -309.909 -0.787136 0.193706 -0.360644 -0.461337 
1815 2 442.514 173.545 -303.345 -0.158633 -0.190457 -0.363557 -0.897991 
1816 2 446.554 179.865 -296.855 0.549482 -0.455769 -0.218653 -0.665234 
1817 2 450.24 187.737 -292.104 0.856882 -0.461562 0.222993 0.0546557 
1820 2 463.832 210.524 -280.233 -0.561964 0.651801 -0.0512826 0.506677 
1821 2 470.682 217.541 -278.682 -0.761948 0.379544 -0.48793 -0.193147 
1818 2 453.889 195.206 -286.738 0.504658 -0.11549 0.51851 0.680536 
1819 2 457.481 203.156 -282.123 -0.104737 0.467683 0.405678 0.778286 
1790 2 472.823 137.632 -305.509 0.311701 0.412098 -0.633383 0.576059 
1789 2 476.141 146.573 -303.014 0.591231 0.770459 -0.233087 -0.0500907 
1788 2 479.142 155.493 -300.053 0.345229 0.649555 0.455118 -0.50176 
1787 2 483.268 164.21 -297.963 -0.209834 0.0494926 0.774852 -0.594243 
1785 2 492.739 180.848 -293.343 -0.454251 -0.745602 -0.230474 0.429669 
1786 2 487.545 172.576 -295.005 -0.5744 -0.613107 0.5236 -0.14145 
1784 2 498.173 189.139 -293.291 0.0144084 -0.355577 -0.591902 0.723194 
1782 2 505.501 206.863 -297.38 0.78872 0.562048 -0.113344 -0.221756 
1783 2 501.712 198.242 -294.226 0.556591 0.317904 -0.611026 0.464532 
1732 2 513.581 125.221 -271.218 0.313301 0.802426 -0.50104 0.0831468 
1731 2 513.12 132.695 -264.683 0.414821 0.82305 0.348673 -0.170114 
1730 2 513.856 139.462 -257.463 0.0556222 0.224631 0.892838 -0.386378 
1729 2 515.969 145.446 -249.896 -0.303157 -0.587211 0.720528 -0.210042 
1728 2 518.227 152.915 -243.833 -0.409929 -0.900087 -0.0237225 0.145732 
1673 2 478.408 202.765 -232.118 0.507044 0.361632 0.501931 -0.600161 
1674 2 478.713 193.062 -230.16 0.785511 0.614025 0.0278519 0.0719034 
1675 2 480.056 183.412 -228.365 0.446338 0.381813 -0.503495 0.633635 
1676 2 480.553 173.708 -226.705 -0.201482 -0.137906 -0.637585 0.730665 
1677 2 481.008 163.828 -225.956 -0.585046 -0.731095 -0.187312 0.296878 
1678 2 478.605 154.412 -227.812 -0.54879 -0.659407 0.451029 -0.246139 
1679 2 476.866 144.899 -229.999 -0.202329 -0.150883 0.766832 -0.590141 
1680 2 475.284 135.463 -232.5 0.353458 0.490357 0.628261 -0.489802 
1725 2 531.149 173.655 -228.167 0.429703 0.779628 -0.443378 -0.104648 
1726 2 525.911 168.929 -235.054 0.335698 0.198066 -0.835683 0.386925 
1727 2 522.011 161.065 -239.654 -0.108248 -0.508713 -0.673269 0.525549 
1781 2 509.452 215.543 -299.96 0.314656 0.441135 0.423251 -0.72612 
1672 2 478.392 211.777 -236.341 -0.278519 -0.134856 0.498606 -0.809712 
1671 2 478.554 219.733 -242.186 -0.803531 -0.40248 0.238554 -0.368023 
1866 2 466.779 223.735 -217.097 0.36126 -0.854635 -0.359903 -0.0977721 
1780 2 514.042 223.996 -302.377 -0.340366 0.0488404 0.582619 -0.736424 
1779 2 518.133 232.663 -304.513 -0.775201 -0.471941 0.390648 -0.154046 
1681 2 474.351 125.763 -234.524 0.520825 0.839956 -0.100389 -0.11462 
1683 2 470.861 108.827 -243.862 0.0945517 -0.123741 -0.793223 0.588682 
1682 2 472.02 117.111 -238.657 0.353787 0.525443 -0.706415 0.315788 
1763 2 502.644 146.265 -334.542 -0.765818 0.0769187 -0.638172 0.018492 
1867 2 465.992 230.44 -224.334 0.440833 -0.797962 0.405778 0.0653156 
1764 2 512.276 148.14 -333.062 -0.429359 -0.509673 -0.404793 -0.62612 
1765 2 522.063 148.802 -331.332 0.279284 -0.582219 0.159126 -0.746793 
1766 2 531.239 149.235 -327.632 0.729594 -0.245376 0.590536 -0.242386 
1822 2 476.934 224.904 -276.44 -0.201133 -0.213317 -0.658574 -0.693052 
1823 2 482.799 232.785 -276.318 0.288788 -0.819684 -0.0441512 -0.492717 
1767 2 540.888 150.222 -325.839 0.694704 0.28519 0.42392 0.506305 
1868 2 468.102 237.929 -230.365 0.0890498 -0.273977 0.870848 0.398284 
1824 2 490.732 237.987 -279.566 0.54904 -0.567933 0.601894 -0.117179 
1778 3 547.727 190.687 -296.888 -0.514028 -0.429991 0.677335 -0.30348 
1768 2 549.828 150.522 -321.555 -0.027469 0.561651 0.136 0.815658 
1869 2 467.771 245.501 -236.71 -0.167844 0.551948 0.746157 0.332313 
1835 2 447.319 232.793 -351.569 -0.0380983 -0.284476 -0.0377994 0.95718 
1836 2 441.606 232.028 -343.51 -0.722493 -0.101294 0.139347 0.669571 