ITEM: TIMESTEP
10000000
ITEM: NUMBER OF ATOMS
4067
ITEM: BOX BOUNDS pp pp pp
-4.6310929470000001e+03 4.6704658980000004e+03
-4.6310929470000001e+03 4.6704658980000004e+03
-4.6310929470000001e+03 4.6704658980000004e+03
ITEM: ATOMS id type x y z c_q[1] c_q[2] c_q[3] c_q[4] 
2558 2 -109.373 239.551 -822.577 0.286323 -0.670657 0.396324 0.557822 
2559 2 -114.759 247.631 -824.626 -0.265833 -0.122778 0.76345 0.575676 
2557 2 -103.944 231.465 -820.522 0.623379 -0.724177 -0.211154 0.205867 
2515 2 -111.724 67.91 -696.501 -0.291975 0.0800354 0.859996 0.410795 
2514 2 -107.675 62.4863 -689.279 0.141905 -0.743085 0.536232 0.374357 
2513 2 -103.075 55.2515 -684.327 0.490017 -0.828733 -0.166445 0.21303 
2512 2 -98.0049 48.0926 -679.835 0.456453 -0.353875 -0.777677 -0.248277 
2511 2 -92.0104 40.4079 -678.848 0.180152 0.287507 -0.657631 -0.672611 
2516 2 -115.618 75.3044 -701.821 -0.503296 0.7656 0.387898 0.100421 
2454 2 -183.028 27.413 -675.626 0.405904 -0.343444 -0.206756 -0.821304 
2455 2 -179.255 33.71 -668.962 0.754667 -0.534193 0.326845 -0.19567 
2507 3 -76.1453 41.8194 -717.421 0.0752069 -0.2976 0.644322 0.700448 
2506 1 -64.817 8.70489 -717.085 0.116382 -0.280384 0.68507 0.662207 
2510 2 -85.3189 33.2769 -677.677 -0.412225 0.724816 -0.121856 -0.53839 
2517 2 -118.127 83.4525 -706.678 -0.365954 0.803166 -0.32015 -0.344249 
2509 2 -81.4427 24.7495 -674.51 -0.582324 0.653347 0.460882 0.147052 
2508 2 -76.3874 16.5897 -672.053 -0.371792 0.154158 0.79672 0.450825 
2497 2 -61.6063 86.7306 -727.096 0.357059 0.905989 -0.186843 0.12955 
2498 2 -60.7999 80.079 -734.22 0.123693 0.395511 -0.873092 0.256868 
2518 2 -121.235 91.381 -711.639 0.0914511 0.277067 -0.839173 -0.458976 
2499 2 -60.54 74.2157 -742.119 -0.181633 -0.35316 -0.879973 0.260644 
2500 2 -58.9043 68.2581 -749.837 -0.444867 -0.867356 -0.216315 0.0547272 
2496 2 -61.5575 92.4126 -718.949 0.216048 0.727768 0.632543 -0.153511 
2501 2 -58.0063 60.7047 -756.058 -0.445665 -0.610778 0.523862 -0.392301 
2502 2 -58.0133 50.9225 -758.154 -0.0257746 0.0554939 0.705948 -0.705615 
2503 2 -58.7937 41.0954 -758.695 0.513465 0.634695 0.46481 -0.342736 
2505 2 -59.068 21.69 -762.124 0.287353 0.294448 -0.695922 0.588576 
2504 2 -58.4478 31.4013 -760.599 0.646008 0.712837 -0.215046 0.168204 
2556 2 -99.714 223.868 -815.757 0.402933 -0.365349 -0.781976 -0.304432 
2495 2 -61.1299 98.1992 -710.926 -0.00964655 0.0202086 0.952664 -0.303199 
2555 2 -95.9186 216.15 -810.834 -0.0154059 0.39846 -0.765085 -0.505606 
2554 2 -93.0473 208.774 -804.843 -0.375832 0.894279 -0.109328 -0.21694 
2553 2 -93.7283 201.867 -797.84 -0.266993 0.755478 0.536592 0.264645 
2519 2 -124.834 98.7419 -717.283 0.409755 -0.544709 -0.67619 -0.279573 
2560 1 -153.173 238.127 -798.988 -0.715816 -0.444717 -0.179785 -0.507456 
2521 2 -126.36 116.074 -725.998 0.380858 -0.497906 0.627523 0.461792 
2522 2 -126.273 125.396 -729.486 -0.162554 0.136685 0.772012 0.599075 
2561 3 -127.514 222.718 -780.819 -0.700548 -0.456936 -0.153149 -0.526296 
2562 2 -176.088 217.258 -763.501 0.126944 -0.324392 0.0332541 -0.936776 
2523 2 -127.022 134.929 -732.096 -0.487458 0.715051 0.456539 0.206539 
2524 2 -128.124 143.849 -736.441 -0.579755 0.727191 -0.127423 -0.344732 
2527 2 -132.652 171.823 -743.523 0.715456 -0.681326 -0.153221 0.0209751 
2526 2 -132.561 162.272 -740.97 0.347918 -0.474504 -0.64385 -0.489139 
2525 2 -131.928 152.932 -737.661 -0.210683 0.310186 -0.744722 -0.552075 
2528 2 -134.275 181.546 -742.713 0.486761 -0.498862 0.493031 0.520693 
2529 2 -134.733 191.43 -742.552 -0.103038 0.118096 0.628605 0.761769 
2530 2 -134.445 201.126 -740.668 -0.641721 0.556752 0.304532 0.430675 
2532 2 -131.845 220.268 -736.083 -0.367548 0.177525 -0.591486 -0.695369 
2531 2 -133.634 210.79 -738.617 -0.779061 0.561543 -0.234772 -0.150386 
2533 1 -111.932 215.236 -693.589 0.48518 0.778093 0.372739 -0.14226 
2534 3 -108.12 183.613 -708.028 0.493627 0.753438 0.395847 -0.178798 
2565 2 -155.104 223.371 -744.921 0.114309 0.400413 0.433259 0.799306 
2564 2 -163.46 219.345 -748.439 0.734725 0.0437072 0.560937 0.37897 
2563 2 -169.78 217.381 -755.89 0.790134 -0.246077 0.2838 -0.484347 
2552 2 -94.7438 195.449 -790.452 0.00606658 0.142937 0.920964 0.362434 
2550 2 -95.1614 183.166 -775.246 0.299114 -0.945821 -0.125406 -0.0150391 
2551 2 -96.2433 188.742 -783.347 0.312577 -0.603461 0.696674 0.229729 
2549 2 -93.5429 176.367 -768.156 0.248782 -0.433834 -0.82505 -0.263036 
2548 2 -90.8326 170.449 -760.661 0.043866 0.325065 -0.88964 -0.317725 
2520 2 -127.448 107.032 -722.128 0.540331 -0.838477 -0.0163755 -0.0687765 
2566 2 -147.839 229.622 -742.625 -0.64232 0.46192 -0.0683417 0.60777 
2547 2 -88.2642 165.312 -752.661 -0.235605 0.880943 -0.326549 -0.248587 
2546 2 -85.1864 160.59 -744.505 -0.274758 0.790238 0.547744 0.00301208 
2545 2 -81.8663 155.818 -736.518 -0.214789 0.108833 0.938485 0.247523 
2544 2 -80.4719 150.874 -727.961 0.114934 -0.647814 0.713723 0.240263 
2543 2 -79.007 148.99 -718.34 0.115224 -0.980024 -0.132449 0.0934481 
2542 2 -78.3376 149.077 -708.476 0.0559702 -0.54793 -0.834503 0.0156581 
2541 2 -77.975 150.297 -698.676 0.0675089 0.32727 -0.94183 0.0359549 
2537 2 -87.754 173.48 -669.425 -0.22872 -0.66768 0.58889 -0.393826 
2538 2 -85.2849 165.893 -675.26 0.198573 0.093758 0.910761 -0.349703 
2539 2 -82.1091 158.892 -681.488 0.298969 0.765357 0.569896 0.00800346 
2540 2 -78.8851 153.882 -689.49 0.160422 0.926351 -0.316801 0.125604 
2567 2 -141.118 234.98 -737.631 -0.837245 0.121185 -0.497377 -0.192228 
2568 2 -133.152 238.893 -733.255 -0.496456 -0.321117 -0.401169 -0.699628 
2569 2 -124.601 241.344 -728.862 0.143868 -0.560328 0.0170408 -0.815503 
2494 2 -60.1067 103.465 -702.576 -0.262532 -0.702318 0.652439 -0.110224 
2492 2 -59.1079 116.525 -687.741 -0.159781 -0.328427 -0.8428 0.39534 
2493 2 -59.3774 109.739 -694.876 -0.355717 -0.913273 -0.17077 0.101169 
2491 2 -59.6488 124.146 -681.433 0.222181 0.527608 -0.744137 0.344275 
2490 2 -60.6946 130.209 -673.667 0.317508 0.940934 -0.0889668 0.0769261 
2570 2 -115.462 243.15 -725.325 0.71465 -0.327073 0.491168 -0.375569 
2571 2 -106.28 244.658 -721.933 0.747977 0.201967 0.507574 0.376972 
2572 2 -97.2792 245.559 -717.926 0.182179 0.488246 0.175766 0.835184 
2573 2 -88.7953 247.272 -713.096 -0.517269 0.463049 -0.17897 0.697129 
2586 2 13.7983 199.007 -720.749 0.27871 0.873148 -0.146266 0.372209 
2585 2 8.06711 205.157 -715.418 0.47976 0.623877 0.616819 -0.0119631 
2584 2 3.20774 212.063 -710.115 0.258788 -0.0231847 0.877901 -0.402221 
2583 2 -3.25008 218.943 -707.129 -0.147007 -0.699547 0.403675 -0.571025 
2587 1 12.0547 215.783 -764.824 0.872788 -0.400004 -0.276421 0.0427567 
2582 2 -9.81421 226.056 -704.721 -0.589994 -0.71969 -0.313603 -0.188698 
2581 2 -17.968 231.055 -702.371 -0.578362 -0.15357 -0.776652 0.196786 
2580 2 -26.5631 235.616 -700.933 -0.217827 0.509205 -0.522236 0.648484 
2588 3 -5.15436 240.05 -746.377 0.880512 -0.408078 -0.233308 0.0611369 
2579 2 -34.1365 242.03 -700.141 0.421916 0.738017 -0.0105893 0.526503 
2578 2 -42.6883 246.833 -700.747 0.725477 0.337177 0.599808 0.0150045 
2589 2 -1.60726 246.803 -797.691 -0.875773 0.47094 0.104925 0.0151053 
2576 2 -61.5787 251.949 -703.321 -0.0120674 -0.636683 0.0458802 -0.769665 
2575 2 -71.4041 251.213 -704.742 -0.48111 -0.451245 -0.466075 -0.589649 
2574 2 -80.6515 249.548 -707.931 -0.825562 0.10362 -0.554481 -0.0161522 
2694 2 -169.719 378.984 -675.432 -0.0640626 0.882375 0.112723 -0.452332 
2693 2 -161.529 378.845 -669.781 -0.411336 0.437764 0.765104 -0.231909 
2577 2 -51.8598 250.468 -701.547 0.483399 -0.323874 0.59337 -0.556187 
2605 2 -55.2691 299.012 -669.385 0.338172 0.189159 -0.0830432 -0.91813 
2590 2 -3.70737 254.868 -792.307 -0.561342 0.331076 -0.251084 -0.71571 
2604 2 -51.7045 299.197 -678.58 -0.563377 0.152584 0.0986518 -0.805973 
2603 2 -47.7413 298.351 -687.574 -0.965166 0.0775664 0.237263 -0.0783875 
2591 2 -6.18723 262.077 -786.037 0.27689 -0.0485923 -0.442089 -0.851779 
2602 2 -43.2952 296.103 -696.053 -0.726123 -0.0677898 0.22971 0.644503 
2592 2 -7.61368 269.757 -780.051 0.848508 -0.330842 -0.209492 -0.355935 
2601 2 -36.7179 295.335 -703.385 -0.0155717 -0.354579 0.0970488 0.929845 
2600 2 -31.2345 294.686 -711.603 0.792339 -0.188777 -0.219668 0.536944 
2599 2 -27.1073 292.97 -720.365 0.896593 0.00816644 -0.230603 -0.377989 
2598 2 -24.0694 289.543 -729.093 0.234581 0.133456 -0.193766 -0.943194 
2597 2 -21.1626 285.602 -737.711 -0.531656 0.28568 -0.0980217 -0.791278 
2596 2 -17.7903 284.919 -746.992 -0.974734 0.0594193 0.165463 -0.137788 
2595 2 -15.7749 283.812 -756.531 -0.724384 -0.0193095 0.125314 0.677637 
2593 2 -8.90612 276.866 -773.451 0.7877 -0.303659 0.00153131 0.53602 
2594 2 -12.1766 281.751 -765.472 0.073221 -0.224189 0.0763514 0.968787 
2938 1 -359.128 472.226 -666.61 -0.794109 0.127767 -0.311742 -0.505848 
2937 2 -312.15 470.271 -670.338 -0.292888 -0.894348 0.329793 0.0747946 
2456 2 -172.515 40.5981 -666.493 0.696902 0.0356569 0.555497 0.452194 
2457 2 -164.303 44.5985 -662.679 0.169234 0.443668 0.308563 0.824201 
2458 2 -156.07 47.9285 -658.422 -0.461401 0.487707 -0.205048 0.712184 
2459 2 -147.319 49.4797 -653.863 -0.830223 0.0292917 -0.553185 -0.0621099 
2460 2 -138.436 50.8233 -649.657 -0.501026 -0.329011 -0.49319 -0.630467 
2461 2 -129.365 53.6656 -647.021 0.188329 -0.610139 -0.138593 -0.757004 
2462 2 -120.653 57.5822 -644.44 0.755059 -0.443406 0.402416 -0.267094 
2451 2 -166.073 -32.0883 -607.706 -0.294494 -0.520964 0.737346 -0.313355 
2450 2 -165.153 -24.5315 -601.413 -0.422299 -0.885696 0.191778 -0.0206488 
2449 2 -162.264 -16.7104 -596.094 -0.319283 -0.766442 -0.399778 0.388333 
2448 2 -159.509 -7.8275 -592.405 0.110389 -0.0925878 -0.815252 0.560898 
2452 1 -179.794 -10.0755 -647.112 0.817435 -0.479949 0.228824 -0.22156 
2447 2 -154.117 0.326843 -590.913 0.638782 0.442074 -0.595369 0.205095 
2453 3 -159.713 13.7515 -631.253 0.820514 -0.493608 0.244453 -0.152809 
2463 2 -112.417 62.1303 -641.288 0.63576 0.0391692 0.672802 0.376314 
2464 2 -103.895 67.0071 -640.042 0.154918 0.510309 0.325338 0.780859 
2465 2 -94.8775 70.3933 -637.743 -0.441722 0.55044 -0.241681 0.665949 
2446 2 -147.118 7.40513 -590.939 0.583899 0.706971 -0.14526 -0.37169 
2445 2 -141.214 15.2792 -590.628 0.1445 0.554293 0.447524 -0.686732 
2444 2 -135.323 23.2554 -590.414 -0.394611 0.00587993 0.697572 -0.59803 
2443 2 -130.138 31.7472 -590.898 -0.713601 -0.517434 0.451164 -0.139591 
2442 2 -125.465 40.4394 -591.898 -0.60975 -0.665729 -0.0760256 0.423355 
2440 2 -112.958 55.565 -594.29 0.624939 0.202028 -0.64658 0.388035 
2439 2 -106.24 62.8669 -593.653 0.625952 0.687357 -0.243272 -0.276664 
2441 2 -119.635 48.2654 -593.609 0.00749593 -0.363217 -0.530172 0.766116 
2438 2 -102.858 71.3666 -589.972 0.247838 0.600023 0.574672 -0.498297 
2373 2 -82.2958 26.4461 -569.024 0.936191 -0.0164807 0.206111 -0.284242 
2374 2 -78.0018 25.5363 -560.055 0.844404 0.0505538 0.219769 0.485929 
2371 1 -125.104 13.1968 -554.26 0.677599 -0.281504 0.0362275 -0.678456 
2375 2 -73.6821 26.2167 -551.255 0.123365 0.260735 0.145646 0.946354 
2376 2 -69.0447 28.2545 -542.728 -0.663547 0.234747 -0.0138751 0.710216 
2437 2 -100.324 80.3879 -586.746 -0.255484 -0.152829 0.793791 -0.530347 
2377 2 -65.9499 31.3051 -533.775 -0.988816 0.137705 0.0155856 -0.0551046 
2372 3 -110.106 25.4111 -525.09 0.678799 -0.273386 0.00306494 -0.68153 
2370 2 -158.001 5.85896 -521.184 -0.3291 -0.919537 0.0968277 0.191752 
2436 2 -94.894 88.5664 -585.866 -0.692574 -0.624176 0.361216 0.0163534 
2466 2 -85.4575 72.5076 -635.569 -0.782823 0.198427 -0.574215 0.134504 
2467 2 -76.0364 72.6556 -632.425 -0.645029 -0.330308 -0.45289 -0.51935 
2468 2 -66.8645 73.0678 -628.611 0.183764 -0.533285 0.0530992 -0.824026 
2413 2 -112.071 80.7305 -558.677 -0.0766927 -0.723896 0.422555 0.539945 
2412 2 -102.949 80.3224 -554.861 0.197146 -0.773422 -0.315108 0.513477 
2411 2 -93.9504 81.7645 -550.911 0.50448 -0.234181 -0.796291 0.237865 
2410 2 -85.0997 82.1942 -546.384 0.442651 0.448279 -0.750123 -0.201053 
2409 2 -77.0088 83.5522 -540.854 0.162937 0.880161 -0.103676 -0.433613 
2408 2 -69.0591 86.389 -535.872 -0.16398 0.664244 0.593267 -0.424176 
2414 2 -120.187 84.2077 -563.205 -0.419149 -0.105977 0.863509 0.259684 
2415 2 -127.843 88.3316 -567.801 -0.539577 0.576235 0.588629 -0.174144 
2407 2 -60.2633 89.9216 -533.022 -0.526885 0.0337254 0.828843 -0.185131 
2378 2 -66.1182 34.0746 -524.288 -0.573524 0.120305 -0.055961 -0.808372 
2416 2 -136.091 92.0629 -571.845 -0.103814 0.84442 -0.170474 -0.497107 
2379 2 -67.9307 36.0961 -514.781 0.229798 -0.125883 -0.195604 -0.945032 
2469 2 -58.2054 74.4404 -624.026 0.799163 -0.245519 0.356522 -0.417074 
2417 2 -144.46 95.625 -575.84 0.157815 0.379826 -0.796432 -0.443309 
2406 2 -51.0179 92.4823 -530.509 -0.53559 -0.530405 0.608848 0.247222 
2470 2 -50.258 74.5481 -618.014 0.807981 0.212261 0.41506 0.360329 
2471 2 -42.1772 74.35 -612.363 0.325133 0.468348 0.0647734 0.818989 
2472 2 -33.9803 72.5467 -607.148 -0.544999 0.337035 -0.240075 0.729211 
2473 2 -26.4449 72.8284 -600.709 -0.875175 0.160353 -0.453155 0.0548307 
2474 2 -18.536 74.9469 -595.153 -0.62602 -0.138103 -0.387098 -0.662708 
2475 2 -11.7762 78.6374 -588.98 0.294588 -0.29859 -0.15714 -0.894074 
2476 2 -7.12746 82.9133 -581.376 0.885038 -0.381235 0.156954 -0.216178 
2477 2 -2.6228 88.8935 -574.87 0.764965 -0.0802993 0.395768 0.501745 
2478 2 2.48369 94.1887 -568.288 0.0537738 0.275947 0.299465 0.911747 
2405 2 -41.6917 94.1659 -527.739 -0.0950348 -0.816993 -0.0140184 0.568589 
2404 2 -32.994 95.8713 -523.385 0.32442 -0.564314 -0.639041 0.409791 
2289 2 -212.254 209.755 -585.632 -0.231566 -0.832864 0.204446 0.459256 
2536 2 -89.9724 181.9 -664.605 -0.529463 -0.831503 -0.167771 -0.0111386 
2489 2 -63.9772 133.353 -664.759 0.245805 0.701088 0.669329 -0.00731836 
2535 2 -91.55 190.141 -659.306 -0.314302 -0.36292 -0.789553 0.382243 
2435 2 -91.6191 97.5484 -583.189 -0.441408 -0.714686 -0.347309 0.416844 
2418 2 -150.873 101.009 -581.143 0.528634 -0.371433 -0.740713 -0.184195 
2434 2 -87.7326 106.634 -583.543 0.144339 -0.127843 -0.674609 0.712549 
2419 2 -156.939 107.531 -585.362 0.505983 -0.798182 -0.145244 0.292902 
2420 2 -162.997 114.423 -588.963 0.180114 -0.582436 0.575155 0.545458 
2433 2 -83.3865 115.496 -584.287 0.694417 0.425799 -0.495399 0.301763 
2432 2 -81.596 124.327 -588.339 0.799276 0.539992 0.0869984 -0.248994 
2431 2 -79.4409 132.803 -592.971 0.324812 0.296876 0.413793 -0.796955 
2421 2 -167.015 123.023 -591.825 -0.225732 0.0833278 0.86992 0.430513 
2422 2 -170.509 130.816 -596.929 -0.362675 0.798563 0.461535 0.133228 
2423 2 -171.534 137.973 -603.624 -0.264907 0.905913 -0.29203 -0.154482 
2426 3 -123.105 136 -597.075 0.567496 0.324102 0.415168 -0.632884 
2430 2 -78.7049 142.001 -596.59 -0.325645 -0.205325 0.52324 -0.760274 
2424 2 -172.414 143.705 -611.557 -0.0559511 0.296654 -0.905054 -0.299571 
2429 2 -78.9684 151.288 -600.052 -0.792585 -0.568163 0.0982137 -0.198377 
2425 1 -130.763 165.785 -613.737 0.58892 0.28053 0.456366 -0.605149 
2428 2 -81.5265 160.492 -602.53 -0.682412 -0.401505 -0.440735 0.422919 
2427 2 -84.5846 169.595 -605.036 -0.125522 0.0658509 -0.61076 0.779025 
2299 2 -121.362 227.335 -611.014 0.792181 0.0863615 0.396612 -0.45573 
2300 2 -116.508 221.901 -604.281 0.876927 0.285825 0.150574 0.355853 
2301 2 -111.986 218.276 -596.238 0.272507 0.220394 -0.152553 0.924064 
2302 2 -108.812 213.927 -587.96 -0.514989 0.143085 -0.367573 0.761054 
2303 2 -103.692 210.248 -580.394 -0.957279 -0.124117 -0.251274 0.0712221 
2304 2 -99.191 207.665 -572.012 -0.687533 -0.319261 -0.0571148 -0.649699 
2305 2 -94.3169 204.354 -564.043 0.152866 -0.327406 0.143875 -0.921269 
2236 1 -151.436 184.036 -521.517 -0.454087 0.316721 -0.558496 -0.617717 
2235 2 -118.085 197.448 -552.104 -0.123619 -0.0819576 0.874767 -0.461285 
2234 2 -116.526 205.523 -546.697 -0.426867 -0.743721 0.476671 -0.193518 
2233 2 -111.421 212.163 -541.468 -0.315774 -0.864254 -0.159926 0.357457 
2232 2 -108.401 219.336 -535.286 -0.046837 -0.366088 -0.821966 0.433771 
2231 2 -107.999 227.659 -529.896 0.264842 0.497698 -0.725749 0.394265 
2288 2 -203.541 211.839 -581.34 0.279383 -0.584624 -0.608449 0.458203 
2287 2 -195.564 214.167 -575.785 0.444729 0.133492 -0.881648 0.0842216 
2286 2 -188.324 216.748 -569.555 0.308897 0.804422 -0.413698 -0.293842 
2285 2 -179.171 217.276 -565.652 -0.120074 0.770659 0.331686 -0.530708 
2284 2 -169.816 216.949 -562.537 -0.57586 0.260112 0.768049 -0.104058 
2283 2 -160.056 218.759 -562.172 -0.603598 -0.474834 0.516009 0.37939 
2282 2 -151.559 223.254 -559.818 -0.141709 -0.795534 -0.133402 0.573802 
2291 3 -170.064 233.49 -604.11 0.690862 -0.290798 0.398032 -0.528883 
2281 2 -143.461 228.999 -559.248 0.354107 -0.301634 -0.658618 0.591479 
2298 2 -125.74 233.638 -617.216 0.10051 -0.174282 0.369982 -0.906993 
2306 2 -87.9565 202.916 -556.613 0.838412 -0.161409 0.296948 -0.42759 
2230 2 -107.276 235.112 -523.423 0.380468 0.91128 -0.150566 0.0462829 
2307 2 -81.6509 202.632 -549.056 0.856293 0.0528651 0.218228 0.465129 
2308 2 -77.5105 203.803 -540.177 0.201003 0.187141 0.073226 0.958757 
2229 2 -108.283 242.268 -516.557 0.327491 0.739373 0.559152 -0.182828 
2290 1 -198.881 233.785 -623.971 0.72101 -0.270505 0.346627 -0.535558 
2488 2 -65.4449 138.124 -656.361 0.0453927 -0.149905 0.952535 -0.261047 
2487 2 -65.072 142.807 -647.68 -0.19599 -0.875461 0.427544 -0.111185 
2309 2 -74.6293 205.524 -530.817 -0.590462 0.18016 -0.0539052 0.784851 
2280 2 -135.829 234.945 -561.287 0.75852 0.278036 -0.574938 0.129577 
2279 2 -127.533 240.196 -562.496 0.505398 0.659308 -0.105105 -0.546662 
2297 2 -131.227 238.692 -623.702 -0.618599 -0.430447 -0.00717671 -0.657267 
2296 2 -136.544 243.982 -630.139 -0.891013 -0.278717 -0.327596 0.145238 
2310 2 -71.1213 207.364 -521.799 -0.975408 0.0884611 -0.187291 0.075344 
2486 2 -63.6829 146.443 -638.541 -0.171225 -0.918036 -0.33284 0.130805 
2485 2 -61.2026 149.552 -629.47 0.0453035 -0.309275 -0.925677 0.213118 
2484 2 -59.3486 152.829 -620.319 0.170256 0.466038 -0.862847 0.0965211 
2278 2 -120.545 246.399 -565.721 -0.0834658 0.421484 0.403115 -0.808012 
2483 2 -57.4936 156.936 -611.541 0.212727 0.945467 -0.237298 -0.0672964 
2237 3 -148.036 218.23 -515.184 -0.466618 0.319553 -0.562577 -0.603043 
2482 2 -51.6701 160.803 -604.56 0.0238547 0.766884 0.498308 -0.403744 
2480 3 -39.4355 115.45 -590.424 -0.557691 -0.344281 0.731232 -0.189081 
2616 2 7.26538 231.486 -636.165 -0.756898 0.641329 -0.125527 0.00666931 
2481 2 -45.2527 166.286 -599.295 -0.341556 0.0704745 0.871873 -0.343817 
2479 1 -14.0719 136.973 -579.361 -0.573447 -0.330265 0.718987 -0.212466 
2614 1 -36.2408 235.934 -618.469 -0.342409 0.662475 0.50108 0.439092 
2617 2 9.38586 241.042 -634.855 -0.554645 0.292369 -0.541514 -0.560047 
2403 2 -24.7972 98.4658 -518.417 0.531764 0.159606 -0.831224 0.0286388 
2885 3 -236.952 338.95 -544.251 0.713802 -0.538182 -0.375855 -0.244089 
2890 2 -214.327 365.566 -570.837 0.586967 -0.138401 -0.584719 -0.542604 
2891 2 -219.726 373.428 -568.172 0.821802 -0.467666 -0.298322 0.130129 
2892 2 -225.766 380.338 -564.692 0.417397 -0.546372 0.19926 0.69825 
2884 1 -224.926 306.22 -547.579 0.693106 -0.521746 -0.413171 -0.276902 
2893 2 -231.919 386.776 -560.458 -0.425682 -0.27139 0.423456 0.752214 
2873 2 -239.377 384.054 -528.983 -0.16526 0.335737 0.375498 -0.847922 
2874 2 -246.423 379.379 -523.893 0.5411 0.555492 0.0642104 -0.628105 
2875 2 -252.666 372.707 -519.994 0.798154 0.359434 -0.472461 0.102651 
2876 2 -259.509 366.13 -517.227 0.360664 -0.0446664 -0.652475 0.664983 
2877 2 -264.819 357.954 -515.4 -0.306023 -0.508746 -0.388931 0.704457 
2871 2 -223.286 393.924 -534.567 -0.718971 -0.489042 0.378454 0.317318 
2872 2 -231.61 389.339 -531.965 -0.703465 -0.0474112 0.605649 -0.368888 
2894 2 -239.397 390.949 -555.495 -0.806398 0.301723 0.507719 0.0301099 
2870 2 -214.47 398.092 -536.571 -0.182851 -0.618503 -0.116687 0.755251 
2895 2 -247.427 395.977 -552.418 -0.412092 0.570384 0.117066 -0.700812 
2889 2 -209.061 357.581 -573.444 0.00365075 0.304493 -0.493917 -0.814442 
2878 2 -269.542 349.354 -514.038 -0.778931 -0.625185 -0.0341152 0.0353028 
2896 2 -256.204 399.31 -549.442 0.105604 0.416537 -0.438285 -0.789462 
2295 2 -143 248.872 -635.864 -0.538545 0.145454 -0.429491 0.710176 
2888 2 -206.173 348.691 -576.733 -0.718174 0.538922 -0.107747 -0.426825 
2277 2 -112.496 251.578 -568.4 -0.733039 -0.0653226 0.598962 -0.315643 
2294 2 -150.615 252.49 -641.087 0.197581 0.457986 -0.145695 0.854391 
2293 2 -159.279 255.422 -645.03 0.73078 0.414041 0.38654 0.380943 
2692 2 -153.281 376.608 -664.834 -0.361779 -0.333196 0.806135 0.329004 
2697 2 -207.101 394.456 -592.914 -0.727405 0.439596 -0.508161 -0.139319 
2887 2 -204.019 339.156 -578.356 -0.694583 0.523335 0.384049 0.310132 
2292 2 -167.514 257.332 -650.189 0.822661 -0.0191584 0.497292 -0.274886 
2886 2 -200.737 329.974 -580.385 -0.240659 -0.032417 0.581645 0.776351 
2276 2 -105.703 258.671 -569.395 -0.686483 -0.610914 0.274036 0.283599 
2248 2 -163.79 266.763 -533.54 0.27923 -0.309129 0.908857 -0.0211707 
2609 2 -70.8809 284.999 -637.42 -0.824446 -0.40558 -0.0047611 0.394679 
2613 2 -74.773 260.577 -607.034 0.934534 0.350082 0.0243173 -0.0591408 
2275 2 -99.3906 266.091 -571.161 -0.166171 -0.516904 -0.410805 0.732419 
2262 2 -123.647 291.808 -658.466 0.257249 -0.316004 0.902984 0.136327 
2249 2 -158.489 268.419 -541.773 0.156032 0.473157 0.842638 0.204298 
2250 2 -154.107 271.393 -550.213 0.0388787 0.972736 0.153794 0.169177 
2251 2 -150.264 271.482 -559.242 -0.0897581 0.654868 -0.711761 0.237672 
2691 2 -146.227 373.741 -658.455 0.0898806 -0.88111 0.224054 0.406654 
2263 1 -90.9148 321.752 -642.338 -0.782448 -0.29999 -0.0638488 0.541946 
2274 2 -92.1238 271.976 -574.623 0.548125 -0.0715064 -0.580919 0.597478 
2695 1 -197.736 382.331 -637.589 -0.685799 -0.110864 -0.544824 -0.469633 
2261 2 -126.776 287.547 -649.994 0.260746 -0.90036 0.337486 -0.086411 
2260 2 -131.05 282.761 -642.562 0.116896 -0.8348 -0.423158 -0.332237 
2252 2 -145.936 269.587 -567.893 -0.156138 -0.227772 -0.958389 -0.0723331 
2253 2 -142.424 269.63 -577.045 0.0539128 -0.885699 -0.412292 -0.20651 
2254 2 -139.51 272.445 -586.111 0.275111 -0.889036 0.36188 -0.0545068 
2255 2 -136.685 276.511 -594.613 0.0829918 -0.240916 0.962827 0.089647 
2256 2 -135.638 278.761 -604.176 -0.0755965 0.652837 0.753107 0.0303244 
2257 2 -136.147 279.631 -614.031 -0.0107337 0.999883 -0.0106605 0.00228076 
2258 2 -135.847 280.075 -623.822 -0.039237 0.578752 -0.813905 0.0326297 
2264 3 -98.9467 302.606 -614.096 -0.802397 -0.296923 -0.0800069 0.511463 
2259 2 -134.829 280.551 -633.677 -0.186222 -0.228841 -0.939792 -0.172467 
2696 3 -166.975 393.998 -625.829 -0.677423 -0.123428 -0.540076 -0.483923 
2208 2 -143.561 338.729 -525.335 0.112546 0.170354 -0.974215 -0.096006 
2690 2 -139.891 372.65 -650.839 0.267304 -0.683123 -0.65152 0.193425 
2689 2 -133.291 369.565 -644.13 0.386437 -0.00518477 -0.899748 -0.202713 
2688 2 -128.14 365.786 -636.588 0.0298597 0.708087 -0.620367 -0.335955 
2209 1 -103.875 356.423 -543.59 0.648513 0.0483194 0.297518 -0.698984 
2687 2 -122.207 361.323 -630.011 -0.318851 0.887233 0.158328 -0.2934 
2686 2 -117.523 355.9 -623.028 -0.369996 0.44816 0.802475 0.135242 
2685 2 -113.053 350.179 -616.318 -0.145699 -0.346357 0.850923 0.367069 
2684 2 -107.561 345.644 -609.477 0.170803 -0.890532 0.248077 0.340936 
2683 2 -100.946 341.815 -603.13 0.368814 -0.728974 -0.550139 0.172976 
2682 2 -96.7338 337.901 -595.042 0.246432 -0.0589744 -0.937608 -0.238084 
2273 2 -83.9087 277.059 -577.038 0.782489 0.410754 -0.446099 -0.141378 
2681 2 -93.045 334.389 -586.56 -0.0466906 0.722297 -0.620076 -0.302678 
2680 2 -90.0337 328.29 -579.348 -0.331176 0.926862 0.137015 -0.111694 
2679 2 -87.2417 321.783 -572.444 -0.328751 0.396519 0.825453 0.230915 
2678 2 -85.8556 314.34 -566.127 0.0912008 -0.361623 0.830326 0.414089 
2675 2 -84.835 291.726 -547.27 -0.0302482 0.224663 -0.862533 -0.45238 
2677 2 -85.8403 307.715 -558.768 0.346636 -0.911209 0.219891 0.0345011 
2676 2 -86.0742 299.494 -553.289 0.330181 -0.638496 -0.616425 -0.321439 
2610 2 -73.7704 278.419 -630.581 -0.891838 -0.256581 0.205807 -0.310538 
2612 2 -75.273 267.071 -614.484 0.516011 0.199735 0.302795 -0.775986 
2611 2 -75.3738 272.306 -622.926 -0.260926 -0.0767363 0.248232 -0.929736 
2272 2 -76.7847 283.149 -580.141 0.395169 0.583929 0.127087 -0.697651 
2271 2 -69.6059 289.77 -582.08 -0.269238 0.319485 0.538361 -0.731852 
2247 2 -169.64 262.941 -526.526 0.350016 -0.854427 0.303435 -0.235308 
2674 2 -81.1426 284.847 -541.165 -0.300713 0.846642 -0.301838 -0.318846 
2673 2 -77.1145 278.084 -535.074 -0.454329 0.773349 0.442038 0.0108884 
2211 2 -57.1021 362.801 -545.004 -0.0850866 0.153037 -0.396078 0.901367 
2608 2 -68.3921 290.556 -645.194 -0.171061 -0.167199 -0.294355 0.925277 
2672 2 -72.1219 270.858 -530.569 -0.385502 0.176371 0.822237 0.379748 
2671 2 -66.3541 264.649 -525.552 0.0335672 -0.575184 0.662765 0.478308 
2670 2 -60.0938 258.064 -521.584 0.42388 -0.827867 -0.0204199 0.366804 
2270 2 -64.8691 297.555 -586.135 -0.741065 -0.306545 0.45417 -0.38805 
2269 2 -61.7069 306.202 -589.89 -0.776898 -0.533525 -0.0603704 0.328839 
2267 2 -61.6999 323.893 -598.091 0.444031 0.382882 -0.402851 0.702815 
2265 2 -63.6747 340.529 -608.718 0.522985 0.235644 0.385231 -0.72288 
2266 2 -62.9386 332.362 -603.189 0.865081 0.494174 -0.0151346 0.0848383 
2607 2 -64.647 295.797 -652.676 0.654915 0.0212513 -0.337812 0.675661 
2207 2 -141.144 336.923 -515.925 -0.0246949 0.83019 -0.534071 -0.157936 
2246 2 -176.446 260.027 -519.999 -0.0496559 -0.803893 -0.430781 -0.407086 
2268 2 -59.677 314.988 -594.035 -0.215914 -0.246331 -0.478059 0.814961 
2606 2 -59.6521 299.081 -660.521 0.928198 0.229873 -0.222618 -0.189861 
2210 3 -92.5581 339.59 -515.166 0.619787 0.0398175 0.328444 -0.71162 
2212 2 -53.5569 356.179 -538.469 -0.726673 -0.152992 -0.452531 0.493715 
2618 2 11.6019 250.418 -632.772 0.185933 -0.225923 -0.653514 -0.698073 
2213 2 -49.1082 349.314 -532.995 -0.823147 -0.528156 0.0494414 -0.202573 
2668 1 -27.925 253.589 -555.849 0.168724 -0.46102 0.566209 0.662118 
2619 2 12.6117 260.241 -632.521 0.678812 -0.672266 -0.161661 -0.24726 
2667 2 -5.94303 267.732 -595.114 -0.647356 -0.692296 -0.296788 0.116506 
2669 3 -42.2698 284.944 -562.334 0.119749 -0.476809 0.617982 0.613524 
2666 2 -8.40962 277.135 -593.505 -0.402847 -0.33234 -0.681934 0.512085 
2620 2 14.1865 270.053 -632.581 0.606926 -0.537749 0.432705 0.393997 
2621 2 15.7851 279.869 -632.293 0.123158 -0.0247227 0.672427 0.729426 
2622 2 17.635 289.648 -631.936 -0.442364 0.519199 0.390643 0.618179 
2665 2 -8.98205 287.024 -592.542 0.217679 0.331513 -0.704831 0.588157 
2615 3 -30.1268 267.377 -632.489 -0.312261 0.65996 0.537273 0.422235 
2623 2 20.9047 298.918 -630.489 -0.788411 0.580828 -0.184285 0.084179 
2664 2 -11.1118 296.537 -590.574 0.582621 0.766669 -0.11156 0.245611 
2627 2 32.0104 334.738 -619.82 0.73949 -0.45529 0.282184 0.407724 
2626 2 31.3646 325.386 -623.088 0.753628 -0.54347 -0.184783 -0.32022 
2628 2 32.3391 343.633 -615.59 0.201402 -0.123105 0.497071 0.834987 
2631 2 32.311 369.309 -600.78 -0.678846 0.27898 -0.32824 -0.59464 
2630 2 31.9909 361.038 -606.31 -0.892353 0.444685 0.0410063 0.0654205 
2629 2 31.6877 352.147 -610.72 -0.531542 0.339287 0.402955 0.663306 
2625 2 29.3298 316.075 -625.799 0.127417 -0.279541 -0.576653 -0.757029 
2624 2 24.7008 307.663 -627.905 -0.557375 0.201904 -0.594693 -0.543054 
2658 2 -24.6462 353.709 -586.918 0.160002 0.231482 -0.703429 0.65269 
2659 2 -23.4662 343.929 -587.714 -0.454309 -0.306394 -0.579207 0.603528 
2660 2 -21.7623 334.22 -586.195 -0.704853 -0.680518 -0.199833 -0.0119881 
2661 2 -18.8082 324.793 -586.326 -0.368464 -0.600365 0.423075 -0.569916 
2662 2 -15.5367 315.465 -586.825 0.200514 0.0125797 0.751243 -0.628705 
2663 2 -13.0773 305.979 -588.392 0.553926 0.565507 0.521794 -0.317961 
2657 2 -26.3906 363.324 -585.359 0.58988 0.748749 -0.176979 0.245142 
2656 2 -27.2767 373.045 -583.982 0.535452 0.588166 0.505678 -0.334128 
2655 2 -27.916 382.993 -583.414 -0.0440217 -0.0140939 0.719581 -0.692869 
2654 2 -29.0206 392.779 -583.639 -0.599563 -0.629062 0.310696 -0.385063 
2632 2 32.7272 377.232 -594.783 0.0724716 -0.169831 -0.422931 -0.88715 
2633 2 34.7729 384.722 -588.705 0.754638 -0.421209 0.0707684 -0.498092 
2634 2 39.5075 390.634 -582.271 0.86779 -0.141094 0.393031 0.26937 
2635 2 45.0367 395.774 -575.762 0.319363 0.236758 0.444393 0.802787 
2214 2 -47.1427 340.976 -527.952 -0.452116 -0.189206 0.259594 -0.832108 
2215 2 -46.706 334.82 -520.229 0.322113 0.201691 0.238848 -0.893597 
2940 2 -399.32 486.748 -646.532 0.881197 -0.393668 0.136253 -0.223501 
2941 2 -395.023 493.203 -640.459 0.757079 -0.235621 0.333487 0.51 
2942 2 -392.53 500.688 -634.49 0.113619 0.174823 0.409376 0.888222 
2943 2 -388.801 507.882 -628.746 -0.501637 0.398652 0.0685261 0.764683 
3014 2 -464.77 513.613 -536.723 0.659278 0.386625 -0.496312 0.411763 
3013 2 -463.295 523.037 -539.483 0.788288 0.551013 0.104571 -0.253086 
2944 2 -383.369 513.007 -622.186 -0.890951 0.286021 -0.332132 0.118686 
3012 2 -461.815 532.284 -542.775 0.195952 0.247315 0.517591 -0.795322 
2945 2 -376.85 517.528 -616.244 -0.63191 -0.0762207 -0.495412 -0.591141 
3015 2 -467.67 504.356 -534.582 0.0906676 -0.0857535 -0.514903 0.848116 
3016 2 -470.428 495.827 -530.492 -0.602646 -0.372213 -0.305924 0.636149 
3017 2 -471.55 487.462 -525.428 -0.810929 -0.562167 0.143339 -0.0762708 
3018 2 -472.77 478.148 -522.173 -0.459273 -0.233453 0.529007 -0.674329 
3011 2 -458.067 540.675 -546.285 -0.548839 -0.1719 0.528171 -0.624709 
2946 2 -369.02 521.567 -611.776 0.0551821 -0.426846 -0.230067 -0.872827 
3010 2 -453.485 548.445 -550.677 -0.850471 -0.459411 0.254077 0.0329522 
2947 2 -361.808 525.65 -606.375 0.70578 -0.497848 0.178628 -0.47129 
2936 2 -309.271 474.863 -662.047 -0.103851 -0.798089 -0.53457 0.257884 
2935 2 -306.371 478.446 -653.308 0.169342 -0.0371165 -0.96974 0.171903 
2897 2 -263.475 405.306 -546.549 0.73186 -0.0471933 -0.552237 -0.396469 