ITEM: TIMESTEP
10000000
ITEM: NUMBER OF ATOMS
4067
ITEM: BOX BOUNDS pp pp pp
-4.6310929470000001e+03 4.6704658980000004e+03
-4.6310929470000001e+03 4.6704658980000004e+03
-4.6310929470000001e+03 4.6704658980000004e+03
ITEM: ATOMS id type x y z c_q[1] c_q[2] c_q[3] c_q[4] 
1939 1 152.25 -692.073 -700.099 -0.699146 -0.259427 -0.475816 -0.46636 
1934 2 211.821 -703.442 -721.69 0.449095 -0.56246 -0.682256 0.128373 
1935 2 204.247 -700.629 -727.468 0.163295 -0.845955 0.0941206 0.498836 
1936 2 196.115 -696.69 -731.425 -0.347425 -0.486613 0.668141 0.442821 
1937 2 186.992 -694.249 -734.636 -0.513625 0.266522 0.814431 -0.0431063 
1938 2 178.497 -692.286 -739.296 -0.273816 0.798441 0.311255 -0.43662 
1933 2 218.19 -706.687 -714.931 0.310911 0.190418 -0.900299 -0.237774 
1940 3 184.763 -689.086 -687.901 -0.702211 -0.2697 -0.50764 -0.420076 
1932 2 223.339 -710.29 -707.309 -0.0308512 0.812511 -0.486973 -0.318954 
1931 2 228.524 -713.618 -699.614 -0.244098 0.898783 0.30116 -0.204715 
1930 2 233.672 -717.852 -692.325 -0.361546 0.379441 0.845492 0.102239 
1929 2 236.585 -721.099 -683.475 -0.0851316 -0.385792 0.891128 0.223176 
1928 2 239.318 -727.329 -676.339 0.311695 -0.903988 0.202215 0.211566 
1927 2 243.321 -733.705 -669.884 0.425637 -0.656316 -0.620958 -0.0499352 
1952 2 239.091 -650.163 -674.551 0.347783 0.371329 0.823275 0.251756 
1951 2 230.134 -653.068 -671.477 0.581282 -0.330524 0.74088 -0.0629422 
1953 2 246.508 -649.123 -681.043 0.114611 0.909856 0.204865 0.342135 
1950 2 221.123 -654.515 -667.593 0.282 -0.777641 0.245584 -0.505409 
1957 2 268.116 -645.291 -713.07 0.135436 -0.933782 -0.0338483 -0.329488 
1956 2 263.606 -648.51 -704.852 -0.0784804 -0.513218 -0.809588 -0.273889 
1954 2 253.014 -649.152 -688.413 -0.115052 0.785974 -0.53051 0.295918 
1961 2 285.62 -638.247 -747.703 -0.0639515 0.864776 -0.372771 0.330324 
1962 2 291.444 -639.102 -755.647 -0.372567 0.259477 -0.882229 0.124649 
1963 2 298.964 -639.348 -762.164 -0.393511 -0.60107 -0.677447 -0.157893 
1960 2 281.546 -639.954 -738.835 0.00767443 0.881759 0.40761 0.237268 
1958 2 274.133 -643.323 -720.757 0.16191 -0.667133 0.72558 -0.0474657 
1964 2 305.734 -641.502 -769.03 -0.0381073 -0.955316 -0.018094 -0.29256 
1959 2 277.436 -641.469 -729.981 0.189029 0.164541 0.955099 0.15805 
1955 2 259.036 -650.282 -696.181 -0.270045 0.241514 -0.932066 0.000250843 
1965 2 311.501 -642.469 -776.991 0.201473 -0.5618 0.777619 -0.197733 
1971 2 353.816 -618.901 -697.007 -0.0584435 -0.346916 -0.164326 0.921537 
1970 2 360.449 -615.11 -703.326 0.71494 -0.0802406 -0.432091 0.543801 
1969 2 366.203 -611.871 -710.69 0.911266 0.234587 -0.290424 -0.173833 
1968 2 371.983 -607.42 -717.431 0.456123 0.380735 0.038019 -0.80346 
1967 3 325.452 -627.027 -729.341 0.768103 0.286271 -0.235963 -0.521908 
1966 1 348.952 -624.051 -755.075 0.740791 0.247756 -0.195461 -0.592994 
2022 2 361.496 -557.881 -699.107 -0.151271 -0.746694 0.321703 0.562202 
2023 2 352.049 -556.48 -701.757 -0.548655 -0.296005 0.765159 0.160906 
2024 2 342.584 -556.256 -704.462 -0.496294 0.474048 0.568353 -0.453813 
2025 2 332.737 -556.022 -705.394 -0.100218 0.708153 0.0235846 -0.698512 
2026 2 322.839 -555.077 -706.007 0.524721 0.371789 -0.558427 -0.524023 
2027 2 313.103 -552.932 -705.055 0.773057 -0.256035 -0.57015 0.108433 
2028 2 303.768 -550.596 -702.703 0.574408 -0.580911 0.00124562 0.576711 
2029 2 296.713 -544.214 -699.811 -0.0292832 -0.41619 0.41725 0.80736 
2030 2 289.944 -537.946 -696.252 -0.550135 0.12201 0.549077 0.617236 
2031 2 285.431 -529.826 -692.831 -0.79787 0.544246 0.232558 -0.114524 
2032 2 280.768 -521.852 -689.388 -0.408258 0.558731 -0.316067 -0.649035 
1972 2 347.837 -622.39 -689.915 -0.741018 -0.321224 0.18209 0.560848 
1973 2 341.757 -625.2 -682.636 -0.885351 -0.0220393 0.418266 -0.201795 
1974 2 334.531 -627.217 -676.069 -0.417389 0.37371 0.214411 -0.800097 
2021 3 330.657 -521.944 -677.889 -0.280144 0.664589 0.336804 -0.605313 
1975 2 326.799 -627.498 -669.957 0.251827 0.464449 -0.207709 -0.823242 
2020 1 365.2 -518.588 -673.311 -0.281853 0.658176 0.346017 -0.60633 
2041 2 215.781 -469.455 -669.31 0.837286 -0.232505 -0.464635 0.170316 
2040 2 225.151 -471.644 -671.787 0.577198 0.277633 -0.549866 -0.536106 
2039 2 234.528 -474.983 -672.363 -0.0698284 0.686184 -0.162846 -0.705519 
2038 2 242.201 -480.96 -673.978 -0.673901 0.606152 0.264971 -0.328979 
2033 2 276.312 -513.261 -687.177 0.343869 0.169817 -0.539433 -0.749619 
2037 2 249.436 -487.558 -675.767 -0.683354 0.142414 0.625623 0.348342 
2034 2 269.946 -506.561 -683.713 0.818332 -0.267814 -0.446746 -0.242954 
2036 2 256.383 -494.653 -676.064 -0.0821831 -0.411225 0.570315 0.706315 
2035 2 263.784 -500.598 -678.811 0.614381 -0.58108 -0.0947396 0.525269 
2063 2 277.125 -397.476 -679.97 0.0669661 -0.482634 0.84552 0.218347 
2064 2 276.549 -392.844 -688.655 -0.110323 0.337837 0.906009 0.229875 
2065 2 276.089 -387.697 -697.097 -0.148755 0.946903 0.28238 0.0388315 
2066 2 275.838 -384.983 -706.578 -0.152302 0.815755 -0.549933 -0.0944522 
2067 2 276.022 -381.197 -715.731 -0.0888177 0.161651 -0.945858 -0.267082 
2062 2 278.096 -402.028 -671.15 0.229634 -0.970889 0.0336509 0.0592552 
2068 2 276.862 -376.003 -724.13 0.127172 -0.546882 -0.753043 -0.343036 
2069 2 279.023 -369.723 -731.478 0.415563 -0.884857 -0.104909 -0.182562 
2070 2 281.291 -362.017 -737.343 0.243791 -0.644161 0.670946 0.274689 
2097 2 356.54 -366.865 -666.875 -0.773926 -0.42832 -0.463823 0.0494897 
2086 2 255.208 -361.534 -677.046 0.735427 -0.0870788 0.648839 -0.174852 
2087 2 265.014 -362.322 -676.057 0.412108 0.545874 0.533797 0.497242 
2084 2 236.76 -354.732 -676.891 -0.618211 -0.524967 -0.361624 -0.45984 
2083 2 229.076 -349.515 -680.347 -0.771376 -0.10736 -0.556518 0.289379 
2076 2 198.493 -318.555 -729.533 -0.903736 -0.0106342 -0.178791 0.388821 
2077 2 201.995 -319.914 -720.377 -0.860044 -0.149087 -0.0974367 -0.478125 
2078 2 204.9 -322.299 -711.26 -0.175625 -0.237036 0.175232 -0.939289 
2079 2 208.276 -326.413 -702.912 0.56288 -0.0342359 0.284037 -0.775446 
2080 2 212.105 -330.186 -694.593 0.872255 0.353092 0.331842 -0.0661686 
2081 2 217.012 -336.693 -688.927 0.603157 0.451222 -0.0937083 0.651014 
2082 2 222.229 -343.318 -683.89 -0.190825 0.282757 -0.479892 0.808293 
2074 1 239.927 -322.514 -751.777 -0.845359 -0.32239 0.0886909 -0.416614 
2075 3 243.334 -344.172 -724.355 -0.836837 -0.333767 0.092391 -0.423989 
2085 2 245.853 -358.512 -675.957 0.0943811 -0.661738 0.334758 -0.664178 
2096 2 349.521 -360.927 -670.546 -0.570274 0.080466 -0.568164 0.587794 
2095 2 342.15 -356.028 -674.965 0.0501558 0.44659 -0.254101 0.856431 
2093 2 322.953 -353.767 -678.011 0.770529 -0.0197164 0.635548 0.0444469 
2092 2 313.218 -355.129 -678.432 0.440123 -0.629983 0.310775 -0.559314 
2089 2 284.432 -361.477 -679.375 -0.575715 0.455638 -0.555017 0.391028 
2088 2 274.65 -361.059 -677.679 -0.0397036 0.745578 -0.0991785 0.6578 
2071 2 281.001 -354.9 -744.333 -0.168381 0.244795 0.901987 0.313277 
2072 2 280.175 -348.173 -751.475 -0.288135 0.902533 0.247144 0.203303 
2073 2 282.446 -341.827 -758.605 -0.355133 0.74579 -0.552016 -0.113829 
2090 2 294.316 -360.837 -679.352 -0.669518 -0.09338 -0.688112 -0.263682 
2091 2 303.916 -358.441 -679.09 -0.141621 -0.577836 -0.362274 -0.7175 
2094 2 332.788 -353.178 -676.618 0.569339 0.543441 0.3652 0.497146 
1887 2 71.966 -848.043 -597.208 0.407507 -0.112013 0.77596 0.468271 
1888 2 77.0269 -840.004 -599.547 -0.129182 0.538612 0.59491 0.582487 
1889 2 82.356 -832.14 -602.508 -0.604993 0.734157 -0.117381 0.284987 
1890 2 88.2286 -824.297 -603.882 -0.603276 0.297879 -0.70092 -0.236723 
1885 1 106.505 -872.542 -576.38 0.702954 -0.628283 0.298509 0.148351 
1886 3 117.581 -839.486 -573.904 0.676057 -0.625908 0.336608 0.194632 
1883 2 148.822 -866.796 -550.75 0.300617 0.167064 -0.724356 0.597518 
1884 2 146.563 -876.352 -551.787 -0.293326 -0.450554 -0.584894 0.607339 
1882 2 149.651 -857.293 -547.913 0.57771 0.720873 -0.343378 0.169369 
1880 2 147.623 -838.457 -543.029 0.218727 0.077054 0.762912 -0.603478 
1881 2 149.898 -847.873 -544.77 0.497018 0.70022 0.403934 -0.31544 
1879 2 146.224 -828.689 -542.716 -0.370775 -0.454542 0.535873 -0.607254 
1878 2 142.727 -819.518 -543.001 -0.707871 -0.67415 -0.147022 -0.15108 
1857 2 35.0762 -722.401 -534.49 0.56668 -0.749546 -0.305152 0.154714 
1856 2 40.6778 -729.896 -531.195 0.425938 -0.143314 -0.79713 -0.403264 
1855 2 45.462 -738.063 -528.315 -0.139543 0.574522 -0.583932 -0.556305 
1854 2 51.3277 -744.99 -524.262 -0.44629 0.839323 0.136061 -0.279014 
1853 2 59.7063 -749.94 -522.648 -0.619907 0.253464 0.733895 0.113445 
1891 2 95.2119 -817.375 -605.287 -0.245452 -0.336908 -0.606535 -0.677024 
1852 2 67.5387 -754.424 -518.599 -0.282129 -0.422091 0.729782 0.457888 
1858 1 59.5883 -685.055 -519.162 -0.736081 -0.308715 -0.531238 0.284016 
1892 2 102.849 -811.022 -604.889 0.315236 -0.762235 -0.0754421 -0.560297 
1893 2 110.507 -804.815 -606.279 0.664196 -0.487893 0.52716 -0.207138 
1894 2 119.231 -800.189 -606.864 0.57855 0.0619841 0.746629 0.322463 
1895 2 128.056 -795.864 -607.445 0.131458 0.564206 0.31496 0.751791 
1896 2 137.231 -792.243 -606.256 -0.563799 0.592716 -0.281429 0.501614 
1897 2 146.051 -787.857 -605.71 -0.72035 0.290654 -0.599984 -0.191404 
1898 2 153.687 -781.636 -604.327 -0.393434 -0.215126 -0.642661 -0.621223 
1899 2 161.244 -775.279 -603.305 0.269728 -0.602245 -0.227544 -0.716081 
1900 2 168.848 -769.001 -602.097 0.789958 -0.47234 0.290184 -0.262019 
1901 2 175.726 -762.801 -598.54 0.644332 -0.136593 0.56958 0.491689 
1902 2 181.17 -755.158 -595.329 0.0213517 0.399559 0.455557 0.795214 
1903 2 187.809 -748.453 -592.539 -0.624017 0.531178 0.0906474 0.565894 
1904 2 192.56 -741.196 -587.644 -0.924472 0.278475 -0.258918 -0.0276667 
1905 2 197.378 -736.112 -580.637 -0.648318 0.00322528 -0.425467 -0.631388 
1906 2 203.059 -731.353 -574.045 0.0238504 -0.264433 -0.100992 -0.958805 
1907 2 208.048 -728.668 -566.022 0.791688 -0.149807 0.192098 -0.560256 
1908 2 212.433 -728.675 -557.197 0.92659 0.129804 0.298872 0.18777 
1909 2 218.104 -729.598 -549.204 0.437686 0.356538 0.103467 0.818906 
1910 2 224.314 -730.843 -541.455 -0.372414 0.26156 -0.108925 0.883759 
1877 2 140.167 -810.153 -541.095 -0.444954 -0.417992 -0.666065 0.428551 
1876 2 137.582 -800.731 -539.638 -0.0287969 0.161132 -0.732921 0.660329 
1875 2 136.6 -790.93 -538.696 0.502885 0.630637 -0.410395 0.425416 
1874 2 134.338 -781.492 -536.887 0.623942 0.761624 0.174231 -0.0164238 
1873 2 132.002 -772.125 -534.954 0.319553 0.194056 0.745965 -0.551149 
1872 2 129.277 -763.336 -531.201 -0.203123 -0.524327 0.642181 -0.520985 
1913 3 235.116 -763.51 -573.292 -0.216702 0.892379 0.353846 -0.177463 
1926 2 245.983 -740.314 -662.966 0.139621 0.0137479 -0.922996 -0.358322 
1925 2 246.549 -745.719 -654.629 -0.208407 0.741069 -0.607724 -0.195076 
1871 2 130.433 -754.97 -525.973 -0.482846 -0.873924 0.0558199 0.000251541 
1941 2 145.958 -686.78 -653.587 -0.775541 -0.0144294 -0.515611 -0.363968 
1911 2 230.036 -730.68 -533.417 -0.920628 0.0898136 -0.259753 0.27732 
1942 2 153.962 -683.712 -648.755 -0.0935707 -0.391421 -0.524422 -0.750343 
1924 2 245.886 -753.043 -648.105 -0.380927 0.896345 0.187812 0.127231 
1923 2 244.579 -759.825 -641.07 -0.106684 0.530106 0.747679 0.385463 
1922 2 243.54 -766.25 -633.613 0.163256 -0.28307 0.894202 0.305976 
1943 2 160.77 -676.545 -648.047 0.371712 -0.775259 0.0962295 -0.50154 
1921 2 243.016 -772.18 -625.62 0.326838 -0.884948 0.317364 0.096559 
1944 2 168.953 -671.373 -650.319 0.69089 -0.311899 0.630849 -0.165589 
1920 2 243.422 -778.641 -618.183 0.279865 -0.81076 -0.490862 -0.152963 
1945 2 178.562 -668.873 -649.847 0.50816 0.292188 0.661976 0.467105 
1870 2 132.059 -746.745 -520.749 -0.261492 -0.632512 -0.606223 0.405024 
1919 2 245.777 -785.614 -611.492 0.195959 -0.161199 -0.904052 -0.343956 
1869 2 132 -738.049 -515.941 0.0722765 0.118965 -0.855128 0.49938 
1918 2 247.728 -792.651 -604.81 -0.204302 0.585241 -0.685668 -0.381594 
1912 1 250.564 -772.036 -543.08 -0.215583 0.880809 0.372711 -0.196942 
1917 2 251.295 -797.891 -597.048 -0.289389 0.938105 0.108854 -0.15609 
1916 2 254.259 -801.134 -588.137 -0.196444 0.487791 0.84891 0.0531156 
1914 2 260.607 -808.632 -571.084 0.244402 -0.921384 0.180007 0.242729 
1915 2 256.729 -804.008 -578.963 -0.0727734 -0.411364 0.887096 0.196326 
1946 2 187.89 -665.573 -650.071 -0.0465747 0.802776 0.183699 0.565363 
1947 2 197.031 -662.661 -652.709 -0.437338 0.576625 -0.622134 0.298645 
1948 2 205.539 -661.181 -657.616 -0.453872 -0.0364279 -0.857412 -0.23983 
1949 2 213.231 -657.4 -662.452 -0.0886973 -0.725716 -0.493575 -0.471013 
1991 2 201.467 -626.206 -582.788 0.75554 0.00557277 -0.366417 0.543016 
1990 2 206.198 -622.261 -590.557 0.927837 0.277488 -0.188561 -0.162981 
1992 2 196.001 -630.053 -575.417 0.07722 -0.284679 -0.206686 0.932886 
1989 2 211.581 -618.35 -597.928 0.420267 0.378362 0.081559 -0.820711 
1988 2 218.973 -615.151 -603.666 -0.415927 0.284532 0.359245 -0.785487 
1987 2 226.769 -613.346 -609.555 -0.887864 -0.0559461 0.455217 -0.0366808 
1986 2 234.57 -611.593 -615.363 -0.558809 -0.424308 0.199304 0.684085 
1985 2 243.089 -612.165 -620.605 0.230073 -0.480759 -0.107265 0.839304 
1994 3 245.209 -614.888 -568.364 0.0831502 0.446047 0.818599 0.352171 
1993 1 228.13 -628.452 -540.967 0.114838 0.419672 0.833013 0.341727 
1976 2 318.452 -625.716 -664.927 0.743746 0.159674 -0.534812 -0.367862 
1977 2 309.317 -623.663 -661.582 0.810607 -0.325592 -0.393523 0.286437 
1984 2 252.113 -612.179 -624.577 0.738202 -0.249143 -0.491899 0.388614 
1983 2 260.219 -612.119 -630.281 0.789348 0.211209 -0.456583 -0.351925 
1982 2 268.393 -613.876 -635.595 0.192285 0.485539 -0.178364 -0.833945 
1995 2 271.104 -619.645 -523.678 0.29562 0.032287 0.917853 0.262891 
1996 2 275.901 -614.174 -530.422 -0.176791 0.732357 0.583358 0.303464 
1997 2 278.09 -607.976 -537.921 -0.340836 0.913394 -0.222055 0.0152969 
1981 2 276.746 -615.165 -640.869 -0.532726 0.406199 0.202847 -0.714184 
1998 2 279.686 -602.279 -545.887 -0.28395 0.43356 -0.812617 -0.266557 
1999 2 281.637 -595.586 -552.918 0.105496 -0.264484 -0.872481 -0.397108 
2000 2 281.729 -587.977 -559.208 0.36179 -0.809602 -0.431185 -0.166531 
2001 2 280.891 -580.872 -566.085 0.476879 -0.782342 0.378091 0.132567 
2002 2 282.546 -572.432 -571.076 0.241721 -0.191233 0.915172 0.259734 
2003 2 285.625 -566.041 -577.875 -0.0759568 0.663501 0.644846 0.371713 
1980 2 284.568 -616.954 -646.806 -0.894196 0.124169 0.423962 -0.0724634 
1979 2 292.574 -619.183 -652.021 -0.599259 -0.25483 0.43755 0.620081 
1978 2 301.01 -620.573 -656.977 0.197016 -0.528657 -0.0410585 0.824634 
2004 2 288.724 -560.251 -585.243 -0.342995 0.912293 -0.216867 0.0551774 
2005 2 291.151 -554.359 -592.801 -0.218561 0.433049 -0.854266 -0.186896 
2006 2 293.079 -549.167 -600.977 0.17022 -0.33865 -0.872307 -0.308904 
2007 2 292.676 -542.861 -608.527 0.291162 -0.856953 -0.41613 -0.0877018 
2008 2 292.611 -537.804 -617.047 0.183108 -0.892047 0.388759 0.139964 
2009 2 291.291 -533.168 -625.699 -0.00984292 -0.26689 0.929082 0.255889 
2010 2 289.896 -528.162 -634.099 -0.183321 0.613416 0.672196 0.371842 
2011 2 291.8 -521.343 -640.945 -0.457503 0.870304 -0.137794 0.119478 
2012 2 295.07 -514.309 -647.178 -0.531684 0.428414 -0.683824 -0.257214 
2042 2 207.31 -466.575 -665.142 0.393119 -0.464458 -0.0375478 0.79267 
2043 2 200.018 -463.216 -659.327 -0.431564 -0.254582 0.284685 0.817249 
2044 2 193.676 -460.113 -652.397 -0.909486 0.134991 0.294738 0.260274 
2045 2 188.647 -456.416 -644.619 -0.719121 0.430336 0.138352 -0.527765 
2046 2 182.328 -451.723 -638.61 0.0749567 0.342582 -0.284508 -0.89223 
2048 3 232.2 -461.721 -627.937 0.316174 0.556855 0.73443 0.224853 
2047 1 209.772 -459.455 -601.109 0.302143 0.61521 0.700361 0.1993 
2098 2 363.228 -373.813 -664.975 -0.564318 -0.605629 0.137445 -0.543937 
2049 2 250.655 -470.012 -580.151 0.37434 -0.376877 0.834599 0.145869 
2061 2 279.799 -407.518 -663.104 0.258545 -0.624538 -0.72227 -0.1464 
2019 2 347.779 -479.793 -652.831 -0.698066 0.172511 -0.684241 0.12148 
2018 2 337.918 -480.792 -652.227 -0.292726 0.679973 -0.264531 0.618038 
2013 2 299.72 -505.969 -649.999 -0.154277 -0.199163 -0.711529 -0.655941 
2060 2 282.177 -414.58 -656.48 0.042334 0.233805 -0.885481 -0.399332 
2099 2 368.214 -382.145 -662.859 0.048273 -0.341826 0.53139 -0.773595 
2100 2 373.8 -390.023 -661.078 0.570503 0.127396 0.621239 -0.52188 
2050 2 256.131 -464.81 -586.615 0.142958 0.450882 0.818715 0.325537 
2051 2 261.378 -460.687 -593.931 -0.0458129 0.944446 0.113935 0.304863 
2059 2 283.746 -422.692 -650.916 -0.355604 0.783193 -0.412727 -0.299683 
2102 3 322.032 -394.411 -662.289 -0.143325 0.808098 -0.411168 -0.396707 
2058 2 283.005 -431.533 -646.651 -0.477305 0.798108 0.289288 0.226969 
2057 2 282.614 -440.703 -642.816 -0.194252 0.288794 0.771355 0.5328 
2101 1 339.554 -413.653 -638.849 -0.146545 0.832231 -0.411284 -0.341704 
2014 2 304.608 -497.424 -651.063 0.354543 -0.666628 -0.294015 -0.586056 
2056 2 281.92 -447.176 -635.389 0.199766 -0.496508 0.787782 0.304917 
2108 2 274.492 -381.38 -639.001 -0.748842 0.490951 0.390685 0.213465 
2109 2 270.076 -372.917 -636.556 -0.635226 0.48727 -0.216615 -0.558689 
2103 2 294.365 -423.528 -629.46 -0.210682 0.54025 -0.671844 -0.460834 
2055 2 279.003 -452.823 -627.758 0.315177 -0.904525 0.285885 -0.027688 
2104 2 292.406 -415.058 -634.28 0.328172 -0.224113 -0.818323 -0.415239 
2105 2 288.508 -406.97 -638.404 0.601183 -0.712535 -0.356567 0.0611047 
2106 2 282.99 -398.965 -640.49 0.406968 -0.592506 0.401258 0.56772 
2107 2 279.372 -389.737 -640.859 -0.302665 -0.0860632 0.605912 0.730655 
2017 2 328.085 -481.854 -651.769 0.264144 0.624724 0.318785 0.662061 
2016 2 318.492 -484.156 -652.12 0.682174 0.0452001 0.69033 0.236727 
2015 2 310.186 -489.346 -651.471 0.669694 -0.573236 0.412872 -0.229014 
2054 2 276.61 -456.16 -618.736 0.0741124 -0.777846 -0.591975 -0.197558 
2053 2 272.497 -457.48 -609.791 -0.156273 -0.0944414 -0.980599 -0.071316 
2052 2 267.598 -458.332 -601.273 -0.192815 0.709801 -0.66119 0.14776 
2110 2 266.78 -364.533 -632.625 0.0589243 0.0908025 -0.524094 -0.844754 
2120 2 216.179 -289.945 -613.883 0.101591 -0.641415 0.124031 0.750255 
2123 2 188.683 -283.333 -606.735 -0.35334 0.349424 0.100166 -0.861986 
2122 2 197.714 -283.669 -610.804 -0.81594 0.223174 0.472762 -0.246841 
2121 2 206.829 -287.136 -612.387 -0.557861 -0.262833 0.57385 0.538893 
2124 2 182.048 -282.596 -599.409 0.436801 0.297124 -0.188492 -0.827885 
2125 2 175.791 -281.899 -591.783 0.930953 0.15479 -0.300003 -0.139157 
2126 2 169.415 -283.212 -584.331 0.71525 -0.15796 -0.275693 0.622463 
2127 2 163.69 -284.169 -576.428 -0.074299 -0.302887 0.00311777 0.950121 
2128 1 197.252 -279.314 -543.617 0.141061 0.327326 0.895515 0.266482 
2129 3 211.786 -265.221 -572.092 0.118595 0.371851 0.887384 0.245381 
2119 2 225.383 -293.175 -616.054 0.697803 -0.467292 -0.405687 0.360731 
2139 2 230.203 -225.8 -600.97 -0.226319 0.903319 0.219053 -0.291223 
2138 2 235.054 -226.822 -592.409 -0.269152 0.324455 0.905224 -0.0534405 
2140 2 223.847 -223.005 -607.991 0.153946 0.715686 -0.572668 -0.368978 
2141 2 216.704 -220.67 -614.499 0.338751 -0.044349 -0.911133 -0.230474 
2118 2 234.597 -296.55 -617.159 0.680856 0.0348626 -0.665904 -0.302972 
2137 2 238.624 -229.019 -583.496 -0.100401 -0.545558 0.812188 0.180654 
2130 2 240.116 -266.495 -528.583 0.280296 -0.341092 0.838729 0.318786 
2136 2 242.67 -231.82 -574.969 0.0901303 -0.953238 0.167538 0.234828 
2131 2 242.674 -259.269 -534.929 -0.167365 0.441404 0.850113 0.233366 
2117 2 242.011 -303.188 -618.116 0.0467408 0.454936 -0.478359 -0.74968 
2132 2 242.418 -253.863 -543.183 -0.278364 0.924655 0.151129 0.211392 
2142 2 210.752 -216.228 -621.118 0.36491 -0.765832 -0.501848 0.168792 
2116 2 248 -311.144 -618.042 -0.562741 0.698683 -0.00697442 -0.441718 
2133 2 245.178 -247.757 -550.538 -0.255055 0.696857 -0.650239 -0.16287 
2143 2 205.085 -211.98 -628.015 0.158359 -0.87684 0.291445 0.348042 
2135 2 245.561 -236.145 -566.552 0.276897 -0.743276 -0.606465 -0.0553934 
2134 2 245.893 -241.657 -558.346 0.0208936 -0.0147249 -0.958572 -0.283701 
2115 2 252.784 -319.831 -617.791 -0.642084 0.488713 0.550055 0.215239 
2114 2 256.184 -328.977 -619.209 -0.166453 -0.0770516 0.66891 0.720358 
2113 2 258.365 -338.21 -621.871 0.505853 -0.487471 0.343308 0.623398 
2112 2 260.861 -347.414 -624.666 0.804581 -0.566361 -0.0847084 0.157193 
2111 2 264.636 -355.783 -628.509 0.676607 -0.272481 -0.484118 -0.483307 
2144 2 199.368 -207.193 -634.593 -0.273422 -0.274429 0.781288 0.489406 
2145 2 192.361 -201.699 -638.762 -0.602634 0.382882 0.690529 0.115775 
2157 2 111.228 -153.791 -574.626 -0.780295 0.0769326 -0.611559 0.105907 
2154 2 147.665 -128.879 -655.197 -0.178339 0.669101 -0.486058 -0.533147 
2153 2 153.622 -136.024 -651.605 -0.507766 0.812557 0.155813 -0.240097 
2152 2 159.483 -143.853 -650.399 -0.58356 0.414454 0.652267 0.249466 
2151 2 164.545 -152.309 -649.142 -0.134488 -0.223547 0.737325 0.62313 
2150 2 168.395 -160.515 -645.37 0.40905 -0.755589 0.310115 0.406931 
2149 2 171.253 -169.483 -642.549 0.590323 -0.685936 -0.398999 -0.147686 
2158 2 120.684 -154.031 -571.748 -0.629998 -0.414697 -0.365451 -0.545504 
2159 2 129.624 -154.999 -567.722 -0.000133576 -0.624058 0.173928 -0.761774 
2155 1 119.439 -138.947 -618.685 0.656503 0.479734 0.350587 0.464702 
2156 3 150.432 -151.447 -608.378 0.667406 0.484398 0.35481 0.440497 
2160 2 139.135 -157.354 -566.19 0.590185 -0.294518 0.594372 -0.460067 
2161 2 148.671 -159.868 -564.897 0.625007 0.343695 0.662835 0.227793 
2162 2 158.366 -161.57 -566.214 0.180687 0.722978 0.285064 0.602821 
2163 2 168.096 -160.935 -568.15 -0.330176 0.657713 -0.384319 0.557401 
2164 2 177.808 -160.627 -569.983 -0.572063 0.191379 -0.792599 0.0889083 
2165 2 187.251 -159.601 -572.866 -0.434408 -0.447445 -0.654668 -0.427192 
2166 2 196.681 -157.693 -575.241 0.161259 -0.643671 -0.0539184 -0.746174 
2167 2 206.118 -154.792 -574.249 0.682757 -0.463076 0.425794 -0.371621 
2148 2 175.317 -178.538 -642.385 0.424816 -0.121592 -0.705075 -0.554632 
2147 2 181.421 -186.416 -642.311 0.0013971 0.419162 -0.575688 -0.702057 
2146 2 185.302 -195.504 -641.913 -0.627105 0.717182 -0.0579308 -0.298383 
2168 2 215.469 -152.202 -571.838 0.79595 0.0641772 0.573911 0.181579 
2169 2 224.59 -151.615 -568.01 0.299958 0.38893 0.285793 0.822849 
2170 2 232.724 -149.644 -562.744 -0.414649 0.415917 -0.152983 0.79478 
2171 2 240.403 -148.955 -556.586 -0.944201 0.134121 -0.271523 0.129508 
2198 2 208.765 -65.7694 -529.333 -0.602703 0.593116 -0.371888 -0.382965 
2197 2 208.003 -75.1699 -526.171 -0.514758 0.760727 0.274391 0.284655 
2196 2 208.257 -84.4613 -522.717 -0.230736 0.217828 0.788308 0.527145 
2195 2 206.763 -92.9788 -517.916 0.357459 -0.441545 0.728011 0.383746 
2194 2 204.157 -101.93 -514.488 0.594549 -0.779328 0.19279 -0.0446191 
2172 2 245.932 -146.891 -548.734 -0.692262 -0.207939 -0.317372 -0.613848 
2173 2 252.271 -146.559 -541.204 0.0912348 -0.26477 0.179281 -0.943097 
2174 2 257.908 -148.952 -533.402 0.80865 0.0518988 0.271052 -0.519541 
2175 2 261.981 -152.728 -525.241 0.887938 0.289125 0.216956 0.284434 
2176 2 267.038 -156.102 -517.487 0.280093 0.363478 -0.157546 0.87442 
2199 2 208.9 -55.8988 -529.95 -0.0467804 0.072307 -0.716642 -0.692104 
2319 2 210.351 77.4654 -560.904 -0.869216 0.315048 0.0372113 -0.379242 
2320 2 207.664 82.4543 -552.866 -0.250124 0.284048 -0.192035 -0.905471 
2321 2 203.301 86.5678 -544.918 0.59108 0.0354336 -0.379167 -0.711057 
2322 2 198.547 91.9425 -538.052 0.907276 -0.383479 -0.172587 0.00284736 
2211 2 129.676 45.0749 -531.202 0.871358 0.468316 -0.0352646 -0.14203 
2209 1 176.336 45.0112 -524.439 -0.666703 -0.363605 0.44808 -0.471723 
2212 2 127.556 37.1894 -525.568 0.597423 0.21318 -0.441659 0.63449 
2201 2 209.68 -36.3274 -528.748 0.807283 -0.539411 0.146726 0.189215 
2200 2 208.737 -46.0035 -530.181 0.559908 -0.547724 -0.38525 -0.487938 
2202 2 210.256 -27.3938 -524.717 0.446011 -0.299881 0.520024 0.663868 
2213 2 125.189 29.5386 -519.677 -0.177722 -0.166838 -0.432067 0.868273 
2203 2 210.444 -17.8225 -522.339 -0.341265 0.250716 0.534269 0.731599 
2204 2 210.75 -8.35754 -519.301 -0.79889 0.521834 0.169162 0.246676 
2205 2 210.816 0.701103 -515.274 -0.769068 0.459927 -0.231144 -0.378913 
2214 2 123.634 21.4244 -514.375 -0.851823 -0.390008 -0.117381 0.329413 
2323 2 195.959 98.7222 -531.293 0.658836 -0.356501 0.193959 0.633421 
2324 2 193.749 105.908 -524.889 -0.0712253 0.0544699 0.477569 0.874006 
2317 1 240.116 110.425 -576.918 0.503751 -0.158863 0.0858982 0.84476 
2318 3 234.22 120.468 -543.868 0.479622 -0.136293 0.0660503 0.864306 
2346 2 131.302 173.446 -577.768 0.480897 0.382344 -0.115098 0.780579 
2347 2 135.58 168.18 -570.579 -0.367597 0.216425 -0.239779 0.872089 
2348 2 140.988 165.799 -562.611 -0.935371 -0.077535 -0.248451 0.239461 
2349 2 145.003 163.203 -553.995 -0.783168 -0.170853 0.0633815 -0.594509 
2350 2 145.986 159.725 -544.846 -0.0575245 0.0149732 0.144753 -0.987681 
2351 2 145.44 157.139 -535.259 0.743373 0.0658832 -0.0575942 -0.663129 
2352 2 144.283 156.722 -525.473 0.989302 -0.071891 -0.0744053 0.102846 
2344 1 122.353 216.658 -561.016 -0.0307495 -0.344148 0.189572 -0.919064 
2345 3 143.547 202.835 -536.798 -0.0419483 -0.353925 0.253924 -0.899166 
2325 2 194.346 114.26 -519.566 -0.677829 0.49478 0.227809 0.493804 
2340 2 149.14 241.521 -514.82 -0.410128 0.725889 0.430736 -0.345466 
2341 2 140.693 244.678 -518.831 0.0340841 0.801134 -0.234291 -0.549663 
2353 2 142.286 158.365 -515.938 0.472075 -0.219816 0.0104494 0.85365 
2342 2 132.001 247.027 -522.833 0.323477 0.384107 -0.792739 -0.345528 
2326 2 196.453 122.992 -515.449 -0.797246 0.487854 -0.193219 -0.298435 
2311 2 275.897 136.498 -526.488 0.0569587 0.208636 -0.962783 -0.162098 
2312 2 274.084 139.258 -535.874 0.223315 -0.597562 -0.769636 -0.0266367 
2316 2 265.571 149.937 -572.867 -0.18089 0.926869 0.327509 -0.0304914 
2315 2 267.311 146.997 -563.566 -0.136631 0.339942 0.923484 0.113794 
2314 2 269.48 143.678 -554.54 -0.012222 -0.53529 0.820694 0.199442 
2313 2 271.453 142.203 -544.935 0.0609526 -0.990683 0.0374936 0.115869 
2310 2 277.715 132.999 -517.335 -0.139377 0.889373 -0.402603 -0.165836 
2343 2 124.155 250.204 -527.885 0.460677 -0.477601 -0.739913 0.110468 
2964 2 57.0739 798.602 -537.289 -0.295125 0.678564 0.653205 0.160545 
2963 2 58.5789 792.424 -529.723 -0.0649647 -0.0819966 0.940976 0.321901 
2962 2 57.676 786.267 -521.943 0.31347 -0.768465 0.534703 0.159029 
2965 1 44.7445 839.003 -516.418 0.948691 0.313 0.0291876 -0.0341217 
2961 2 55.236 779.81 -514.904 0.326172 -0.908849 -0.18325 -0.184455 
1803 2 24.06 -828.991 -410.114 -0.022465 0.563909 0.308239 -0.765826 
1802 2 32.8756 -824.744 -411.762 -0.570607 0.17713 0.626883 -0.50005 
1801 2 41.864 -820.658 -411.922 -0.682616 -0.460202 0.521267 0.224789 
1800 2 49.872 -814.867 -411.904 -0.18732 -0.641995 -0.258911 0.696935 
1851 2 76.1094 -756.503 -513.999 0.157774 -0.856485 -0.0407436 0.489776 
1859 3 79.538 -712.287 -509.764 -0.72793 -0.333615 -0.528567 0.281844 
1850 2 83.0746 -759.449 -507.62 0.396272 -0.531856 -0.736803 0.131223 
1799 2 57.0385 -808.094 -410.856 0.417921 -0.0471933 -0.736162 0.530264 
1796 2 69.0056 -781.335 -408.977 0.027507 0.240454 0.703299 -0.668428 
1797 2 66.1083 -790.68 -409.478 0.477269 0.729105 0.215575 -0.440622 
1798 2 62.1295 -799.61 -410.942 0.707088 0.524241 -0.455607 0.13274 
1805 3 24.0675 -777.363 -404.448 0.58095 -0.18263 0.767691 0.199484 
1810 2 11.9997 -735.985 -409.86 0.320536 0.639245 0.55873 0.420052 
1811 2 20.961 -734.884 -413.99 -0.0512376 0.787386 -0.130896 0.60022 
1812 2 30.4994 -735.225 -416.719 -0.486801 0.456439 -0.683988 0.294703 
1813 2 39.7839 -734.518 -419.92 -0.542192 -0.2948 -0.760761 -0.200907 
1814 2 49.2469 -734.128 -423.134 -0.154324 -0.70788 -0.221757 -0.652621 
1815 2 59.0396 -733.794 -424.63 0.472787 -0.682004 0.384789 -0.40408 
1816 2 68.0584 -730.472 -426.956 0.597694 -0.114715 0.786377 0.105895 
1817 2 77.1283 -727.044 -429.083 0.269569 0.484328 0.606084 0.570457 
1809 2 3.54326 -738.07 -405.054 0.50015 -0.0808303 0.859196 0.0714074 
1808 2 -3.24031 -743.161 -399.908 0.466012 -0.731838 0.461133 -0.186017 
1804 1 -4.58579 -794.912 -394.381 0.601231 -0.229307 0.746066 0.171245 
1807 2 -9.65757 -746.935 -393.338 0.0605672 -0.852225 -0.306536 -0.419618 
1806 2 -16.0264 -749.906 -386.263 -0.249669 -0.373891 -0.854225 -0.261096 
1795 2 71.9774 -772.053 -407.306 -0.508665 -0.40981 0.650651 -0.387258 
1794 2 75.1242 -763.031 -404.494 -0.597365 -0.786769 0.115605 0.103851 
1818 2 85.7061 -722.508 -430.785 -0.339394 0.706188 -0.0147299 0.621203 
1764 2 41.4164 -684.95 -374.763 0.272073 -0.865749 0.419273 0.0257892 
1793 2 77.939 -753.759 -402.731 -0.307933 -0.544391 -0.524443 0.577733 
1792 2 79.5495 -744.408 -399.992 0.151888 0.129862 -0.77943 0.593763 
1791 2 80.8351 -734.766 -397.87 0.587858 0.703611 -0.346226 0.1987 
1790 2 83.1052 -725.271 -396.345 0.483307 0.708018 0.314761 -0.407494 
1789 2 85.9254 -715.798 -396.534 -0.0537047 0.161377 0.693311 -0.700281 
1763 2 42.4742 -689.447 -366.024 0.27906 -0.864229 -0.415024 -0.0546655 
1765 2 43.1447 -680.296 -383.199 0.184016 -0.240207 0.930838 0.20489 
1788 2 90.607 -707.23 -394.818 -0.536691 -0.419605 0.663587 -0.309106 
1766 2 44.5913 -675.612 -391.751 -0.0747342 0.635699 0.735933 0.220687 
1819 2 94.5985 -718.13 -431.162 -0.696205 0.48461 -0.525125 0.0685259 
1767 2 46.2951 -671.314 -400.546 -0.307638 0.93993 0.0373415 0.143166 
1849 2 89.5061 -759.921 -500.189 0.314191 0.270647 -0.90095 -0.127767 
1787 2 95.4962 -698.785 -392.944 -0.587199 -0.769097 0.0849861 0.237623 
1848 2 96.0962 -760.309 -492.851 0.104317 0.889582 -0.297477 -0.33056 
1786 2 100.53 -692.105 -387.618 -0.0840409 -0.635273 -0.595085 0.485015 
1868 2 133.115 -728.967 -512.194 0.499786 0.656128 -0.49861 0.266643 
1867 2 131.316 -719.444 -510.019 0.586602 0.751715 0.280365 -0.110538 
1785 2 105.088 -686.463 -380.785 0.26297 0.0142826 -0.929255 0.259092 
1866 2 128.803 -710.342 -506.878 0.306795 0.216288 0.787334 -0.489083 