ITEM: TIMESTEP
10000000
ITEM: NUMBER OF ATOMS
4067
ITEM: BOX BOUNDS pp pp pp
-4.6310929470000001e+03 4.6704658980000004e+03
-4.6310929470000001e+03 4.6704658980000004e+03
-4.6310929470000001e+03 4.6704658980000004e+03
ITEM: ATOMS id type x y z c_q[1] c_q[2] c_q[3] c_q[4] 
2371 1 296.182 -564.961 -538.302 -0.843764 0.534166 0.0310512 -0.0420139 
2373 2 272.701 -539.689 -570.542 0.611165 -0.447463 -0.305234 -0.577137 
2374 2 274.266 -530.918 -566.097 0.839219 -0.527849 0.106171 0.076246 
2375 2 274.986 -521.93 -561.956 0.413029 -0.251911 0.468885 0.738982 
2372 3 292.401 -533.822 -522.799 -0.854627 0.510418 0.00447052 -0.0952124 
2376 2 275.332 -512.793 -558.232 -0.217215 0.210986 0.461921 0.833625 
2377 2 277.529 -504.503 -553.252 -0.765508 0.453461 0.0100871 0.456365 
2378 2 282.158 -497.849 -547.602 -0.869307 0.161744 -0.391598 -0.254549 
2454 2 270.735 -468.022 -537.435 0.658819 -0.0824083 0.219621 0.714796 
2379 2 288.481 -493.524 -541.382 -0.353302 -0.304562 -0.351363 -0.811766 
2380 2 295.706 -490.122 -535.644 0.427986 -0.453768 -0.0594479 -0.779351 
2400 2 366.389 -503.772 -582.268 -0.911099 0.188873 0.348093 0.114265 
2401 2 360.521 -499.845 -575.345 -0.661888 0.439055 0.026411 -0.606991 
2402 2 354.707 -494.295 -569.537 0.116216 0.226584 -0.49326 -0.831774 
2403 2 349.739 -486.57 -565.938 0.754441 -0.121836 -0.406778 -0.500506 
2404 2 345.227 -480.563 -559.517 0.887087 -0.373526 -0.043639 0.267675 
2405 2 342.266 -474.438 -552.31 0.275718 -0.204464 0.24975 0.905427 
2406 2 340.394 -468.095 -544.927 -0.533411 0.15291 0.33332 0.762226 
2452 1 301.98 -452.876 -569.324 -0.535652 0.0630992 -0.314802 -0.781022 
2453 3 310.038 -434.238 -540.901 -0.451872 0.0306731 -0.31863 -0.832674 
2451 2 337.737 -425.761 -583.878 -0.0653108 -0.667912 -0.691366 0.267658 
2450 2 340.34 -421.288 -575.446 0.219902 0.279079 -0.919147 0.17008 
2449 2 342.489 -416.4 -567.057 0.291759 0.908328 -0.296092 -0.0463345 
2446 2 345.634 -407.066 -539.531 -0.0610331 -0.635515 0.756833 -0.139999 
2448 2 345.202 -411.834 -558.683 0.143961 0.797051 0.515054 -0.280545 
2447 2 346.511 -409.674 -549.044 -0.0557428 0.134953 0.977734 -0.150719 
2407 2 339.038 -461.98 -537.248 -0.971532 0.194981 0.0736553 0.112614 
2455 2 272.49 -463.848 -528.67 -0.179809 0.167878 0.296534 0.922796 
2381 2 302.2 -485.825 -529.562 0.829117 -0.301161 0.393527 -0.258851 
2408 2 338.488 -457.55 -528.383 -0.680468 0.108813 -0.13561 -0.711851 
2399 3 381.703 -482.454 -537.431 -0.72271 0.345247 0.181409 -0.570601 
2409 2 338.862 -454.035 -519.246 0.127256 0.0704031 -0.231797 -0.961831 
2382 2 309.699 -482.788 -523.914 0.755751 0.0232107 0.400521 0.517575 
2383 2 315.487 -478.703 -517.021 0.044375 0.345701 0.247433 0.904046 
2445 2 343.083 -405.593 -530.04 -0.0354635 -0.992114 0.0111389 -0.119697 
2444 2 341.906 -406.44 -520.277 -0.00530278 -0.698635 -0.70939 -0.0929886 
2456 2 275.119 -458.319 -520.758 -0.837377 0.39536 -0.0997553 0.364059 
2457 2 278.774 -451.739 -514.333 -0.763354 0.207866 -0.35827 -0.495707 
2398 1 406.425 -494.329 -559.212 -0.686664 0.370085 0.172624 -0.601441 
2397 2 431.325 -476.765 -523.202 -0.0255592 0.922916 0.00794221 0.384069 
2396 2 424.051 -477.201 -516.539 0.296493 0.53448 0.746125 0.264047 
2481 2 381.903 -348.255 -516.447 -0.304294 -0.671894 0.268539 0.619557 
2482 2 372.052 -348.909 -516.519 -0.788788 -0.147851 0.582642 0.128384 
2319 2 145.254 -539.705 -458.708 -0.959604 0.276177 -0.0289519 0.0452653 
2320 2 145.935 -534.319 -450.402 -0.623384 0.168946 -0.281462 -0.709668 
2321 2 146.897 -527.883 -442.884 0.209997 -0.0577623 -0.375019 -0.901069 
2317 1 184.54 -528.174 -482.087 -0.640945 0.132498 -0.238305 -0.717526 
2322 2 147.059 -521.056 -435.706 0.758732 -0.3075 -0.163565 -0.550469 
2323 2 148.311 -514.645 -428.194 0.812293 -0.427597 0.336099 0.210659 
2370 2 320.368 -569.901 -498.061 -0.258695 -0.625958 0.510588 -0.529673 
2369 2 316.843 -561.397 -494.604 -0.559495 -0.805563 -0.150393 -0.124158 
2367 2 310.43 -544.776 -486.139 0.00985165 0.355521 -0.762671 0.540223 
2368 2 313.916 -553.199 -490.136 -0.37783 -0.463229 -0.709052 0.374044 
2366 2 304.942 -537.535 -482.212 0.352047 0.807384 -0.121166 0.457725 
2365 2 298.848 -530.907 -478.23 0.53401 0.566139 0.622401 -0.0832912 
2364 2 292.009 -523.825 -476.823 0.409894 -0.05144 0.732727 -0.540788 
2427 2 324.575 -524.233 -434.185 -0.553165 0.74706 -0.338925 0.145054 
2363 2 287.44 -515.586 -473.825 -0.293166 -0.674635 0.416607 -0.534191 
2428 2 330.285 -516.95 -437.357 -0.498909 0.174251 -0.795788 -0.295715 
2290 1 102.097 -476.301 -398.744 0.612854 0.389355 0.440069 0.528348 
2318 3 187.923 -510.977 -451.838 -0.610274 0.148365 -0.239652 -0.740352 
2316 2 226.258 -506.614 -486.53 0.184534 0.976026 -0.114997 0.00975588 
2315 2 226.556 -503.007 -477.25 0.135253 0.736417 0.646723 -0.145419 
2313 2 228.928 -497.779 -458.318 -0.151628 -0.707133 0.690631 0.000807562 
2312 2 230.042 -496.649 -448.609 -0.0437604 -0.988945 -0.12222 0.0716594 
2314 2 227.216 -499.712 -467.908 -0.00884917 0.0332308 0.987052 -0.156673 
2311 2 228.039 -496.498 -438.953 -0.11086 -0.497869 -0.858922 -0.0457191 
2310 2 224.533 -495.379 -429.712 -0.139803 0.429769 -0.880143 0.145267 
2309 2 220.28 -495.593 -420.679 -0.0661074 0.9561 -0.17255 0.227438 
2308 2 215.251 -495.563 -412.098 0.174731 0.718667 0.648189 0.181215 
2324 2 152.323 -506.284 -424.753 0.485448 -0.0150676 0.606102 0.629884 
2289 2 126.337 -471.307 -438.933 0.490936 0.748124 -0.422077 -0.145408 
2288 2 132.639 -465.345 -434.219 0.178468 0.803254 0.30865 -0.477145 
2287 2 138.541 -459.224 -429.055 -0.249066 0.23896 0.837335 -0.42395 
2307 2 209.372 -494.305 -404.298 0.284836 -0.0525404 0.952047 -0.0985579 
2306 2 203.524 -495.213 -396.428 0.243798 -0.776028 0.548083 -0.194802 
2325 2 157.563 -498.513 -421.863 -0.168104 0.510748 0.384367 0.750426 
2326 2 163.597 -490.818 -420.012 -0.715992 0.629374 -0.16995 0.24972 
2291 3 135.29 -475.206 -387.888 0.638757 0.414269 0.475193 0.441093 
2327 2 169.038 -482.99 -417.36 -0.613384 0.301012 -0.57583 -0.448967 
2328 2 173.149 -474.358 -414.76 0.0115243 -0.253535 -0.43698 -0.862923 
2281 2 165.754 -429.552 -386.153 0.130049 0.918552 0.249623 -0.277557 
2282 2 161.335 -432.565 -394.426 0.311906 0.796178 -0.514245 -0.0660868 
2283 2 157.475 -436.74 -402.595 0.29237 0.133725 -0.905925 0.275566 
2284 2 152.824 -442.997 -408.833 0.00163993 -0.673836 -0.587107 0.448607 
2285 2 147.232 -447.986 -415.338 -0.403405 -0.889765 0.11021 0.182856 
2286 2 143.26 -454.232 -421.969 -0.406595 -0.501189 0.755483 -0.112856 
2329 2 177.431 -466.638 -410.375 0.541351 -0.575717 0.0367612 -0.611668 
2330 2 184.458 -460.93 -406.449 0.821929 -0.343017 0.451989 0.0497738 
2331 2 191.389 -454.639 -403.04 0.357931 0.14037 0.661482 0.643912 
2332 2 198.034 -447.414 -401.806 -0.313279 0.640921 0.27047 0.64647 
2333 2 204.65 -440.147 -401.514 -0.7136 0.595552 -0.342596 0.136826 
2334 2 210.678 -432.254 -401.184 -0.577389 0.154557 -0.643315 -0.478414 
2303 2 184.61 -483.824 -376.711 -0.279094 0.158477 -0.873966 0.364932 
2304 2 190.902 -488.834 -382.565 -0.36639 -0.60677 -0.698904 -0.0955056 
2305 2 197.033 -492.698 -389.338 -0.139673 -0.920828 -0.0378964 -0.36212 
2335 2 216.573 -424.321 -400.257 -0.00339101 -0.359215 -0.600447 -0.714435 
2336 2 221.719 -415.871 -399.719 0.599985 -0.629561 -0.114271 -0.480222 
2280 2 169.542 -426.862 -377.482 -0.11997 0.411118 0.875016 -0.22569 
2337 2 226.329 -407.11 -398.789 0.746376 -0.454517 0.481823 0.0646807 
2338 2 232.599 -399.688 -397.124 0.378336 0.155163 0.63957 0.650951 
2279 2 174.076 -421.946 -370.112 -0.336087 -0.436943 0.826846 -0.111586 
2302 2 179.022 -478.068 -370.959 0.126989 0.776753 -0.439639 0.43272 
2339 2 240.08 -393.384 -395.397 -0.239409 0.586863 0.155861 0.757617 
2301 2 172.907 -472.786 -365.336 0.417319 0.805959 0.3824 0.173337 
2278 2 177.656 -416.765 -362.478 -0.317315 -0.930844 0.0987805 0.151934 
2340 2 248.349 -388.638 -392.559 -0.641895 0.499207 -0.455982 0.361722 
2384 2 322.206 -474.426 -511.075 -0.621004 0.434258 -0.178035 0.627757 
2410 2 337.14 -450.403 -510.204 0.857445 -0.055033 -0.167209 -0.483529 
2443 2 341.343 -408.061 -510.488 -0.00989662 0.119783 -0.989932 -0.0747628 
2362 2 282.54 -507.839 -469.974 -0.540784 -0.77365 -0.322846 -0.0691981 
2361 2 279.691 -500.577 -463.853 -0.268128 -0.244041 -0.863813 0.349827 
2429 2 337.254 -510.785 -440.48 -0.0946727 -0.451763 -0.688804 -0.559013 
2385 2 329.813 -471.427 -505.527 -0.915648 0.0345697 -0.399696 -0.0252376 
2341 2 257.506 -385.1 -391.495 -0.678844 -0.0532469 -0.675218 -0.283578 
2411 2 334.493 -447.158 -501.19 0.908202 -0.271485 -0.134634 0.288684 
2386 2 336.998 -470.687 -498.69 -0.586192 -0.421806 -0.319902 -0.613288 
2387 2 345.787 -471.069 -494.063 0.0453153 -0.595006 0.17876 -0.782278 
2442 2 341.707 -412.272 -501.51 -0.173686 0.790144 -0.569522 -0.145432 
2388 2 355.13 -473.131 -491.267 0.592138 -0.278212 0.590645 -0.472344 
2458 2 282.121 -445.107 -507.81 -0.086146 -0.256939 -0.45078 -0.850505 
2353 2 262.953 -473.381 -391.901 0.0674545 0.687821 -0.707087 0.149601 
2352 2 262.435 -471.961 -382.085 0.0719142 0.985565 0.150377 0.0296145 
2354 2 263.87 -476.175 -401.351 -0.119139 -0.154664 -0.969266 0.149691 
2351 2 263.619 -470.158 -372.502 0.00520005 0.579756 0.811185 -0.0763868 
2355 2 265.327 -479.662 -410.495 -0.195884 -0.878053 -0.436296 0.0172774 
2356 2 267.126 -483.096 -419.557 -0.10317 -0.862962 0.478808 -0.124077 
2359 2 272.636 -493.676 -446.663 0.196301 0.967677 0.000542684 0.158326 
2391 2 383.355 -482.069 -492.064 -0.27845 0.590152 -0.533807 0.537807 
2390 2 374.002 -478.735 -491.49 0.299368 0.716963 0.110001 0.619874 
2389 2 364.648 -475.743 -490.555 0.639758 0.371554 0.660058 0.130305 
2430 2 343.343 -503.897 -444.194 0.463226 -0.755495 -0.166323 -0.432418 
2357 2 268.475 -486.591 -428.724 0.0599189 -0.248583 0.935018 -0.24568 
2431 2 348.422 -495.737 -446.472 0.585033 -0.651989 0.443636 0.189302 
2358 2 270.55 -490.953 -437.362 0.185202 0.593401 0.78317 -0.0148859 
2360 2 275.74 -496.956 -455.508 -0.0393903 0.675707 -0.692504 0.249611 
2412 2 330.689 -442.956 -493.06 0.275338 -0.17864 0.0681206 0.942145 
2459 2 286.822 -437.691 -503.198 0.569899 -0.483544 -0.0990073 -0.656961 
2460 2 292.044 -431.14 -497.774 0.871634 -0.41024 0.248428 0.101192 
2461 2 295.322 -423.42 -492.577 0.490241 -0.135561 0.460317 0.727596 
2462 2 297.944 -415.591 -487.151 -0.146944 0.355185 0.40047 0.83179 
2463 2 302.628 -407.899 -482.955 -0.830488 0.406356 0.050262 0.377674 
2464 2 305.454 -401.213 -476.254 -0.84555 0.247834 -0.301962 -0.363927 
2432 2 351.176 -486.606 -448.914 0.17718 -0.0282399 0.737862 0.650669 
2438 2 351.712 -433.246 -469.808 0.295397 -0.920182 0.177948 0.185313 
2437 2 352.55 -440.162 -462.839 0.330054 -0.776416 -0.514339 -0.153938 
2413 2 327.059 -440.666 -484.179 -0.543777 -0.144548 0.143081 0.814212 
2425 1 295.853 -496.539 -409.063 -0.236991 0.826755 0.345141 0.375752 
2414 2 322.746 -439.906 -475.309 -0.969349 0.0474536 0.232976 0.0619118 
2415 2 318.151 -438.734 -466.566 -0.667989 0.338488 0.027955 -0.662144 
2416 2 313.108 -435.057 -458.855 0.171953 0.387506 -0.14943 -0.893276 
2433 2 352.997 -476.995 -450.092 -0.459761 0.540221 0.500282 0.496486 
2435 2 353.09 -457.45 -453.433 -0.336572 0.564663 -0.625487 -0.420287 
2436 2 352.404 -448.216 -457.026 0.0729924 -0.152718 -0.879754 -0.444277 
2434 2 353.636 -467.202 -451.419 -0.624711 0.780474 -0.00442775 -0.0240281 
2417 2 306.157 -434.064 -451.932 0.798991 0.161604 -0.371649 -0.444268 
2426 3 312.367 -473.959 -430.061 -0.24073 0.824613 0.318961 0.400407 
2418 2 299.21 -433.568 -444.99 0.885656 -0.0692815 -0.295252 0.351625 
2419 2 292.953 -434.375 -437.46 0.257649 -0.210575 -0.199832 0.921598 
2424 2 279.174 -454.641 -395.222 0.922688 0.27447 0.0245787 -0.269646 
2423 2 280.172 -449.697 -403.743 0.366812 0.150894 0.209665 -0.893712 
2420 2 288.445 -436.683 -428.992 -0.589574 -0.283054 -0.107349 0.748839 
2422 2 282.873 -445.966 -412.403 -0.577292 -0.0124413 0.27255 -0.769607 
2421 2 285.228 -441.191 -420.833 -0.956501 -0.252337 0.14556 0.015637 
2345 3 260.711 -425.445 -374.418 -0.308302 -0.867424 -0.0992201 0.37773 
2468 2 318.129 -373.846 -450.902 0.633198 -0.152567 0.451271 0.610031 
2467 2 314.333 -381.069 -456.458 0.861689 -0.460082 0.141302 -0.160781 
2466 2 310.729 -387.765 -462.858 0.487969 -0.35272 -0.232391 -0.763852 
2465 2 308.444 -395.156 -468.995 -0.234572 -0.00386142 -0.420089 -0.876634 
2441 2 343.927 -416.677 -492.978 -0.254478 0.922155 0.288934 -0.0372693 
2439 2 349.166 -426.861 -476.895 -0.0638342 -0.448852 0.853957 0.255371 
2440 2 345.817 -422.385 -485.057 -0.212965 0.353767 0.877532 0.243789 
2342 2 266.774 -381.825 -390.567 -0.197405 -0.511524 -0.403065 -0.732744 
2392 2 392.63 -484.296 -494.633 -0.518346 -0.00343203 -0.854433 -0.0353536 
2343 2 275.847 -378.044 -389.329 0.459079 -0.633506 0.18229 -0.595556 
2469 2 322.644 -366.813 -445.688 -0.0519231 0.376182 0.360338 0.852026 
2350 2 267.372 -468.606 -363.457 -0.21448 -0.340906 0.9149 -0.0272027 
2393 2 401.487 -483.588 -498.825 -0.160188 -0.649736 -0.552486 -0.496932 
2394 2 409.904 -480.578 -503.146 0.224333 -0.878462 0.261485 -0.331067 
2395 2 417.2 -478.536 -509.514 0.403236 -0.29938 0.863015 -0.0545619 
2532 2 188.412 -261.806 -418.887 -0.433969 -0.485858 0.754451 0.0801036 
2531 2 195.663 -259.434 -412.434 -0.14122 -0.912586 0.00771805 0.383646 
2530 2 203.521 -256.654 -407.094 0.248905 -0.55389 -0.689171 0.395342 
2529 2 213.256 -254.804 -405.95 0.66218 0.149096 -0.733959 -0.0243212 
2528 2 222.645 -251.765 -405.869 0.45457 0.657798 -0.283454 -0.529455 
2527 2 231.599 -247.414 -406.511 -0.0216294 0.628787 0.367175 -0.685085 
2526 2 240.707 -243.854 -407.855 -0.668171 0.102204 0.624787 -0.390823 
2533 1 174.43 -290.669 -384.302 -0.37803 -0.342707 -0.530571 -0.67686 
2534 3 203.882 -276.649 -371.581 -0.369829 -0.378172 -0.487817 -0.69444 
2470 2 328.765 -360.557 -441.133 -0.670338 0.438267 -0.137605 0.582781 
2525 2 249.151 -239.328 -410.288 -0.740273 -0.465851 0.40329 0.268954 
2471 2 335.839 -356.33 -435.454 -0.906155 0.1161 -0.369429 -0.170077 
2483 2 362.629 -349.921 -513.955 -0.62867 0.37534 0.481428 -0.481789 
2484 2 352.987 -349.837 -511.444 -0.0166895 0.604384 -0.0402152 -0.795502 
2472 2 342.039 -352.501 -428.701 -0.326884 -0.224581 -0.555048 -0.731186 
2524 2 257.56 -236.549 -414.889 -0.240829 -0.486941 -0.0142296 0.839456 
2485 2 343.409 -348.704 -509.101 0.664754 0.242375 -0.381323 -0.594937 
2486 2 335.025 -347.644 -503.958 0.871901 -0.249269 -0.401776 0.127396 
2487 2 328.112 -343.935 -497.833 0.525234 -0.385016 -0.0764343 0.755016 
2480 3 362.012 -340.556 -469.09 0.483552 -0.383992 -0.517309 0.592554 
2473 2 348.58 -345.819 -425.844 0.2354 -0.586907 -0.159277 -0.758128 
2488 2 321.336 -341.054 -491.166 -0.27842 -0.17397 0.383738 0.863112 
2489 2 316.879 -335.59 -484.225 -0.92451 0.108547 0.292336 0.219178 
2479 1 395.001 -330.315 -474.819 0.513929 -0.340864 -0.510328 0.599379 
2474 2 356.537 -340.564 -423.664 0.706477 -0.509426 0.449473 -0.198365 
2490 2 311.419 -332.251 -476.55 -0.747614 0.356425 0.0597667 -0.557191 
2475 2 364.739 -335.065 -423.122 0.512812 0.0305113 0.779398 0.358652 
2476 2 372.782 -329.652 -425.106 0.0124879 0.632796 0.39933 0.663286 
2491 2 306.721 -327.608 -469.219 -0.120631 0.189287 -0.323393 -0.919258 
2477 2 381.017 -324.363 -426.618 -0.417486 0.823876 -0.0726807 0.376366 
2492 2 304.005 -321.391 -461.998 0.665166 -0.103035 -0.362888 -0.644399 
2493 2 300.397 -314.853 -455.537 0.960053 -0.265808 -0.0640181 0.0595438 
2494 2 298.351 -309.59 -447.306 0.545794 -0.1326 0.251203 0.788304 
2495 2 298.747 -303.993 -439.096 -0.253168 0.102861 0.154205 0.949498 
2496 2 300.022 -300.448 -429.898 -0.906356 0.122762 -0.0824652 0.395787 
2498 2 307.126 -299.258 -411.632 -0.246096 -0.237037 0.110245 -0.933325 
2497 2 302.96 -299.099 -420.554 -0.842095 -0.0953182 -0.196497 -0.493132 
2499 2 310.261 -302.922 -402.978 0.60359 -0.0786853 0.160486 -0.777002 
2500 2 313.808 -304.192 -393.903 0.937676 0.0520149 0.298074 0.17091 
2512 2 354.474 -274.759 -456.802 -0.682191 0.357498 0.597258 -0.223816 
2511 2 364.186 -276.197 -455.908 -0.561045 -0.207869 0.735553 0.317776 
2513 2 344.749 -272.729 -456.495 -0.291911 0.643101 0.00908637 -0.707903 
2514 2 335.905 -268.858 -454.387 0.320199 0.306022 -0.486047 -0.75338 
2515 2 328.227 -263.359 -451.267 0.744075 -0.146015 -0.577208 -0.303088 
2516 2 320.394 -257.974 -448.461 0.661818 -0.620927 -0.085481 0.411266 
2517 2 314.019 -250.904 -445.805 0.0981817 -0.512274 0.346935 0.779469 
2518 2 306.317 -245.324 -442.979 -0.661023 -0.0470763 0.535165 0.523862 
2519 2 298.651 -240.829 -438.635 -0.790454 0.36016 0.46235 -0.178043 
2520 2 290.336 -236.658 -435.27 -0.309036 0.484958 -0.00414294 -0.818105 
2521 2 282.363 -233.976 -429.991 0.553661 0.339255 -0.280586 -0.70685 
2522 2 274.429 -232.823 -424.242 0.880551 0.0368097 -0.470997 0.0379075 
2523 2 266.233 -234.034 -418.78 0.473253 -0.356713 -0.458878 0.661981 
2507 3 349.554 -285.902 -414.815 0.506939 -0.488925 -0.666204 0.245227 
2510 2 373.103 -279.623 -453.565 -0.0615922 -0.709557 0.382443 0.588619 
2506 1 381.031 -291.787 -400.697 0.508032 -0.458931 -0.697905 0.210273 
2509 2 381.888 -281.471 -449.37 0.296876 -0.782136 -0.299433 0.458767 
2478 2 387.462 -317.624 -430.019 -0.543094 0.445097 -0.706632 -0.0872285 
2501 2 319.36 -304.637 -385.75 0.387936 0.421813 0.190084 0.79715 
2508 2 391.048 -282.804 -445.916 0.569572 -0.139699 -0.80992 0.0100888 
2502 2 327.235 -305.252 -379.801 -0.441899 0.421217 -0.172508 0.773009 
2503 2 335.122 -304.819 -373.862 -0.829852 0.261072 -0.481 0.10875 
2504 2 343.285 -301.156 -369.447 -0.671175 -0.187768 -0.48516 -0.528098 
2505 2 351.54 -298.611 -364.514 0.01892 -0.483811 -0.134383 -0.864587 
3663 2 -249.118 831.902 -367.185 0.624704 0.717502 0.272951 -0.142949 
3664 2 -247.632 822.217 -368.63 0.569322 0.583776 -0.308255 0.489956 
3662 2 -248.45 841.766 -367.086 0.234587 0.241599 0.646251 -0.684806 
3665 2 -246.103 812.498 -367.49 0.0247741 0.134976 -0.660864 0.737852 
3666 2 -244.773 802.741 -366.553 -0.57347 -0.428593 -0.50165 0.48558 
3661 2 -248.237 851.172 -364.194 -0.317758 -0.386767 0.68785 -0.525646 
3709 2 -273.362 832.486 -371.659 -0.0353002 -0.133392 -0.283521 0.948987 
3708 2 -271.883 840.432 -377.515 0.620961 0.26945 -0.401555 0.616894 
3707 2 -269.243 848.851 -382.007 0.847847 0.507803 -0.148431 -0.0354841 
3710 2 -275.519 826.678 -363.923 -0.753081 -0.374386 0.0182511 0.540714 
3693 2 -321.791 857.604 -452.389 -0.0681179 0.983435 -0.16528 -0.0299497 
3706 2 -265.85 857.522 -385.312 0.482357 0.485569 0.330959 -0.649632 
3691 2 -321.933 857.629 -432.598 0.048941 -0.0647243 0.996096 -0.0347511 
3692 2 -321.421 856.783 -442.505 -0.0456686 0.783252 0.619746 0.018605 
3690 2 -322.751 859.51 -422.945 -0.0816047 -0.844919 0.514555 -0.121181 
3689 2 -322.556 862.175 -413.474 -0.138302 -0.927127 -0.340371 0.073864 
3688 2 -321.529 865.273 -404.127 -0.0109543 -0.32986 -0.927013 0.1781 
3687 2 -320.715 867.269 -394.501 0.0902465 0.503215 -0.854589 0.0911532 
3685 2 -317.237 868.309 -375.188 -0.107289 0.711827 0.6876 -0.0948604 
3686 2 -319.774 868.425 -384.679 0.0646969 0.996729 -0.04472 -0.0185737 
3684 2 -313.675 869.73 -365.978 -0.158289 -0.256153 0.95354 -0.0096059 
3705 2 -261.423 866.23 -387.215 -0.207956 0.120223 0.637407 -0.732129 
3704 2 -258.632 875.352 -389.886 -0.703751 -0.476833 0.389526 -0.354449 
3703 2 -254.522 883.38 -394.008 -0.745997 -0.535439 -0.026452 0.395088 
3702 2 -251.148 890.31 -400.247 -0.191276 -0.311349 -0.31969 0.874227 
3701 2 -250.068 899.021 -404.708 0.379734 0.190402 -0.497475 0.756352 
3700 2 -249.876 906.569 -411.103 0.900322 0.38655 -0.0449351 0.194883 
3699 2 -250.888 912.435 -419.024 0.702449 0.20633 0.245053 -0.635565 
3698 2 -252.735 917.811 -427.167 -0.0459399 -0.108095 0.286398 -0.950884 
3697 2 -257.06 920.984 -435.391 -0.712601 -0.253845 -0.0461909 -0.652403 
3696 2 -258.291 923.51 -444.916 -0.963843 -0.124792 -0.107213 0.209615 
3695 3 -286.956 885.085 -425.231 -0.82693 -0.0858579 -0.0884639 0.548625 
3694 1 -290.41 892.151 -459.392 -0.838531 -0.146487 -0.0700237 0.520099 
3613 1 -224.018 958.324 -388.498 -0.329222 0.19897 -0.063735 0.920848 
3612 2 -256.569 980.82 -362.871 -0.211905 0.22074 0.948217 -0.0851739 
3651 2 -270.811 942.091 -363.146 -0.117949 0.449587 -0.636578 0.61541 
3652 2 -263.788 935.369 -365.305 -0.520958 -0.27254 -0.651172 0.479896 
3650 2 -277.593 949.213 -363.674 0.450536 0.697741 -0.129215 0.541737 
3654 2 -256.331 917.44 -362.375 -0.430416 -0.523663 0.326849 -0.65855 
3653 2 -259.394 926.502 -364.905 -0.778489 -0.606559 -0.0965094 -0.12933 
3615 2 -183.731 934.345 -393.852 -0.241355 -0.13395 0.0288617 -0.960714 
3616 2 -181.6 933.172 -384.221 0.597344 -0.131288 0.169345 -0.77283 
3617 2 -177.982 931.952 -375.035 0.993994 0.0538794 0.0902326 -0.0305268 
3618 2 -176.151 930.997 -365.346 0.674274 0.0799892 -0.0399718 0.733047 
2292 2 98.3474 -481.277 -351.963 0.740271 -0.512762 0.325014 -0.288859 
2277 2 181.583 -413.021 -354.261 -0.0337657 -0.780457 -0.554454 0.286927 
2300 2 166.216 -470.09 -358.575 0.393235 0.0760077 0.907349 -0.127701 
2299 2 159.266 -467.826 -351.878 0.189959 -0.674593 0.608038 -0.373001 
2276 2 185.442 -409.802 -345.728 0.182158 -0.0673389 -0.969261 0.151054 
2275 2 190.05 -407.525 -337.379 0.262782 0.654411 -0.704439 -0.0803616 
2274 2 194.534 -407.568 -328.599 0.0317714 0.974858 0.0280471 -0.218761 
2298 2 151.284 -466.063 -346.292 -0.11087 -0.898255 -0.0999792 -0.413341 
2297 2 141.97 -463.525 -344.269 -0.545112 -0.486334 -0.640694 -0.236313 
2296 2 132.188 -463.996 -343.337 -0.601914 0.320346 -0.688611 0.246766 
2295 2 122.512 -465.689 -344.557 -0.258141 0.672746 -0.0985347 0.686343 
2294 2 114.011 -470.628 -345.876 0.212916 0.490422 0.485483 0.691707 
2293 2 106.156 -475.656 -349.39 0.75023 -0.0448755 0.555447 0.355836 
2273 2 199.673 -407.023 -320.099 -0.189105 0.648867 0.706744 -0.209104 
2272 2 204.562 -406.433 -311.574 -0.253837 -0.134227 0.956856 0.0444588 
2271 2 209.27 -408.643 -303.171 -0.0566281 -0.816324 0.482525 0.312376 
2270 2 213.567 -411.249 -294.635 0.217115 -0.867163 -0.433073 0.115491 
2250 2 157.895 -374.316 -313.743 -0.218909 -0.158003 -0.790025 -0.550432 
2249 2 151.055 -381.272 -311.744 -0.635041 0.470266 -0.610017 -0.0587516 
2248 2 144.802 -388.893 -309.994 -0.488861 0.75599 0.0540816 0.431936 
2247 2 139.553 -397.177 -310.922 0.0320244 0.317418 0.561775 0.763302 
2246 2 134.876 -405.894 -310.677 0.550664 -0.282887 0.659516 0.42636 
2245 2 130.891 -414.979 -311.215 0.701099 -0.684194 0.0678951 -0.189021 
2238 2 129.133 -478.37 -330.959 0.808125 -0.560955 -0.158222 -0.0850215 
2239 2 127.022 -469.203 -327.763 0.562767 -0.546607 0.247251 0.568667 
2244 2 127.21 -423.665 -314.235 0.277417 -0.442921 -0.45194 -0.722919 
2243 2 123.917 -432.37 -317.191 -0.397862 0.108014 -0.572564 -0.708667 
2242 2 121.384 -441.355 -320.418 -0.813316 0.519605 -0.252262 -0.0699474 
2241 2 122.243 -450.711 -323.311 -0.689217 0.466812 0.370843 0.411754 
2240 2 123.763 -460.351 -324.991 -0.0718659 -0.0452194 0.650121 0.755072 
2227 2 161.778 -408.154 -257.57 -0.525216 -0.624012 -0.577968 -0.0266368 
2228 2 168.184 -414.175 -262.13 -0.352274 -0.788202 0.0959344 -0.495416 
2229 2 175.319 -420.584 -264.621 0.107742 -0.435593 0.625488 -0.638291 
2230 2 182.258 -427.188 -266.821 0.433158 0.186105 0.799464 -0.372285 
2231 2 188.018 -434.281 -270.485 0.526536 0.745772 0.374743 0.161712 
2232 2 193.955 -440.956 -274.933 0.226749 0.740204 -0.288813 0.563268 
2233 2 200.826 -447.596 -277.359 -0.175835 0.159684 -0.809245 0.537313 
2236 1 172.657 -480.025 -312.866 -0.717874 0.50968 -0.0691533 -0.469149 
2237 3 159.714 -450.267 -299.783 -0.748158 0.503315 -0.0911366 -0.422643 
2226 2 155.934 -401.168 -253.765 -0.321809 0.087805 -0.835821 0.436041 
2225 2 151.128 -393.409 -249.908 0.201888 0.627179 -0.558211 0.50427 
2234 2 205.43 -455.419 -281.207 -0.464448 -0.602021 -0.581416 0.289508 
2235 2 207.434 -464.349 -285.071 -0.513456 -0.829078 0.0975352 -0.198696 
2224 2 146.075 -385.331 -247.05 0.566384 0.772914 0.210992 0.193122 
2251 2 163.345 -366.575 -316.657 0.0913233 -0.701169 -0.263268 -0.656287 
2223 2 141.069 -377.713 -243.206 0.430423 0.417574 0.75221 -0.273035 
2264 3 233.834 -372.407 -304.923 0.121864 0.796851 -0.11869 -0.579734 
2269 2 219.377 -410.792 -286.669 0.32525 -0.167477 -0.927289 0.0793642 
2268 2 226.004 -409.267 -279.601 0.30016 0.635761 -0.688467 -0.178117 
2267 2 233.453 -405.508 -274.246 0.176163 0.857417 0.179982 -0.448787 
2266 2 240.56 -403.076 -267.835 -0.253304 0.420095 0.811401 -0.317782 
2222 2 136.076 -370.168 -239.132 0.0889212 -0.334017 0.762114 -0.547456 
2221 2 130.275 -362.561 -236.398 -0.333241 -0.751772 0.279826 -0.495466 
2252 2 171.832 -361.701 -317.415 0.652536 -0.575861 0.297257 -0.392707 
2265 2 248.823 -399.833 -263.419 -0.502507 -0.393373 0.765342 0.083641 
2344 1 283.668 -408.399 -354.09 -0.289536 -0.866 -0.0788407 0.399996 
2349 2 268.854 -466.156 -354.038 -0.176769 -0.937261 0.294697 0.0587179 
2348 2 270.768 -461.432 -345.539 -0.140866 -0.766668 -0.585495 0.222648 
2347 2 273.523 -455.829 -337.782 0.193706 0.0189279 -0.942331 0.272271 
2346 2 277.868 -449.474 -331.62 0.425586 0.692597 -0.580486 0.0471272 
2263 1 266.235 -367.07 -292.59 0.200137 0.796732 -0.126189 -0.556093 
2209 1 54.2139 -272.082 -225.038 -0.484037 -0.14228 -0.593761 0.626827 
2210 3 62.9542 -303.234 -211.726 -0.525911 -0.205834 -0.544326 0.620289 
2253 2 180.457 -356.877 -316.825 0.629689 -0.157202 0.733849 0.200611 
2220 2 124.186 -355.428 -233.231 -0.571213 -0.710672 -0.397232 -0.104246 
2254 2 188.781 -351.46 -317.683 0.269434 0.446982 0.613177 0.592981 
2255 2 197.177 -346.501 -318.892 -0.287913 0.776953 0.0251409 0.559301 
2219 2 118.363 -348.372 -229.316 -0.436156 -0.202346 -0.81127 0.332663 
2218 2 113.773 -340.266 -225.997 0.0827742 0.492414 -0.649674 0.573237 
2256 2 205.274 -341.321 -321.211 -0.629071 0.449929 -0.620861 0.127925 
2259 2 232.609 -333.738 -328.159 0.496125 -0.489925 0.480674 -0.531776 
2258 2 222.808 -334.143 -326.342 -0.101988 -0.753875 -0.138041 -0.634205 
2257 2 213.965 -337.235 -323.177 -0.438554 -0.291673 -0.751227 -0.397812 
2535 2 177.939 -309.875 -341.276 -0.500616 0.50563 0.119845 0.692357 
2536 2 184.093 -303.502 -336.929 -0.789578 0.423348 -0.408159 0.175354 
2537 2 191.741 -297.77 -334.228 -0.675585 0.0320086 -0.575928 -0.459203 
2538 2 198.888 -291.696 -330.929 -0.154212 -0.45276 -0.300624 -0.825138 
2541 2 224.555 -282.72 -319.583 0.446164 0.259618 0.487403 0.704255 
2540 2 216.725 -286.382 -324.378 0.850627 -0.136031 0.489256 0.136227 
2539 2 207.486 -288.252 -327.402 0.544611 -0.526524 0.263132 -0.597439 
2217 2 111.23 -331.091 -223.341 0.548831 0.795453 -0.0836389 0.242989 
2216 2 107.99 -321.812 -222.047 0.622165 0.533535 0.493947 -0.290289 
2214 2 105.4 -302.207 -223.919 -0.506255 -0.474266 0.402183 -0.597517 
2215 2 106.79 -311.98 -222.528 0.0672287 -0.0104528 0.706376 -0.704559 
2213 2 103.629 -292.624 -225.884 -0.762914 -0.637716 -0.106208 0.00043927 
2542 2 232.267 -277.628 -316.102 -0.333344 0.544539 0.0750627 0.765979 
2212 2 101.78 -283.432 -229.076 -0.487916 -0.261499 -0.511249 0.657404 
2260 2 242.578 -334.271 -327.684 0.695539 0.126524 0.706893 0.0228036 
2211 2 100.839 -274.017 -231.785 0.212599 0.231234 -0.535971 0.783625 
2578 2 234.233 -220.251 -319.359 0.0708489 -0.379866 0.595407 0.704396 
2543 2 240.012 -272.942 -312.026 -0.800469 0.36355 -0.356599 0.316097 
2593 2 169.365 -214.529 -255.835 -0.120113 0.45515 0.0653074 0.879856 
2592 2 160.86 -213.188 -260.63 0.601336 0.447824 0.256642 0.609904 
2594 2 177.46 -213.181 -250.386 -0.734142 0.436855 -0.339943 0.393233 
2591 2 151.733 -212.459 -264.443 0.822267 -0.0166395 0.566509 -0.0516423 
2590 2 143.085 -210.756 -268.815 0.484459 -0.395677 0.383458 -0.679485 
2544 2 248.134 -269.498 -307.543 -0.728215 -0.114535 -0.575135 -0.354689 
2577 2 240.618 -227.654 -320.607 0.618472 -0.632152 -0.0453844 0.464561 
2579 2 229.853 -211.339 -319.396 -0.561268 0.251668 0.652818 0.442121 
2576 2 247.943 -233.954 -322.529 0.741231 -0.302572 -0.561035 -0.210396 
2595 2 186.151 -210.532 -246.408 -0.707076 -0.0264629 -0.61494 -0.348126 
2261 2 252.404 -335.11 -327.976 0.405934 0.571576 0.35965 0.615768 
2575 2 253.85 -241.159 -325.971 0.340317 0.150455 -0.540679 -0.754463 
2545 2 257.101 -266.825 -304.4 -0.335636 -0.500715 -0.219691 -0.767052 
2574 2 259.451 -248.375 -329.851 -0.331288 0.520649 -0.233766 -0.75135 
2262 2 262.326 -335.218 -327.271 -0.245991 0.638058 -0.23139 0.691974 
2546 2 266.06 -267.056 -300.179 0.390646 -0.450315 0.297801 -0.745604 
2547 2 274.771 -267.839 -295.622 0.803947 -0.072311 0.573663 -0.139112 
2573 2 265.352 -255.249 -333.838 -0.811746 0.482988 0.253996 -0.208029 
2572 2 270.947 -262.742 -337.239 -0.602681 0.123112 0.573475 0.54106 
2571 2 276.692 -270.723 -338.366 0.056325 -0.42738 0.502039 0.749753 
2570 2 283.712 -277.404 -340.151 0.604689 -0.633169 -0.0834131 0.47591 
2569 2 290.771 -284.304 -341.482 0.730541 -0.36453 -0.551871 -0.169898 
2568 2 295.551 -292.947 -342.079 0.274257 0.0648743 -0.676352 -0.680531 
2567 2 299.596 -301.957 -341.918 -0.355254 0.539393 -0.437261 -0.625822 
2548 2 283.876 -268.348 -291.831 0.521052 0.412232 0.513265 0.543257 
2549 2 293.604 -267.564 -290.105 -0.000218879 0.717082 -0.0810377 0.692262 
2561 3 337.927 -295.333 -319.934 0.447249 -0.720807 -0.00571676 0.529502 
2562 2 324.815 -342.718 -336.609 0.753141 -0.448006 -0.467848 -0.114837 
2563 2 318.694 -335.158 -334.93 0.482941 -0.750153 0.0117162 0.451554 
2564 2 312.481 -327.579 -336.188 0.00670313 -0.451016 0.6852 0.571875 
2565 2 307.594 -319.482 -339.091 -0.491659 0.261987 0.751199 0.354026 
2566 2 302.206 -311.512 -341.68 -0.683192 0.714633 0.0830772 -0.125083 
2560 1 362.421 -320.318 -318.997 0.47509 -0.714992 0.0313092 0.511952 
2558 2 376.72 -277.414 -297.993 -0.567781 -0.522283 -0.633752 -0.05659 
2559 2 384.572 -282.75 -301.01 -0.302521 -0.823128 0.0656508 -0.476058 