ITEM: TIMESTEP
10000000
ITEM: NUMBER OF ATOMS
4067
ITEM: BOX BOUNDS pp pp pp
-4.6310929470000001e+03 4.6704658980000004e+03
-4.6310929470000001e+03 4.6704658980000004e+03
-4.6310929470000001e+03 4.6704658980000004e+03
ITEM: ATOMS id type x y z c_q[1] c_q[2] c_q[3] c_q[4] 
2940 2 -420.215 338.676 -541.609 0.988343 -0.00230796 0.00746083 -0.152045 
2941 2 -419.886 338.387 -531.689 0.768275 0.0240447 0.0483507 0.637838 
2942 2 -419.249 338.825 -521.836 -0.115008 0.110732 0.035555 0.986533 
2938 1 -375.312 331.177 -553.813 -0.883218 -0.0654344 0.0621786 -0.460194 
2939 3 -375.277 324.953 -519.373 -0.884103 -0.108848 0.0607838 -0.450355 
2890 2 -332.405 253.544 -519.49 0.708277 -0.124082 -0.190903 0.668209 
2889 2 -329.631 257.424 -528.231 0.96096 0.2212 -0.0888362 -0.140478 
2888 2 -324.999 259.986 -536.551 0.453523 0.274742 -0.00948867 -0.847788 
2887 2 -321.859 264.28 -544.91 -0.349089 0.0549801 0.302314 -0.88528 
2935 2 -334.436 307.781 -529.563 -0.120436 0.167867 -0.918943 -0.335945 
2886 2 -316.3 266.781 -552.767 -0.909516 -0.0225262 0.315562 -0.269618 
2936 2 -333.746 314.805 -536.556 0.0318823 -0.699046 -0.674678 -0.234791 
2937 2 -330.697 318.521 -545.219 0.209456 -0.956238 0.181317 -0.0941368 
2884 1 -294.04 304.274 -534.656 0.373312 -0.159855 -0.349276 0.844447 
2934 2 -338.211 300.685 -523.809 -0.450635 0.771619 -0.447614 0.0342721 
2933 2 -341.351 294.724 -516.462 -0.239565 0.83468 0.389046 0.307508 
2899 2 -390.527 222.639 -466.502 -0.668722 -0.320065 0.129452 0.658492 
2900 2 -396.567 220.221 -459.019 -0.889064 -0.120139 0.409203 -0.166387 
2901 2 -403.555 216.778 -452.982 -0.436672 0.398315 0.455971 -0.665398 
2902 2 -412.836 214.667 -450.292 0.304625 0.642591 -0.0701865 -0.699539 
2903 2 -422.329 212.581 -448.696 0.663797 0.357228 -0.604444 -0.2577 
2904 2 -432.102 211.108 -448.088 0.622388 -0.278714 -0.635462 0.362132 
2905 2 -441.944 210.07 -447.261 0.127463 -0.593289 -0.081412 0.790654 
2912 3 -435.591 234.023 -409.247 0.275817 0.395332 0.852898 0.200505 
2906 2 -451.432 210.016 -444.42 -0.582116 -0.317674 0.37714 0.646521 
2907 2 -459.621 211.246 -439.08 -0.879963 0.0756583 0.468952 0.00493281 
2908 2 -468.132 212.693 -434.165 -0.523772 0.409909 0.134638 -0.734513 
2909 2 -475.875 214.765 -428.297 0.296183 0.314851 -0.259986 -0.863453 
2910 2 -483.096 217.505 -422.012 0.85548 0.0189817 -0.385527 -0.345199 
2898 2 -384.257 226.65 -473.153 0.0362691 -0.34366 -0.237912 0.907734 
2897 2 -375.71 230.341 -476.556 0.645205 -0.126259 -0.573148 0.489153 
2896 2 -366.941 234.583 -478.308 0.76136 0.356084 -0.524835 -0.134477 
2859 2 -402.452 156.8 -420.131 0.44244 -0.751521 -0.156835 -0.463536 
2860 2 -397.121 165.142 -421.612 0.635821 -0.594447 0.486878 0.072899 
2861 2 -391.923 173.365 -423.326 0.288176 -0.00426952 0.84638 0.447858 
2862 2 -387.32 181.211 -427.223 -0.21069 0.653643 0.43449 0.582734 
2863 2 -381.837 189.301 -429.071 -0.584277 0.758944 -0.207189 0.199244 
2864 2 -376.656 197.489 -431.244 -0.361965 0.424499 -0.720871 -0.41125 
2865 2 -374.802 206.442 -435.047 0.0385033 -0.323063 -0.775791 -0.540644 
2911 1 -459.136 230.661 -383.555 0.271862 0.398854 0.856945 0.180697 
2866 2 -372.077 215.27 -438.766 0.416189 -0.831562 -0.20731 -0.303831 
2867 2 -369.012 223.563 -443.045 0.533217 -0.645715 0.529491 0.135541 
2914 2 -413.414 246.384 -367.819 -0.285721 0.221306 -0.932306 0.0139078 
2857 1 -362.359 135.56 -407.214 -0.691655 0.58457 -0.369048 -0.209033 
2915 2 -407.95 247.557 -375.992 -0.196251 -0.454893 -0.828392 -0.261391 
2868 2 -365.266 231.857 -446.879 0.292293 0.0890181 0.775033 0.55314 
2895 2 -358.509 237.811 -482.323 0.41628 0.538536 -0.0876499 -0.727329 
2869 2 -360.182 239.964 -449.528 -0.190156 0.774042 0.283214 0.533375 
2870 2 -353.246 246.28 -452.756 -0.622043 0.650089 -0.430233 0.0731204 
2845 2 -343.677 234.838 -386.216 0.787703 0.557062 0.0420636 0.259685 
2846 2 -340.078 226.315 -382.707 0.237529 0.439878 -0.472186 0.726035 
2858 3 -354.735 169.581 -404.285 -0.685783 0.553492 -0.392269 -0.263579 
2847 2 -335.952 217.503 -381.232 -0.478681 -0.0589617 -0.650297 0.586943 
2848 2 -330.61 209.229 -380.211 -0.748024 -0.629613 -0.196121 -0.0747248 
2849 2 -327.052 199.988 -379.098 -0.377675 -0.530116 0.461574 -0.602734 
2850 2 -323.551 190.747 -379.244 0.164526 0.113856 0.701442 -0.684067 
2855 2 -316.995 144.337 -388.973 -0.532493 -0.803322 -0.201641 0.174545 
2856 2 -317.395 135.259 -392.902 -0.468666 -0.681317 0.480808 -0.291518 
2851 2 -321.763 181.039 -379.009 0.614654 0.556078 0.536686 -0.157944 
2852 2 -317.023 172.562 -380.589 0.627696 0.719794 -0.192791 0.225224 
2853 2 -316.189 162.683 -381.686 0.2383 0.328432 -0.766856 0.497269 
2854 2 -316.397 153.666 -385.618 -0.164432 -0.297195 -0.757936 0.55693 
2894 2 -351.562 242.512 -487.542 -0.317577 0.275731 0.400728 -0.813962 
2893 2 -346.43 247.741 -494.151 -0.885036 -0.180767 0.349924 -0.248168 
2844 2 -346.874 243.891 -388.703 0.679563 0.368573 0.484243 -0.409704 
2943 2 -417.252 340.216 -512.294 -0.835685 0.163169 -0.177559 0.493437 
2921 2 -395.103 250.112 -431.551 -0.0778295 0.279992 -0.956438 0.0278139 
2920 2 -395.179 250.944 -421.604 0.0357371 0.88758 -0.458582 0.025024 
2919 2 -393.809 252.291 -411.899 0.0145305 0.918994 0.384048 -0.0880093 
2922 2 -393.588 250.309 -441.389 -0.0199515 -0.536841 -0.843003 -0.0273902 
2923 2 -392.418 251.003 -451.132 0.0507505 -0.987429 -0.131894 -0.0708036 
2918 2 -395.161 251.779 -402.123 0.0643441 0.223951 0.972459 0.00544409 
2917 2 -398.133 251.061 -392.721 0.156184 -0.633186 0.756661 -0.0463262 
2916 2 -402.626 249.242 -384.165 0.093298 -0.955545 -0.0734853 -0.269868 
2924 2 -391.245 251.888 -461.041 0.103179 -0.708779 0.693377 -0.0788354 
2944 2 -412.764 341.434 -503.57 -0.885792 -0.0556319 -0.30863 -0.342089 
2945 2 -407.092 342.489 -495.518 -0.254035 -0.205411 -0.153996 -0.932501 
2925 2 -388.652 252.456 -470.628 0.21184 0.0540031 0.943858 0.247668 
2926 2 -384.478 256.941 -478.474 -0.0185231 0.780847 0.495995 0.379374 
2927 2 -378.598 261.144 -485.218 -0.391649 0.837003 -0.326227 0.19903 
2825 2 -443.733 281.829 -392.166 -0.298392 -0.38083 0.874187 -0.0415586 
2826 2 -448.496 278.825 -400.284 -0.113176 0.512437 0.81676 -0.239795 
2827 2 -452.393 276.458 -409.07 0.14766 0.968273 0.0319349 -0.199058 
2828 2 -456.358 273.266 -417.615 0.246145 0.587958 -0.769495 -0.0399442 
2829 2 -460.589 270.555 -426.198 0.203403 -0.188644 -0.943265 0.18246 
2824 2 -437.303 283.908 -384.952 -0.23228 -0.872556 0.316162 0.291089 
2946 2 -402.374 344.149 -486.88 0.598251 -0.225457 0.0457772 -0.767574 
2947 2 -398.19 346.177 -478.109 0.967424 -0.15699 0.196415 -0.0294284 
2823 2 -430.854 284.177 -377.478 0.167063 -0.825673 -0.437192 0.314989 
2831 3 -413.299 291.408 -422.514 -0.740145 0.126478 -0.26613 0.604453 
2830 1 -431.228 296.94 -451.96 -0.723971 0.124881 -0.287721 0.6144 
2832 2 -391.227 320.977 -459.042 0.359961 0.30479 -0.0589565 0.879804 
2833 2 -386.523 317.849 -450.928 -0.412968 0.212666 -0.294348 0.835218 
2834 2 -380.686 314.677 -443.601 -0.878915 -0.202997 -0.347839 0.255555 
2835 2 -375.56 310.18 -436.461 -0.720763 -0.401927 -0.00364719 -0.56475 
2948 2 -394.456 349.059 -469.353 0.630528 0.00941406 0.0760317 0.772376 
2949 2 -392.965 350.695 -459.695 -0.252276 0.0960095 0.137851 0.952962 
2950 2 -391.969 353.431 -450.268 -0.891864 0.246091 0.00835472 0.379406 
2951 2 -390.188 357.703 -441.515 -0.920827 0.123339 -0.114664 -0.351734 
2952 2 -389.346 360.3 -432.085 -0.386422 0.106549 -0.148075 -0.904101 
2928 2 -373.004 266.175 -491.649 -0.474694 0.271353 -0.812046 -0.203995 
2953 2 -390.539 363.303 -422.771 0.426827 -0.140278 -0.134799 -0.883159 
2954 2 -389.546 366.859 -413.673 0.960644 -0.14574 0.000549274 -0.236481 
2955 2 -388.638 368.937 -404.059 0.833868 0.0370767 0.0964486 0.542206 
2929 2 -366.69 272.118 -496.309 -0.0431587 -0.517985 -0.673316 -0.525809 
2822 2 -423.851 285.498 -370.56 0.341303 -0.103059 -0.925204 0.129959 
2956 2 -386.95 369.451 -394.354 0.0288544 0.0537654 0.0340152 0.997557 
2957 2 -385.942 370.186 -384.495 -0.71341 0.0356084 -0.197011 0.671539 
2958 2 -382.878 367.434 -375.42 -0.954715 -0.185044 -0.203482 -0.11346 
2836 2 -370.848 304.154 -430.049 -0.0913651 -0.111991 0.366824 -0.918994 
2959 2 -378.784 364.045 -367.143 -0.562982 -0.330616 -0.0229074 -0.757113 
2821 2 -417.922 288.447 -363.117 0.353402 0.642782 -0.668226 -0.124149 
2837 2 -369.507 296.816 -423.477 0.664951 0.168014 0.276616 -0.673124 
2838 2 -368.317 290.961 -415.519 0.847166 0.51448 0.0237639 0.130597 
2839 2 -366.273 282.843 -410.298 0.416676 0.225016 -0.39985 0.784773 
2840 2 -365.351 274.739 -404.624 -0.490688 -0.0521521 -0.531548 0.688449 
2930 2 -360.576 278.062 -501.236 0.309339 -0.884063 -0.0737448 -0.342495 
2841 2 -361.466 266.597 -400.682 -0.828277 -0.475858 -0.291825 -0.0485227 
2892 2 -341.067 250.922 -501.87 -0.782403 -0.283502 0.162022 0.530302 
2932 2 -347.861 289.565 -511.019 0.29144 0.208969 0.850226 0.385371 
2891 2 -336.395 252.693 -510.454 -0.0381453 -0.284619 -0.0523212 0.956452 
2931 2 -354.828 284.102 -506.666 0.544455 -0.516717 0.659668 0.0375446 
2871 2 -347.341 253.879 -455.199 -0.454942 0.0702656 -0.766157 -0.448436 
2843 2 -351.063 252.2 -391.828 0.224339 -0.108425 0.583405 -0.773017 
2872 2 -341.002 261.26 -457.118 0.0787652 -0.513064 -0.527637 -0.672429 
2873 2 -335.032 269.116 -457.321 0.552511 -0.703835 0.052182 -0.443423 
2842 2 -356.183 259.138 -396.802 -0.491004 -0.472628 0.149433 -0.716385 
2874 2 -328.329 276.387 -457.094 0.621916 -0.538169 0.55397 0.12927 
2885 3 -310.596 290.567 -506.936 0.363654 -0.151557 -0.325192 0.859672 
2883 2 -282.29 333.439 -499.459 -0.287156 0.830534 0.407333 0.248666 
2875 2 -322.429 284.19 -458.62 0.30853 0.158218 0.759679 0.550149 
2882 2 -284.727 326.562 -492.756 0.0206227 0.241197 0.890949 0.384199 
2876 2 -316.525 291.737 -460.97 -0.182953 0.668991 0.40215 0.597707 
2877 2 -310.192 299.023 -463.195 -0.510309 0.733002 -0.339014 0.295572 
2878 2 -302.441 304.057 -466.63 -0.442481 0.150358 -0.847913 -0.250294 
2879 2 -295.747 310.001 -470.985 0.0147326 -0.631156 -0.660908 -0.405742 
2880 2 -290.773 315.71 -477.379 0.301258 -0.946372 0.0550265 -0.102936 
2881 2 -288.347 321.088 -485.386 0.340742 -0.49217 0.788142 0.143164 
2972 2 -364.284 443.147 -362.067 0.535602 -0.371413 -0.363996 0.665349 
2969 2 -335.585 439.578 -364.397 -0.306208 0.679576 0.1308 -0.653686 
2970 2 -345.039 442.479 -364.043 0.377109 0.540197 -0.479107 -0.580027 
2971 2 -354.784 444.036 -364.539 0.790722 0.0416263 -0.610561 -0.0155488 
2968 2 -326.03 438.148 -362.182 -0.623986 0.316397 0.697309 -0.155867 
1074 2 -108.514 -293.38 -241.058 -0.169226 0.517616 -0.077656 -0.835109 
1073 2 -100.37 -296.629 -245.669 -0.782098 0.38052 0.386334 -0.30704 
1072 2 -92.5963 -299.702 -251.029 -0.767594 -0.0737372 0.490403 0.406038 
1071 2 -84.1536 -299.116 -256.196 -0.33453 -0.458262 0.141593 0.811194 
1070 2 -75.5029 -295.583 -259.352 0.325158 -0.37694 -0.412139 0.763106 
1076 3 -63.3524 -293.72 -215.408 -0.302143 -0.532115 -0.655655 -0.442358 
1069 2 -66.2044 -292.851 -260.858 0.746689 0.112785 -0.644131 0.121775 
1091 2 -62.3255 -217.277 -223.869 0.524526 0.177832 -0.743532 -0.37471 
1092 2 -71.2089 -213.396 -226.174 0.56056 -0.401697 -0.704423 0.167926 
1093 2 -80.3692 -210.73 -228.739 0.135493 -0.780504 -0.039092 0.609037 
1068 2 -57.698 -288.277 -258.662 0.448712 0.723623 -0.349926 -0.390613 
1090 2 -53.4757 -221.401 -222.222 0.100889 0.645228 -0.415015 -0.633455 
1089 2 -46.6116 -227.726 -219.09 -0.458257 0.807522 0.112899 -0.353783 
1067 2 -48.2514 -287.219 -255.732 -0.154829 0.746249 0.270277 -0.588294 
1158 2 -49.2847 -230.213 -256.131 -0.785819 -0.0736087 -0.482032 -0.380415 
1066 2 -39.7625 -285.686 -250.928 -0.451413 0.248585 0.813954 -0.268161 
1065 2 -31.9042 -283.512 -245.29 -0.41755 -0.449809 0.786391 0.0700912 
1064 2 -25.6196 -278.638 -239.456 -0.301707 -0.88936 0.0611799 0.338037 
1063 2 -20.1561 -274.966 -232.015 0.11891 -0.574862 -0.735637 0.337983 
1062 2 -16.9158 -271.05 -223.506 0.253095 0.36541 -0.889964 0.101891 
1141 2 11.7483 -235.455 -241.006 -0.205724 0.768364 -0.554999 0.243455 
1142 2 17.7966 -233.949 -248.632 -0.295124 0.0100461 -0.952468 -0.0748672 
1144 2 27.9338 -227.312 -263.86 0.36605 -0.897337 0.0626087 -0.238482 
1143 2 23.4781 -232.475 -256.595 0.0314852 -0.679554 -0.645826 -0.346589 
1140 2 5.92406 -233.435 -233.27 0.211478 0.897924 0.290217 0.254526 
1061 2 -11.6903 -269.584 -215.19 0.175702 0.868989 -0.416828 -0.200603 
1159 2 -41.2014 -227.528 -251.13 -0.266637 -0.374599 -0.210532 -0.862703 
1160 2 -33.638 -225.534 -245.128 0.514594 -0.487659 0.0563173 -0.703001 
1161 2 -26.0697 -221.39 -240.307 0.874373 -0.375331 0.306894 -0.0203552 
1145 2 32.4415 -220.746 -269.716 0.37332 -0.518989 0.713521 0.286654 
1162 2 -20.7513 -215.064 -234.701 0.650063 -0.0950767 0.444522 0.608916 
1088 2 -39.99 -234.586 -216.153 -0.53574 0.481629 0.682792 0.121704 
1087 2 -33.9627 -242.039 -213.618 -0.260923 -0.262396 0.748793 0.549888 
1139 2 0.818849 -230.812 -225.27 0.300709 0.36713 0.880002 -0.0196612 
1296 2 42.8874 -221.649 -212.079 -0.41707 0.266492 -0.701134 -0.51327 
1146 2 34.7093 -212.865 -275.133 -0.130788 0.0803383 0.916277 0.36997 
1297 2 46.1735 -212.467 -213.631 0.11761 -0.400603 -0.500181 -0.75862 
1035 2 -32.8434 -316.527 -212.531 0.169596 0.206775 -0.708999 -0.652535 
1036 2 -38.4495 -308.533 -213.979 0.651773 -0.406306 -0.592103 -0.243972 
1138 2 -0.444278 -229.103 -215.621 0.0443382 -0.431225 0.889941 -0.141721 
1037 2 -44.0307 -300.36 -214.293 0.713275 -0.624702 0.0917536 0.304249 
1034 2 -29.1868 -325.783 -212.359 -0.424122 0.649198 -0.332009 -0.537058 
1038 2 -46.4019 -290.927 -212.325 0.31818 -0.268197 0.548496 0.725248 
1293 2 33.5897 -249.063 -209.07 0.347875 -0.0674576 0.68252 0.639217 
1039 2 -47.1952 -281.465 -209.202 -0.499017 0.137986 0.502714 0.692257 
1086 2 -29.0131 -249.542 -209.552 0.269195 -0.774328 0.349134 0.453933 
1427 3 190.848 -257.459 -226.828 -0.264771 0.213604 0.514366 0.787209 
1425 2 150.863 -270.372 -257.354 0.0428761 -0.080443 -0.758901 0.644795 
1424 2 152.916 -260.828 -255.793 0.554517 0.553957 -0.516157 0.345289 
1423 2 155.943 -251.774 -253.569 0.544394 0.77979 0.10688 -0.290069 
1422 2 158.104 -242.279 -251.619 0.166741 0.332435 0.679231 -0.632716 
1340 2 196.099 -244.62 -224.151 0.808038 0.000128245 0.58555 0.0648489 
1426 1 189.105 -290.56 -238.274 -0.24162 0.175983 0.499336 0.813212 
1421 2 160.284 -233.503 -247.555 -0.287182 -0.28604 0.810231 -0.423359 
1341 2 205.381 -244.177 -220.786 0.442934 0.36686 0.374919 0.727089 
1420 2 162.655 -225.72 -241.888 -0.447084 -0.821709 0.352023 -0.0314608 
1419 2 165.503 -219.015 -235.07 -0.280287 -0.876073 -0.285997 0.268589 
1418 2 169.129 -214.14 -227.287 0.0735068 -0.372157 -0.863073 0.333469 
1339 2 186.397 -244.077 -226.335 0.542738 -0.454836 0.415819 -0.570661 
1338 2 176.529 -243.504 -226.47 -0.224188 -0.688392 -0.201894 -0.659617 
1337 2 167.602 -239.774 -224.517 -0.625795 -0.364206 -0.67988 -0.116178 
1342 2 213.935 -241.99 -216.319 -0.254291 0.619298 -0.0262857 0.742371 
1343 2 223.068 -238.824 -214.325 -0.707879 0.418383 -0.476326 0.311411 
1344 2 232.373 -235.91 -212.118 -0.657815 -0.130542 -0.628096 -0.394631 
1336 2 159.744 -235.857 -219.83 -0.348279 0.327387 -0.78826 0.387512 
1335 2 152.991 -233.595 -212.954 0.071552 0.870707 -0.293698 0.387933 
1428 2 226.632 -291.03 -209.792 0.0956049 -0.148982 0.529206 0.829822 
1094 2 -89.9869 -208.804 -230.452 -0.515647 -0.478819 0.538191 0.463887 
1095 2 -99.8637 -208.532 -230.863 -0.715484 0.161876 0.679387 -0.0176744 
1096 2 -109.594 -206.604 -230.833 -0.555232 0.59073 0.218956 -0.542967 
1097 2 -118.378 -202.278 -229.03 -0.051329 0.464513 -0.329191 -0.820503 
1098 2 -125.096 -196.215 -225.084 0.670389 0.0683667 -0.460387 -0.577882 
1192 2 -92.7735 -140.48 -244.508 0.71312 -0.114874 -0.245899 0.646372 
1191 2 -88.3933 -140.707 -253.393 0.948351 0.0266361 -0.235287 -0.211095 
1193 2 -97.8371 -142.34 -236.28 -0.0960623 -0.281677 -0.0767207 0.951601 
1194 2 -103.057 -143.768 -228.002 -0.824221 -0.208467 0.109908 0.514899 
1195 2 -107.099 -145.023 -219.083 -0.8744 -0.00761678 0.160968 -0.457663 
1190 2 -85.0083 -141.261 -262.648 0.39528 0.141893 -0.0790752 -0.904084 
1189 2 -82.3171 -139.26 -271.916 -0.456627 0.0637566 0.176513 -0.869638 
1188 2 -77.2025 -135.652 -279.546 -0.933614 -0.164818 0.313891 -0.0516959 
1187 2 -73.1975 -130.466 -286.906 -0.679665 -0.35203 -0.0578011 0.640928 
1183 1 -63.6591 -78.887 -279.961 0.204671 0.0424141 -0.324346 0.922557 
1184 3 -64.4417 -101.771 -253.465 0.20932 0.0334054 -0.312094 0.926103 
1186 2 -68.8945 -124.854 -293.883 0.150709 -0.171007 -0.330245 0.91596 
1185 2 -64.9349 -120.718 -301.914 0.844159 0.0866692 -0.309299 0.429206 
1099 2 -131.983 -191.776 -219.489 0.878197 -0.209508 -0.35471 0.243018 
1100 2 -139.28 -189.711 -213.027 0.3711 -0.414535 -0.153324 0.816662 
1181 2 -57.5992 -58.4744 -235.561 0.220504 -0.0569186 -0.900386 -0.370734 
1196 2 -109.5 -146.306 -209.495 -0.183744 0.0297381 0.107028 -0.976677 
1163 2 -15.7213 -208.276 -229.645 -0.160631 0.24836 0.421649 0.857163 
1180 2 -53.6038 -65.2631 -229.509 -0.118695 0.673639 -0.596771 -0.419507 
1179 2 -49.0541 -71.7837 -223.642 -0.396014 0.8861 0.169616 -0.170966 
1147 2 33.0437 -205.83 -281.835 -0.43551 0.712261 0.546924 0.062362 
1178 2 -44.513 -80.0369 -220.594 -0.510432 0.453422 0.662145 0.30892 
1148 2 29.1734 -199.263 -288.213 -0.315893 0.925811 -0.0666364 -0.196584 
1164 2 -13.5492 -200.454 -223.96 -0.746778 0.429188 0.156505 0.48335 
1113 2 -38.5836 -179.918 -217.345 0.144371 0.895833 0.288412 0.305711 
1114 2 -32.0738 -180.948 -224.702 -0.167202 0.779403 -0.520806 0.305507 
1149 2 25.9166 -192.757 -294.974 0.0486917 0.509033 -0.764332 -0.392824 
1157 3 -13.8258 -197.01 -274.372 0.514805 0.446733 0.255361 0.685709 
1115 2 -25.5541 -180.832 -232.139 -0.327952 0.142208 -0.930665 0.0780198 
1150 2 21.0721 -187.146 -301.52 0.483822 -0.207035 -0.828815 -0.190049 
1151 2 13.7232 -182.208 -305.985 0.451641 -0.744302 -0.376818 0.316295 
1156 1 -45.4089 -197.017 -289.421 0.49686 0.443372 0.269709 0.695564 
1155 2 -20.8962 -166.305 -315.604 -0.325987 0.786735 0.0591959 -0.520842 
1154 2 -12.2468 -170.368 -312.88 -0.602945 0.462623 0.641689 -0.103308 
1153 2 -3.12272 -173.695 -311.261 -0.504064 -0.28185 0.707145 0.407953 
1152 2 5.68794 -177.797 -309.834 0.0348516 -0.690189 0.31761 0.649267 
1116 2 -19.2103 -181.576 -239.619 -0.345845 -0.677035 -0.565956 -0.318917 
1117 2 -11.4308 -182.808 -245.588 0.0261241 -0.813523 0.276683 -0.510827 
1118 2 -3.18692 -185.2 -250.582 0.345751 -0.26457 0.812198 -0.388322 
1126 2 60.2026 -180.88 -237.152 0.828986 -0.220505 0.375633 0.350799 
1125 2 56.2381 -185.988 -244.555 0.873748 -0.320451 0.0564263 -0.361513 
1119 2 4.58964 -189.635 -254.851 0.584422 0.375341 0.704196 0.147234 
1120 2 13.5618 -192.772 -257.925 0.272365 0.735894 0.234397 0.573878 
1121 2 23.2361 -193.748 -259.753 -0.316134 0.590665 -0.352089 0.653611 
1122 2 33.0963 -194.422 -259.665 -0.84369 0.0780878 -0.529181 0.0453509 
1123 2 42.0625 -192.868 -255.83 -0.596208 -0.271129 -0.441622 -0.613184 
1124 2 50.3262 -190.453 -251.07 0.149088 -0.379497 -0.19077 -0.892951 
1165 2 -11.6365 -192.074 -219.226 -0.821129 0.490422 -0.126374 -0.26318 
1263 2 53.0344 -171.67 -270.684 0.396947 -0.246643 0.769142 -0.435914 
1262 2 44.6873 -167.111 -267.993 -0.0540519 -0.747049 0.300576 -0.590466 
1261 2 37.5333 -161.373 -264.264 -0.48744 -0.769864 -0.282261 -0.300067 
1265 3 65.5701 -125.693 -249.839 -0.787138 0.0268073 0.364721 0.496663 
1260 2 31.7771 -155.435 -258.854 -0.461016 -0.409888 -0.764882 0.185505 
1259 2 26.2459 -148.152 -255.149 -0.183224 0.326587 -0.785947 0.491993 
1258 2 22.3639 -140.3 -250.427 0.371408 0.79109 -0.270056 0.404107 
1257 2 20.3619 -132.582 -244.531 0.396538 0.73392 0.527765 -0.159944 
1256 2 19.1913 -125.389 -237.827 0.0831889 -0.0324693 0.926909 -0.364507 
1166 2 -11.4841 -183.294 -214.734 -0.225049 0.186794 -0.52662 -0.798206 
1264 1 87.9603 -140.035 -272.607 -0.776084 0.0444415 0.387225 0.495757 
1255 2 16.4112 -118.136 -231.609 -0.28314 -0.779039 0.442425 -0.342329 
1127 2 64.5202 -174.946 -230.484 0.303854 0.14315 0.468552 0.817092 
1128 2 69.273 -168.362 -224.751 -0.424634 0.449748 0.201084 0.759591 
1254 2 13.4566 -112.178 -224.252 -0.336736 -0.820414 -0.461695 0.0191733 
1272 2 76.8762 -101.561 -214.73 -0.157279 0.30316 0.153135 -0.927312 
1271 2 83.7832 -97.4946 -220.629 -0.762587 0.00248215 0.459273 -0.455548 
1253 2 10.839 -106.123 -216.891 -0.147477 -0.101026 -0.946777 0.26769 
1270 2 90.6886 -94.9343 -227.309 -0.843825 -0.311517 0.296167 0.321249 
1177 2 -41.5946 -88.4287 -216.144 -0.078433 -0.127592 0.826366 0.542852 
1176 2 -39.3119 -96.594 -210.939 0.337885 -0.735778 0.4678 0.35444 
1130 3 23.3342 -190.034 -214.413 0.43055 0.800027 -0.409116 -0.0848981 
1298 2 50.4763 -203.694 -212.356 0.799235 -0.477047 0.0695833 -0.358897 
1112 2 -45.0932 -179.069 -210.032 0.33965 0.371807 0.85958 0.0867112 
1269 2 95.8202 -93.2352 -235.563 -0.267946 -0.272562 -0.00917688 0.92403 
1252 2 8.74976 -99.9941 -209.484 0.204581 0.701905 -0.614145 0.297157 
1167 2 -11.9252 -174.358 -210.547 0.452491 -0.174751 -0.454404 -0.747148 
1417 2 170.699 -208.615 -219.104 0.188991 0.430069 -0.86135 0.193388 
1268 2 99.3251 -94.6269 -244.678 0.623708 -0.196046 -0.0571931 0.754509 
1346 3 195.032 -201.96 -224.31 0.672437 0.162801 -0.717815 0.0778891 
1356 2 128.384 -190.862 -214.672 -0.822911 -0.327949 0.443786 -0.135356 
1355 2 135.484 -185.052 -218.274 -0.553607 -0.576201 0.0338871 0.600303 
1267 2 103.767 -96.9044 -253.199 0.962806 -0.0887702 -0.241745 -0.0817576 
1266 2 108.403 -98.942 -261.604 0.49061 0.136999 -0.226107 -0.830307 
1347 2 202.678 -151.068 -230.968 0.0579792 -0.548541 -0.419542 0.72092 
1348 2 194.703 -156.815 -230.505 -0.4037 -0.729934 0.276458 0.477278 
1349 2 185.553 -160.284 -232.224 -0.680932 -0.212631 0.69945 -0.0434641 
1350 2 176.231 -163.893 -232.58 -0.451727 0.409374 0.542132 -0.578314 
1351 2 166.691 -166.287 -232.022 0.232186 0.598676 0.071088 -0.763297 
1352 2 157.728 -169.855 -229.604 0.74152 0.436098 -0.376752 -0.343548 
1353 2 149.285 -173.967 -226.32 0.726973 -0.0182202 -0.527085 0.439727 
1354 2 141.221 -178.336 -222.763 0.135051 -0.307454 -0.45862 0.82274 
1455 2 148.295 -188.409 -218.105 -0.634378 -0.0115878 -0.587773 -0.501949 
1456 2 155.611 -182.602 -214.681 0.0491745 -0.42461 -0.348085 -0.834341 
1345 1 227.249 -189.453 -218.659 0.625628 0.154223 -0.757511 0.104799 
1357 2 121.606 -197.092 -211.002 -0.493958 0.0694236 0.525833 -0.688975 
1457 2 161.997 -176.345 -210.549 0.655452 -0.550516 0.207415 -0.473596 
1416 2 169.695 -201.92 -211.89 0.372007 0.925692 -0.0179482 0.0662098 
2747 2 -439.056 95.1372 -278.93 -0.30581 0.55946 0.756917 -0.143392 
2749 1 -488.672 95.3598 -269.203 0.759184 -0.0401652 0.378758 0.527796 
2746 2 -434.118 95.7011 -270.453 -0.259222 -0.309177 0.914835 0.0170379 
1182 2 -61.0241 -51.411 -241.692 0.419095 -0.744256 -0.515927 -0.065288 
2751 2 -521.643 107.331 -237.632 -0.825029 0.364108 -0.348057 -0.256143 
2752 2 -517.779 114.841 -232.481 -0.311058 -0.0748111 -0.532928 -0.783348 
2748 2 -444.913 96.1973 -286.884 -0.093203 0.937541 0.0950186 -0.321405 
2753 2 -512.912 122.396 -228.431 0.313631 -0.530102 -0.215601 -0.757722 
2745 2 -431.357 98.6403 -261.387 -0.173827 -0.943368 0.26286 0.103662 
2744 2 -429.751 100.624 -251.832 -0.0326782 -0.826706 -0.546415 0.130076 
2743 2 -428.314 103.457 -242.536 0.0775529 -0.0452437 -0.981612 0.168455 
2778 2 -441.219 144.472 -344.595 0.782372 -0.166765 -0.436782 -0.411467 
2779 2 -446.215 150.849 -338.858 0.840677 -0.48402 -0.0165788 0.242306 
2780 2 -448.925 158.953 -333.931 0.285314 -0.388761 0.413082 0.772544 
2781 2 -452.156 167.697 -330.428 -0.306385 0.188943 0.474042 0.803563 
2777 3 -410.533 173.329 -314.405 -0.698788 0.392633 0.0120131 -0.597821 
2768 2 -402.995 191.279 -270.954 0.242616 -0.70884 0.495914 -0.439035 
2767 2 -410.296 188.089 -265.06 -0.0282926 -0.807873 -0.395324 -0.436188 
2766 2 -417.456 184.079 -259.526 -0.403304 -0.102743 -0.86905 -0.267473 
2765 2 -424 182.815 -252.177 -0.312826 0.623238 -0.695652 0.172579 
2764 2 -430.677 180.235 -245.281 -0.172617 0.921711 0.0242615 0.346503 
2782 2 -453.122 176.164 -325.39 -0.790267 0.508228 0.169189 0.297585 
2783 2 -452.678 185.18 -321.301 -0.775073 0.447813 -0.29634 -0.333027 
2784 2 -451.263 193.85 -316.745 -0.283733 -0.0808985 -0.456947 -0.839137 
2785 2 -447.319 201.172 -311.235 0.470687 -0.345673 -0.209012 -0.784396 
2786 2 -444.526 207.552 -304.252 0.875723 -0.431438 0.128307 -0.174665 
2789 2 -430.813 227.511 -287.802 -0.725354 0.422802 -0.0109346 0.543121 
2787 2 -441.413 214.434 -297.927 0.704345 -0.136866 0.402507 0.568465 
2788 2 -436.717 220.772 -291.986 0.0146052 0.342197 0.432921 0.833827 
2763 2 -436.149 174.397 -239.344 0.0330451 0.593273 0.678005 0.432716 
2776 1 -395.207 152.126 -337.64 -0.701904 0.387315 -0.0295171 -0.597031 
2769 2 -394.322 191.162 -275.769 0.489816 -0.0480092 0.868795 -0.0544939 
2770 2 -385.61 190.951 -280.57 0.245361 0.679477 0.645659 0.247454 
2771 2 -378.646 190.606 -287.632 0.156079 0.89613 -0.236987 0.341215 
2762 2 -442.284 169.82 -233.073 0.387394 -0.217461 0.882905 0.152038 
2761 2 -449.754 164.854 -228.988 0.482257 -0.746421 0.353072 -0.292617 
2750 3 -470.71 113.962 -245.426 0.755078 -0.0575727 0.455679 0.467867 
2772 2 -372.857 186.749 -294.772 -0.114102 0.4775 -0.787774 0.372003 
2742 2 -429.621 108.597 -234.236 0.151775 0.80748 -0.541581 0.177848 
2760 2 -457.977 160.055 -226.177 0.0278968 -0.707038 -0.370321 -0.601815 
2790 2 -425.591 233.213 -281.618 -0.858276 0.260643 -0.286014 -0.337082 
2759 2 -465.98 155.553 -222.499 -0.3796 -0.238249 -0.795518 -0.40779 
2741 2 -430.521 112.723 -225.273 0.208956 0.94315 0.258412 0.00528841 
2754 2 -506.628 128.932 -224.369 0.743143 -0.574907 0.25962 -0.223201 
2755 2 -500.389 136.252 -221.935 0.621126 -0.0304256 0.660028 0.421474 
2756 2 -492.482 142.322 -221.368 0.0850881 0.566299 0.397834 0.716794 
2758 2 -475.041 151.689 -222.009 -0.68363 0.354529 -0.632966 0.0794589 
2757 2 -483.839 147.108 -221.535 -0.453797 0.692939 -0.181036 0.530217 
2740 2 -432.023 116.094 -216.06 0.174193 0.388437 0.896617 -0.121868 
2773 2 -366.987 182.523 -301.511 -0.350382 -0.224855 -0.892863 0.171662 
2791 2 -422.297 239.444 -274.693 -0.285709 0.0210098 -0.323166 -0.901938 
2774 2 -361.788 178.131 -308.697 -0.30908 -0.85446 -0.416764 -0.0259843 
2913 2 -420.634 245.969 -361.02 -0.164029 0.828565 -0.353549 0.401967 
2792 2 -420.498 245.028 -266.7 0.567871 -0.258061 -0.217451 -0.750761 
2775 2 -358.608 173.252 -316.621 -0.173351 -0.861722 0.399516 -0.260329 
2960 2 -373.112 360.82 -359.677 0.264545 -0.256863 0.273236 -0.88847 
2820 2 -412.079 290.04 -355.329 0.0785213 0.948 0.0680772 -0.300827 
2819 2 -407.178 291.509 -346.913 -0.128075 0.543511 0.801301 -0.214731 
2818 2 -402.554 294.591 -338.757 -0.316466 -0.329693 0.888077 -0.0497036 
2793 2 -419.352 251.681 -259.442 0.965584 -0.25034 -0.0581599 -0.039932 
2794 2 -419.862 256.586 -250.931 0.625743 -0.266384 0.171364 0.712825 
2795 2 -420.986 262.422 -242.973 -0.184373 -0.0134221 0.308499 0.933089 
2796 2 -422.653 267.767 -234.839 -0.851398 0.254128 0.190779 0.417306 
2817 2 -398.145 297.878 -330.39 -0.219398 -0.918168 0.281548 0.171936 
2816 2 -394.652 301.313 -321.856 -0.0374046 -0.734122 -0.621145 0.271744 
2797 2 -424.187 273.503 -226.886 -0.79302 0.311126 -0.0892509 -0.516095 
2798 2 -425.837 278.738 -218.616 -0.168712 -0.00452906 -0.349943 -0.921442 
2815 2 -389.865 303.679 -313.545 0.250598 0.0426369 -0.961143 0.107639 
2804 3 -390.178 304.549 -230.384 0.0632736 -0.487289 -0.833206 0.253603 
3046 1 -481.702 397.998 -298.402 0.480398 -0.534598 -0.425901 -0.549574 
2814 2 -384.488 307.749 -306.234 0.33846 0.799568 -0.478844 -0.129786 
2813 2 -380.593 311.436 -297.886 0.10437 0.871587 0.402686 -0.259398 
2812 2 -377.081 312.906 -288.763 -0.145835 0.2502 0.949989 -0.116844 
2811 2 -372.909 313.536 -279.813 -0.199571 -0.655209 0.718467 0.121151 
2961 2 -366.901 357.445 -352.694 0.89287 -0.0733624 0.312782 -0.315544 
2810 2 -367.98 316.175 -271.758 -0.109182 -0.935541 -0.179662 0.283839 
2809 2 -363.714 320.038 -263.643 0.076482 -0.495238 -0.813191 0.295989 
2799 2 -425.048 285.211 -211.161 0.597423 -0.222337 -0.194733 -0.745474 
3288 2 -425.084 374.798 -211.675 0.325107 0.69893 0.623777 0.129246 
2962 2 -360.724 355.963 -345.085 0.777485 0.206299 0.262259 0.533083 
2808 2 -358.529 323.6 -256.021 0.337426 0.299574 -0.885742 0.108909 
2963 2 -354.865 355.292 -337.094 0.0121092 0.401938 0.0523756 0.914087 
3343 1 -352.458 398.034 -262.026 0.819784 -0.556224 0.0707633 0.116456 
2965 1 -322.03 394.092 -341.949 0.577584 -0.113431 -0.807503 -0.0383139 
2964 2 -347.633 356.143 -330.484 -0.669541 0.31823 -0.264968 0.616633 
3342 2 -325.12 396.182 -223.648 -0.330308 -0.176344 -0.848416 0.374151 
2807 2 -353.131 325.454 -247.953 0.181392 0.915326 -0.271482 -0.235737 
2806 2 -348.214 325.974 -239.384 -0.146052 0.781476 0.559058 -0.235412 
2805 2 -342.384 324.682 -231.521 -0.269104 0.0794809 0.957932 0.0602642 
3181 1 -729.155 470.85 -282.905 -0.407016 -0.0879648 -0.328386 -0.847799 
3183 2 -744.628 447.512 -244.904 -0.824554 0.27924 -0.252267 -0.422489 
3184 2 -742.912 453.839 -237.539 -0.186452 -0.0135219 -0.346746 -0.919141 
3182 3 -716.773 489.784 -256.251 -0.331583 -0.0600123 -0.325116 -0.883601 
3177 2 -695.058 518.946 -280.554 -0.130089 -0.962581 -0.153404 0.18161 
3178 2 -698.225 515.841 -289.412 -0.380876 -0.676845 0.629251 0.0292982 
3179 2 -703.243 511.138 -296.478 -0.189064 0.100803 0.948885 -0.231757 
3180 2 -707.418 506.794 -304.371 0.105971 0.8193 0.465385 -0.317701 
3185 2 -741.147 459.628 -229.735 0.581927 -0.365947 -0.229922 -0.688897 
3176 2 -690.409 522.163 -272.427 0.155589 -0.455037 -0.837221 0.260373 
3175 2 -687.494 522.071 -262.92 0.133847 0.3876 -0.909988 -0.0614205 
3174 2 -683.801 521.065 -253.739 0.00611758 0.956782 -0.214296 -0.196487 