ITEM: TIMESTEP
10000000
ITEM: NUMBER OF ATOMS
4067
ITEM: BOX BOUNDS pp pp pp
-4.6310929470000001e+03 4.6704658980000004e+03
-4.6310929470000001e+03 4.6704658980000004e+03
-4.6310929470000001e+03 4.6704658980000004e+03
ITEM: ATOMS id type x y z c_q[1] c_q[2] c_q[3] c_q[4] 
4065 2 354.231 549.374 -819.173 -0.199035 0.428692 -0.549321 0.689097 
4066 2 362.023 543.211 -819.457 -0.598503 -0.391713 -0.633591 0.294818 
4067 2 367.729 535.092 -820.476 -0.574596 -0.751274 -0.0791544 -0.314899 
4047 2 227.46 656.525 -864.023 -0.234556 -0.44537 0.46631 -0.72745 
4048 2 231.683 647.635 -862.448 0.441888 0.0621139 0.685798 -0.574941 
4049 2 237.296 639.604 -861.524 0.740434 0.605555 0.287233 -0.0505792 
4050 2 241.149 630.515 -860.798 0.461025 0.539098 -0.198622 0.676298 
4051 2 246.62 623.008 -857.722 -0.255815 0.2218 -0.519975 0.784213 
4064 2 346.555 554.943 -821.713 0.444872 0.61471 -0.0116291 0.651218 
4052 2 252.478 615.895 -854.035 -0.725841 -0.185531 -0.568431 0.340028 
4063 2 338.317 560.277 -823.123 0.76558 0.428256 0.467772 0.108049 
4062 2 330.133 565.614 -824.486 0.53686 -0.0925941 0.670026 -0.504254 
4045 1 261.885 685.716 -850.422 0.337629 0.61548 -0.344275 0.623431 
4057 2 288.653 585.193 -841.408 0.333291 0.621723 -0.100216 0.701666 
4056 2 280.889 591.146 -842.87 0.769062 0.415872 0.47985 0.0730632 
4053 2 259.767 609.834 -851.095 -0.65747 -0.593729 -0.144154 -0.440952 
4055 2 274.02 597.982 -844.561 0.490388 -0.0785937 0.663019 -0.560133 
4054 2 267.062 603.828 -848.538 -0.0977318 -0.459587 0.290584 -0.83354 
4046 3 277.581 654.421 -850.692 0.307271 0.592059 -0.389982 0.634794 
4058 2 296.692 579.728 -839.598 -0.403744 0.374694 -0.459291 0.696883 
4059 2 305.395 576.065 -836.86 -0.804746 -0.111845 -0.564177 0.146899 
4060 2 314.162 572.724 -833.772 -0.676259 -0.458793 -0.260288 -0.51423 
4061 2 322.278 569.244 -829.182 0.0049581 -0.470044 0.188532 -0.862258 
4041 2 319.64 669.928 -840.835 0.703909 -0.473572 -0.513449 -0.128887 
4043 2 309.617 686.877 -838.612 0.0543073 -0.293999 0.507645 0.80803 
4040 2 324.837 661.618 -839.48 0.302269 0.0918008 -0.728035 -0.608417 
4042 2 314.246 678.242 -840.099 0.616231 -0.652829 0.0822272 0.432795 
4039 2 331.665 654.559 -839.865 -0.301539 0.653665 -0.270249 -0.639345 
4038 2 339.028 648.177 -837.895 -0.624456 0.644554 0.399495 -0.187107 
4037 2 345.286 642.523 -832.729 -0.386766 0.110782 0.878351 0.258146 
4044 2 305.658 695.463 -835.701 -0.62601 0.281695 0.523944 0.504224 
4036 2 351.491 636.259 -828.348 0.00625962 -0.615451 0.605723 0.504262 
4035 2 357.982 630.07 -824.155 0.436665 -0.836819 -0.0586992 0.32498 
4034 2 364.492 624.392 -819.423 0.493301 -0.503517 -0.706402 -0.0641954 
3795 2 160.507 525.97 -707.763 0.207266 -0.290639 -0.878099 0.31861 
3794 2 165.402 529.737 -700 0.336306 0.504486 -0.793847 0.0468926 
3793 2 170.148 533.732 -692.174 0.261901 0.929796 -0.0708901 -0.248721 
3796 2 155.78 521.562 -715.175 -0.0657258 -0.930796 -0.283634 0.221023 
3797 2 152.105 518.795 -723.909 -0.252568 -0.821183 0.507185 0.0680499 
3798 2 148.722 515.284 -732.606 0.00427019 -0.137959 0.972475 -0.187728 
3799 2 149.993 512.381 -742.082 0.173487 0.61839 0.745441 -0.178367 
3800 2 150.382 507.797 -750.846 0.203479 0.974323 -0.00893685 0.09597 
3801 2 152.491 503.848 -759.695 0.0435944 0.6319 -0.742143 0.219147 
3802 1 172.852 542.061 -778.493 -0.901036 0.125584 -0.0476584 0.412421 
3792 2 173.325 538.016 -683.847 0.00914003 0.627434 0.728201 -0.275621 
3791 2 176.982 540.897 -675.145 -0.227695 -0.155297 0.954011 -0.117897 
3803 3 178.441 545.966 -744.145 -0.909604 0.0648945 -0.0770878 0.403072 
3790 2 182.1 542.157 -666.733 -0.209061 -0.851398 0.430696 0.21428 
3909 2 322.861 515.101 -728.632 -0.434077 0.571401 -0.643329 0.266843 
3908 2 314.247 513.612 -723.976 -0.0833718 0.854777 0.049738 0.509835 
3907 2 305.464 513.008 -719.391 0.380128 0.526148 0.684077 0.332732 
3906 2 297.039 512.444 -714.199 0.470876 -0.309638 0.820142 -0.0988286 
3905 2 289.671 513.066 -707.71 0.104574 -0.885074 0.275484 -0.3603 
3904 2 283.322 513.584 -700.128 -0.20931 -0.777239 -0.536036 -0.254469 
3939 2 350.476 452.807 -679.19 0.217027 0.256455 -0.562339 -0.755582 
3940 2 344.363 460.272 -677.03 0.651228 -0.35218 -0.626137 -0.244589 
3903 2 279.707 515.658 -691.182 -0.212773 -0.165412 -0.961047 0.0612866 
3941 2 338.95 468.487 -676.62 0.649396 -0.623384 -0.0252329 0.434788 
3942 2 332.982 476.084 -674.511 0.11284 -0.350776 0.437801 0.820094 
3943 2 327.837 483.603 -670.659 -0.639527 0.185036 0.484982 0.567062 
3902 2 276.651 519.074 -682.416 -0.0169671 0.661149 -0.709978 0.24192 
3901 2 273.248 521.24 -673.434 0.14794 0.961557 0.16036 0.166752 
4018 1 381.62 547.809 -699.091 -0.381591 0.670831 0.383309 0.507393 
3996 2 427.506 532.112 -698.036 -0.149714 0.532543 0.698208 0.454412 
3995 2 427.483 524.005 -692.312 0.189175 -0.328735 0.842323 0.382934 
3994 2 427.48 516.235 -686.195 0.40924 -0.85026 0.298284 0.143551 
4020 2 417.294 539.193 -728.806 0.325008 -0.697175 -0.594854 -0.233379 
3993 2 428.527 508.768 -679.665 0.392132 -0.705583 -0.558815 -0.190031 
4021 2 416.829 546.384 -735.583 0.336539 -0.910299 0.155544 0.184126 
3997 2 430.334 539.867 -703.493 -0.591917 0.771892 0.042935 0.227978 
3998 2 433.487 549.015 -705.446 -0.482169 0.618114 -0.514316 -0.347747 
3992 3 453.646 552.644 -667.745 -0.523965 0.791046 -0.159248 -0.272666 
4022 2 414.79 553.379 -742.225 0.0646076 -0.547936 0.714025 0.430999 
3815 2 224.565 563.316 -676.741 0.826824 -0.0931525 0.0912721 -0.547133 
3814 2 223.305 561.294 -686.296 0.000426089 -0.066996 -0.140974 -0.987744 
3813 2 221.628 561.132 -696.028 -0.762381 -0.0385403 -0.0432312 -0.644532 
3812 2 219.76 563.508 -705.502 -0.97748 -0.0911677 -0.124314 0.144107 
3811 2 215.771 565.925 -714.264 -0.500375 0.128452 -0.223359 0.826581 
3810 2 213.709 567.343 -723.896 0.405294 0.122741 -0.00576373 0.905891 
3809 2 213.619 571.472 -732.931 0.949113 0.193228 -0.0544237 0.242663 
3808 2 213.025 574.579 -742.297 0.783834 0.131924 0.119616 -0.594889 
3807 2 209.633 576.506 -751.384 0.0578107 -0.168886 0.103742 -0.978455 
3806 2 203.938 579.119 -759.071 -0.660777 -0.312795 -0.14527 -0.666656 
3805 2 198.955 581.645 -767.154 -0.954981 -0.111508 -0.265628 0.0708403 
3804 2 194.523 583.877 -775.835 -0.546598 0.161947 -0.222272 0.790948 
3816 2 227.511 563.734 -667.275 0.9423 0.0115213 0.217384 0.254325 
3911 3 300.187 554.345 -703.356 -0.951973 -0.168833 0.245891 0.069147 
3910 1 319.753 562.125 -731.346 -0.949688 -0.12018 0.285075 0.0488034 
4017 2 353.969 576.146 -673.471 -0.774939 -0.271443 0.328247 -0.46695 
4033 2 370.538 620.003 -812.775 0.280849 0.22917 -0.87925 -0.30907 
4016 2 355.741 583.738 -679.625 -0.839324 -0.428246 -0.0511989 0.330936 
4015 2 356.483 590.679 -686.736 -0.238671 -0.131343 -0.338496 0.90067 
4014 2 356.593 598.069 -693.545 0.540486 0.20803 -0.340611 0.740664 
4031 2 382.822 610.733 -800.358 -0.368644 0.809458 0.408315 -0.205325 
4032 2 376.786 615.244 -806.729 -0.0559118 0.831916 -0.342441 -0.43304 
3912 2 302.389 604.081 -718.506 -0.647444 -0.109229 -0.0219805 0.753924 
3913 2 300.972 602.178 -708.923 -0.99443 -0.029949 0.0234457 -0.0983004 
4030 2 388.994 605.225 -794.877 -0.383633 0.0891218 0.873946 0.284782 
4010 2 376.485 620.789 -715.973 -0.773656 -0.139222 0.56765 -0.244637 
3914 2 300.372 600.79 -699.132 -0.549983 -0.00182449 0.141059 -0.823176 
4011 2 368.456 615.776 -713.174 -0.27848 0.252549 0.332762 -0.864834 
3915 2 299.027 597.781 -689.84 0.207888 0.192133 0.186892 -0.940712 
3916 2 296.402 593.934 -681.141 0.879116 0.338092 0.105744 -0.318852 
4012 2 361.964 611.757 -706.899 0.61784 0.399777 0.180251 -0.652657 
4013 2 358.605 604.995 -700.347 0.919353 0.382936 -0.0894123 0.0124981 
3917 2 296.001 587.186 -673.948 0.805516 0.345061 -0.235221 0.420413 
4029 2 393.885 599.46 -788.42 0.0238491 -0.650415 0.624357 0.431938 
4009 2 385.637 623.736 -718.601 -0.614604 -0.493377 0.346692 0.508572 
4019 3 393.611 579.843 -706.765 -0.3668 0.643006 0.401401 0.539332 
4028 2 397.412 594.313 -780.722 0.313166 -0.93456 -0.100925 0.135422 
4008 2 395.431 623.991 -719.468 0.0670145 -0.692007 -0.0921928 0.712836 
3918 2 295.307 579.84 -667.324 0.124183 0.0767935 -0.430052 0.890919 
4027 2 401.976 587.497 -775.291 0.419907 -0.458626 -0.759937 -0.189307 
4026 2 405.335 580.484 -769.217 0.0827569 0.250408 -0.845103 -0.465025 
4025 2 407.979 573.527 -762.703 -0.311335 0.833209 -0.354105 -0.288865 
4024 2 410.366 567.384 -755.264 -0.364044 0.847159 0.386498 0.0203064 
4007 2 404.653 621.485 -716.883 0.586354 -0.483262 -0.599171 0.252272 
4023 2 411.268 560.225 -748.439 -0.128219 0.190135 0.89708 0.377699 
3999 2 434.402 558.448 -708.109 -0.0640643 -0.0591673 -0.753635 -0.651482 
4006 2 413.193 616.597 -715.529 0.523403 0.126942 -0.727054 -0.425826 
4005 2 421.241 610.918 -714.603 -0.0649689 0.677595 -0.331555 -0.653234 
4004 2 428.716 604.581 -713.007 -0.612922 0.691848 0.296185 -0.240721 
4000 2 436.05 568.076 -709.551 0.525994 -0.57723 -0.373915 -0.500324 
4001 2 437.735 577.766 -709.121 0.655006 -0.709739 0.171766 0.194254 
4003 2 434.928 596.953 -711.72 -0.549271 0.248037 0.718292 0.347615 
4002 2 437.544 587.602 -709.637 0.131924 -0.392887 0.674868 0.610564 
3690 2 204.847 343.881 -534.853 0.2207 -0.938353 0.16849 -0.205901 
3691 2 209.185 347.411 -542.987 0.18144 -0.480491 0.852042 0.101148 
3692 2 211.127 351.207 -551.828 -0.203662 0.442697 0.854226 0.181214 
3693 2 209.635 356.25 -560.183 -0.270011 0.948084 0.161425 -0.0466268 
3689 2 200.922 341.071 -526.197 0.0337659 -0.805501 -0.538922 -0.244113 
3695 3 186.166 381.304 -521.323 -0.982954 -0.155046 -0.0277209 -0.0948329 
3688 2 196.316 338.457 -517.865 -0.208561 -0.145665 -0.952219 -0.169005 
3694 1 184.288 395.465 -553.261 -0.973008 -0.189284 -0.075502 -0.108289 
3724 2 323.783 389.948 -533.715 0.735247 0.0674045 -0.66324 -0.122397 
3725 2 313.941 390.787 -532.561 0.509312 -0.474186 -0.380704 0.608945 
3726 2 304.462 391.345 -529.758 -0.106409 -0.620935 0.213887 0.746572 
3727 2 294.821 393.322 -528.406 -0.53521 -0.229306 0.658329 0.477046 
3723 2 332.559 389.449 -538.114 0.408653 0.440827 -0.262948 -0.754674 
3728 2 285.74 397.279 -528.197 -0.68613 0.423518 0.591119 -0.020896 
3789 2 186.494 543.068 -657.847 0.0875175 -0.890435 -0.377411 0.238803 
3788 2 190.333 545.653 -649.193 0.175657 -0.233885 -0.936065 0.195511 
3747 2 206.289 509.964 -610.591 0.458457 -0.845156 0.255888 -0.100248 
3746 2 202.053 502.826 -605.202 0.176719 -0.698416 -0.530202 -0.447069 
3745 2 197.832 496.335 -598.946 -0.190293 -0.0706327 -0.905721 -0.372115 
3744 2 194.88 490.033 -591.812 -0.374948 0.668349 -0.633967 -0.103962 
3774 2 129.107 514.511 -558.176 -0.147223 -0.0635237 0.475119 0.865189 
3773 2 131.655 506.406 -563.35 0.469188 -0.378267 0.303359 0.738072 
3772 2 133.162 499.138 -569.959 0.911442 -0.406414 -0.0624339 0.0142355 
3771 2 137.162 492.417 -576.022 0.646416 -0.118752 -0.423454 -0.623483 
3770 2 140.042 486.908 -583.731 -0.166919 0.181066 -0.245937 -0.93748 
3769 2 145.605 482.529 -590.642 -0.740713 0.391093 0.12772 -0.531111 
3768 2 152.474 478.184 -596.261 -0.847482 0.0910215 0.44364 0.276899 
3767 2 157.035 470.66 -600.729 -0.260943 -0.119803 0.505755 0.813491 
3760 2 201.365 422.852 -597.512 -0.212617 -0.610986 0.421255 0.635637 
3761 2 192.094 426.108 -598.524 -0.563017 0.157694 0.765397 0.268909 
3762 2 184.793 432.536 -600.672 -0.515872 0.758949 0.261387 -0.299248 
3765 2 166.004 454.24 -607.063 0.806305 -0.488955 -0.328496 -0.053717 
3766 2 161.681 462.697 -604.155 0.522833 -0.529596 0.180606 0.643083 
3764 2 171.349 445.922 -606.208 0.380359 -0.0073828 -0.727211 -0.571346 
3763 2 177.855 438.776 -603.92 -0.124009 0.658508 -0.408918 -0.619496 
3776 3 177.457 511.865 -576.911 0.133115 0.465332 0.860425 -0.159422 
3787 2 195.193 545.761 -640.561 0.215566 0.529766 -0.807442 -0.144627 
3775 1 173.265 523.728 -544.261 0.136443 0.511042 0.835049 -0.151372 
3786 2 198.984 543.274 -631.679 -0.101629 0.975211 -0.0865791 -0.176462 
3785 2 201.858 540.222 -622.75 -0.202787 0.640032 0.74094 0.0156367 
3784 2 205.971 538.158 -614.003 -0.230517 -0.0993147 0.953927 0.164384 
3783 2 209.662 533.334 -606.104 0.0917258 -0.759896 0.564877 0.308316 
3782 2 214.289 530.927 -597.69 0.159427 -0.915509 -0.302631 0.211757 
3777 2 220.119 523.442 -549.826 0.0228967 -0.0314881 0.99921 0.007988 
3778 2 220.798 524.153 -559.677 -0.0361041 0.737456 0.674424 0.00264393 
3781 2 217.54 529.236 -588.472 0.212654 -0.378389 -0.900623 -0.0218744 
3779 2 220.208 524.698 -569.493 -0.0994305 0.982647 -0.151261 -0.040488 
3780 2 219.634 526.514 -579.191 0.0381543 0.475274 -0.866068 -0.15028 
3735 2 234.731 438.565 -542.529 -0.543957 0.25345 0.797587 0.0610694 
3734 2 242.61 434.686 -538.075 -0.281402 -0.451025 0.717893 0.449466 
3736 2 226.46 441.794 -546.919 -0.370172 0.814376 0.329364 -0.302132 
3737 2 219.29 446.16 -552.267 -0.00787206 0.772134 -0.383582 -0.506568 
3738 2 211.429 450.165 -556.687 0.292252 0.175071 -0.869939 -0.356575 
3739 2 205.085 455.624 -561.834 0.405941 -0.63134 -0.658874 -0.0500763 
3759 2 210.46 419.04 -597.95 0.45565 -0.663767 -0.159001 0.571416 
3740 2 200.187 461.37 -568.268 0.331108 -0.868002 0.133425 0.345163 
3741 2 194.966 467.568 -573.996 0.00827984 -0.373574 0.776601 0.507213 
3742 2 191.85 475.513 -578.996 -0.238769 0.483523 0.761476 0.359653 
3743 2 192.288 483.046 -585.359 -0.380871 0.907587 0.0723597 0.161203 
3749 3 230.788 465.465 -599.328 0.311801 0.428947 0.329866 -0.781008 
3758 2 220.355 417.79 -598.339 0.712927 -0.190511 -0.66219 0.130171 
3696 2 162.106 427.124 -526.223 -0.970682 -0.166502 -0.156221 0.0751629 
3757 2 229.983 419.829 -599.092 0.611818 0.469361 -0.505445 -0.387175 
3756 2 239.633 421.801 -598.878 0.0712046 0.712111 0.0494051 -0.696697 
3697 2 165.191 423.378 -517.657 -0.658446 -0.318292 -0.0436776 -0.680611 
3867 2 219.607 551.764 -520.427 -0.0292308 0.841473 0.404686 0.356789 
3733 2 249.918 429.635 -533.906 0.188172 -0.811866 0.181887 0.521903 
3755 2 249.058 424.441 -597.993 -0.385859 0.476302 0.603447 -0.510001 
3944 2 323.805 491.395 -665.997 -0.879168 0.455589 0.0539831 -0.128793 
3945 2 321.267 499.29 -660.566 -0.466053 0.333424 -0.399241 -0.715702 
3900 2 269.065 523.529 -664.81 0.256436 0.568344 0.781537 0.0206305 
3729 2 277.514 402.786 -528.31 -0.453378 0.737004 0.00663632 -0.501228 
3732 2 255.301 422.599 -529.427 0.50928 -0.755795 -0.406435 0.0649493 
3946 2 320.508 507.786 -655.649 0.29156 -0.238191 -0.443606 -0.813309 
3971 2 367.267 530.183 -660.684 0.639175 -0.551641 0.414962 0.339049 
3947 2 321.267 516.38 -650.634 0.817275 -0.515607 -0.0688145 -0.247941 
3970 2 368.493 520.441 -661.648 0.694056 -0.589957 -0.322101 -0.257852 
3969 2 369.891 510.975 -658.924 0.268624 -0.25569 -0.749985 -0.54771 
3968 2 373.634 502.501 -655.661 -0.0630783 0.408256 -0.703709 -0.578049 
3967 2 376.768 493.204 -653.885 -0.511161 0.759043 -0.180456 -0.36056 
3748 1 249.816 491.829 -612.455 0.246438 0.433719 0.334898 -0.799374 
3730 2 269.932 409.197 -529.037 0.117856 0.510641 -0.474746 -0.707087 
3731 2 262.193 415.45 -529.311 0.593128 -0.152527 -0.692022 -0.382152 
3948 2 323.503 525.006 -646.291 0.756052 -0.202851 0.419597 0.459539 
3949 2 327.601 532.29 -640.781 0.176862 0.197919 0.507844 0.819538 
3754 2 257.332 429.516 -596.235 -0.637259 -0.333614 0.694448 -0.0185759 
3753 2 265.298 435.447 -595.924 -0.43794 -0.741522 0.0630925 0.504354 
3752 2 271.708 442.779 -597.859 0.0268105 -0.39506 -0.48143 0.781943 
3899 2 268.583 525.7 -655.143 -0.0280258 -0.246497 0.958111 -0.143101 
3751 2 276.012 450.836 -601.476 0.599887 0.2022 -0.547255 0.547505 
3750 2 281.646 457.615 -605.977 0.841206 0.46384 -0.199249 -0.193713 
3937 1 362.533 442.864 -634.702 0.701174 -0.668864 -0.224755 0.102279 
3938 3 343.432 472.05 -631.473 0.681712 -0.694012 -0.175371 0.151199 
3891 2 287.561 507.784 -582.037 0.107535 -0.907933 0.364359 0.177023 
3892 2 284.638 511.643 -590.648 -0.199344 -0.315464 0.916003 0.147253 
3893 2 280.492 513.08 -599.549 -0.184701 0.448076 0.874707 0.000831434 
3894 2 277.34 514.914 -608.748 -0.230908 0.955315 0.182194 -0.0293199 
3895 2 275.61 519.27 -617.426 -0.0170175 0.704329 -0.673068 -0.224968 
3896 2 272.957 521.996 -626.571 0.18149 -0.0975555 -0.977627 -0.0422963 
3897 2 269.87 523.352 -635.889 0.10878 -0.866482 -0.482876 0.0648561 
3898 2 267.879 525.061 -645.353 0.0299878 -0.922463 0.384827 -0.00846542 
3927 2 312.525 515.475 -610.081 -0.914911 -0.372861 -0.154319 0.00988376 
3721 1 342.708 435.416 -535.09 0.19665 -0.431133 -0.160679 0.865815 
3928 2 315.108 508.491 -603.576 -0.499966 -0.46612 0.127183 -0.718742 
3929 2 320.314 502.034 -598.078 0.266915 -0.178878 0.470699 -0.821707 
3890 2 292.592 505.418 -573.8 0.247367 -0.7493 -0.607149 0.0934291 
3930 2 326.085 495.531 -593.358 0.782573 0.396862 0.435295 -0.20149 
3931 2 331.213 487.652 -590.143 0.614759 0.646555 -0.0139854 0.451489 
3889 2 299.114 504.281 -566.425 0.338827 0.146601 -0.924203 -0.0977406 
3888 2 307.035 504.17 -560.468 0.201607 0.768882 -0.483804 -0.366208 
3887 2 315.276 506.702 -555.777 -0.0456561 0.788671 0.319336 -0.523392 
3932 2 336.204 479.181 -588.512 -0.0661219 0.498249 -0.460019 0.731955 
3933 2 343.877 472.996 -587.409 -0.57348 -0.0411346 -0.699824 0.42388 
3886 2 324.424 507.756 -552.08 -0.513239 0.237401 0.796731 -0.213182 
3885 2 333.411 509.842 -548.686 -0.527339 -0.480622 0.667231 0.213821 
3926 2 309.347 521.995 -616.974 -0.593192 -0.0708485 -0.355747 0.718713 
3925 2 304.992 529.027 -622.371 0.0823806 0.291187 -0.373064 0.877067 
3934 2 351.224 466.237 -586.954 -0.708242 -0.560655 -0.408412 -0.131378 
3935 2 358.647 459.781 -587.412 -0.336415 -0.701316 0.23269 -0.583812 
3936 2 365.024 452.359 -588.53 0.237134 -0.206639 0.740126 -0.594375 
3884 3 308.605 547.156 -574.834 0.0667598 0.797428 0.0204801 -0.59936 
3950 2 331.633 540.31 -636.684 -0.665738 0.432281 0.145103 0.590654 
3924 2 302.519 536.496 -628.486 0.72994 0.434024 -0.0838787 0.52132 
3923 2 299.033 543.918 -633.972 0.842007 0.360231 0.297021 -0.270251 
3965 3 388.244 525.886 -622.221 -0.583485 0.751532 0.0336284 -0.305964 
3966 2 380.67 484.256 -652.219 -0.62905 0.618505 0.439816 0.168253 
3850 2 273.188 545.15 -521.098 -0.0617217 -0.384172 0.336862 -0.857395 
3851 2 279.24 538.437 -516.938 0.502235 0.16522 0.527702 -0.664826 
3951 2 334.97 547.609 -630.864 -0.920042 0.305133 -0.227898 -0.0920848 
3972 2 368.725 539.997 -660.204 0.146089 0.0476588 0.669066 0.727143 
3973 2 371.521 549.409 -659.496 -0.386626 0.580946 0.417315 0.582125 
3722 3 312.384 432.861 -517.759 0.176008 -0.473765 -0.184711 0.842882 
3720 2 335.159 479.404 -519.784 0.290399 -0.681469 0.665972 -0.0880318 
3960 2 399.616 547.826 -584.162 -0.0812088 -0.620794 0.358224 -0.692601 
3922 2 297.904 551.741 -639.917 0.25417 0.0875332 0.463509 -0.844331 
3825 2 286.135 551.591 -609.092 -0.46249 0.553616 -0.232988 0.652172 
3849 2 268.152 552.774 -524.897 -0.718395 -0.567399 -0.066112 -0.396984 
3824 2 277.019 551.937 -612.86 0.298823 0.536085 0.105931 0.782366 
3823 2 267.562 553.359 -615.464 0.762525 0.276369 0.538377 0.228748 
3883 1 341.802 553.161 -565.34 0.0732478 0.803251 0.0425506 -0.589587 
3991 1 467.144 522.457 -656.291 -0.540441 0.779631 -0.136114 -0.285608 
3964 1 406.93 497.241 -615.217 -0.591684 0.75388 0.113444 -0.262115 
3963 2 421.112 527.869 -582.263 0.472712 0.663768 -0.118154 0.567446 
3962 2 414.931 535.476 -583.241 0.749185 0.510957 0.419302 -0.0427884 
3961 2 407.622 542.046 -583.957 0.45211 -0.13333 0.683406 -0.557472 
3868 2 225.138 554.791 -528.024 -0.234641 0.858023 -0.357022 0.285088 
3819 2 240.134 564.251 -640.639 -0.931894 -0.160844 -0.268306 0.183617 
3818 2 235.142 565.321 -649.098 -0.467557 0.199351 -0.154363 0.847244 
3869 2 231.171 557.403 -535.382 -0.260143 0.187143 -0.942636 -0.0934929 
3870 2 236.23 559.874 -543.544 -0.144018 -0.540576 -0.80566 -0.194804 
3817 2 231.523 565.129 -658.338 0.43283 0.196393 0.0489476 0.87846 
3871 2 241.108 561.499 -552.07 0.0673276 -0.894569 -0.101223 -0.430078 
3820 2 244.923 560.976 -632.591 -0.648246 -0.358684 -0.172838 -0.649038 
3952 2 338.971 553.798 -624.237 -0.63832 -0.0152522 -0.402255 -0.65613 
3826 2 295.411 553.712 -606.428 -0.686501 0.235602 -0.68784 -0.00916897 
3821 2 251.361 558.422 -625.603 0.0265921 -0.440876 0.166053 -0.881673 
3822 2 259.468 556.12 -620.485 0.679591 -0.142445 0.525814 -0.491311 
3843 2 251.819 600.04 -554.212 -0.256355 -0.142442 0.332893 -0.8962 
3844 2 252.449 593.586 -546.876 0.556199 0.0829002 0.440891 -0.699561 
3872 2 248.576 563.338 -558.249 0.360795 -0.679466 0.577499 -0.273217 
3919 2 295.111 571.902 -661.447 -0.625071 -0.257735 -0.328752 0.65938 
3959 2 392.825 554.401 -587.084 -0.689142 -0.570328 -0.151868 -0.420411 
3953 2 344.01 558.692 -617.27 0.0541393 -0.466984 -0.0769273 -0.879248 
3827 2 304.959 556.289 -606.968 -0.360671 -0.580677 -0.576463 -0.447684 
3842 2 252.346 606.298 -561.77 -0.867368 -0.313051 0.146115 -0.35822 
3841 2 251.729 613.145 -568.843 -0.812385 -0.273427 -0.193832 0.477177 
3873 2 255.936 565.368 -564.696 0.339209 -0.0103616 0.928241 0.152308 
3954 2 351.613 560.524 -611.302 0.715389 -0.37637 0.311014 -0.499834 
3921 2 297.199 558.708 -646.896 -0.494252 -0.235518 0.316157 -0.774784 
3828 2 314.156 557.034 -610.479 0.127126 -0.820396 0.103164 -0.547856 
3977 2 392.686 582.023 -658.112 0.347021 -0.618652 -0.205021 -0.674398 
3976 2 385.338 575.447 -659.032 -0.228353 -0.359686 -0.586479 -0.688856 
3975 2 379.817 567.321 -659.095 -0.610493 0.268035 -0.634264 -0.391362 
3974 2 374.777 558.76 -659.166 -0.726328 0.634169 -0.215403 0.154528 
3958 2 384.548 558.617 -590.626 -0.793575 -0.060837 -0.550299 0.252404 
3957 2 376.318 560.898 -595.62 -0.369313 0.376006 -0.281859 0.801738 
3956 2 368.421 561.468 -601.451 0.358408 0.444702 0.161083 0.804883 
3955 2 359.839 562.531 -606.208 0.831431 0.219011 0.463968 0.213284 
3848 2 263.687 560.788 -528.573 -0.747395 -0.32617 -0.478156 0.32616 
3847 2 261.426 569.297 -533.053 -0.12536 0.0314324 -0.563244 0.816121 
3874 2 261.947 568.378 -571.933 0.0714489 0.780377 0.528858 0.325908 
3920 2 296.079 564.488 -654.843 -0.935551 -0.342454 -0.0137381 -0.0853256 
3839 2 252.544 624.327 -585.143 0.666999 0.174892 -0.185586 0.700059 
3840 2 252.193 619.217 -576.685 -0.0986044 -0.0406723 -0.314445 0.943264 
3838 2 254.23 628.849 -593.872 0.957674 0.252123 -0.0554367 -0.127361 
3837 2 255.303 630.997 -603.418 0.512968 0.103701 0.064962 -0.849641 
3836 2 256.693 633.571 -612.886 -0.347627 0.0193206 0.158742 -0.923896 
3835 2 259.942 634.913 -622.178 -0.936551 -0.036292 0.208133 -0.279707 
3834 2 265.897 634.516 -630.073 -0.796273 -0.145619 0.247582 0.532398 
3833 2 272.025 633.17 -637.73 -0.000241486 -0.299408 0.0702474 0.951536 
3882 2 329.437 593.321 -586.832 -0.319577 0.578357 -0.148518 0.735742 
3881 2 320.116 591.66 -589.763 0.383857 0.460985 0.34383 0.722446 
3845 2 255.461 586.381 -540.812 0.845384 0.488489 0.216032 -0.00581826 
3880 2 310.318 590.911 -590.185 0.724904 0.00448199 0.685102 0.0716223 
3832 2 279.129 632.474 -644.66 0.668535 -0.289487 -0.261177 0.633281 
3831 2 284.463 632.897 -652.942 0.942226 0.0779935 -0.251304 -0.207299 
3829 1 307.408 594.278 -638.664 0.886586 -0.0921649 -0.445706 0.0825633 
3878 2 291.447 585.593 -588.108 0.114752 -0.731425 -0.179956 -0.647661 
3877 2 282.472 581.355 -587.19 -0.460545 -0.26881 -0.668961 -0.517813 
3879 2 300.662 588.925 -589.21 0.567571 -0.544427 0.460146 -0.41198 
3876 2 274.641 575.854 -584.715 -0.590111 0.440937 -0.674432 -0.0498541 
3875 2 267.705 571.112 -579.5 -0.317441 0.87643 -0.136201 0.335486 
3830 3 280.196 595.893 -616.767 0.903059 -0.129657 -0.396778 0.101195 
3846 2 259.575 578.281 -536.751 0.526718 0.469921 -0.339719 0.621557 
3978 2 399.877 588.618 -656.536 0.723284 -0.505269 0.427411 -0.197189 
3990 2 497.023 554.691 -639.311 -0.658021 -0.616836 -0.120269 -0.414797 
3981 2 426.82 599.63 -655.052 -0.458236 0.466407 -0.414126 0.633233 
3979 2 408.13 593.909 -655.333 0.58304 0.075569 0.733492 0.341091 
3980 2 417.078 598.101 -656.001 0.185678 0.596228 0.259735 0.736596 
3982 2 436.438 598.493 -652.672 -0.789753 0.00409619 -0.602597 0.114674 
3983 2 445.755 597.013 -649.623 -0.716106 -0.462245 -0.2758 -0.44436 
3989 2 490.684 561.955 -641.558 -0.742017 -0.303306 -0.535699 0.265411 
3984 2 454.005 593.349 -645.398 -0.0769652 -0.581827 0.203613 -0.783642 
3985 2 462.282 588.697 -642.684 0.600972 -0.13631 0.594764 -0.516244 
3988 2 483.854 569.182 -640.909 -0.204161 0.314039 -0.643588 0.667453 
3987 2 476.87 576.233 -640.929 0.415869 0.674374 -0.133673 0.595319 
3986 2 470.807 584.083 -640.417 0.702093 0.551836 0.449806 0.0146883 
1068 2 -171.609 -375.585 -367.077 0.801066 0.40957 0.42935 0.0787697 
1067 2 -177.926 -368.055 -369.001 0.482419 -0.0230708 0.646796 -0.590249 
1069 2 -164.316 -381.619 -364.291 0.341257 0.565418 0.0244499 0.750499 
1066 2 -182.959 -359.428 -369.563 -0.238642 -0.496517 0.472711 -0.687797 
1041 2 -145.354 -267.132 -370.284 -0.103281 -0.117019 -0.761422 -0.629187 
1042 2 -141.844 -258.149 -372.293 0.476241 -0.611418 -0.221327 -0.591926 
1040 2 -146.556 -276.868 -368.863 -0.521033 0.473645 -0.550224 -0.44882 
1065 2 -187.1 -350.54 -367.822 -0.624529 -0.757757 -0.092494 -0.164962 
1043 2 -136.646 -249.882 -370.495 0.830798 -0.452439 0.321225 -0.0434632 
1039 2 -144.739 -286.495 -367.483 -0.649512 0.724167 0.219683 0.0738563 
1044 2 -131.228 -242.616 -366.631 0.55537 -0.0646209 0.470115 0.68292 
1064 2 -186.438 -340.758 -366.236 -0.435769 -0.543007 -0.535205 0.478335 
1063 2 -184.988 -331.975 -361.909 0.150215 0.0903431 -0.847142 0.501622 
1038 2 -139.122 -294.128 -364.47 -0.457975 0.239756 0.777482 0.358187 
1003 2 -10.5508 -353.714 -371.813 0.90393 0.188652 -0.37387 -0.08684 
1004 2 -17.925 -356.548 -365.79 0.615379 -0.243346 -0.329861 0.673263 
1002 2 -2.63817 -349.178 -375.568 0.453355 0.533433 -0.00826849 -0.714038 
1001 2 5.47529 -343.754 -377.47 -0.212395 0.396964 0.493793 -0.74396 
1000 2 14.4512 -340.029 -375.578 -0.590375 -0.0615789 0.775745 -0.21421 
999 2 23.5282 -336.932 -373.167 -0.493395 -0.638939 0.473868 0.351806 
998 2 32.3394 -336.111 -368.638 -0.00541363 -0.838515 -0.131638 0.52871 
997 2 40.7248 -336.179 -363.338 0.375326 -0.55865 -0.68282 0.284248 
3666 2 165.779 252.611 -465.821 -0.515028 -0.771416 0.295711 0.228514 
3687 2 192.576 339.804 -508.705 -0.0692383 0.643876 -0.739602 0.183354 
3665 2 172.533 259.194 -462.7 -0.162528 -0.724391 -0.393062 0.542536 
3654 2 199.011 279.666 -373.803 0.0697078 0.790764 0.605383 0.0578358 
3655 2 201.353 279.391 -383.398 -0.0161489 0.96029 -0.277902 0.0187779 
3656 2 202.052 279.622 -393.322 0.00213134 0.439196 -0.897684 -0.0355665 
3653 2 197.499 278.974 -364.055 0.0774735 0.0758234 0.992315 0.059669 
3657 2 201.521 280.737 -403.221 -0.0220886 -0.340577 -0.93972 -0.0210967 
3659 2 202.659 281.518 -422.915 -0.115633 -0.870726 0.472986 0.0689173 
3658 2 202.404 281.556 -413.049 0.00929424 -0.925408 -0.376291 -0.0440342 
3663 2 187.187 269.417 -454.412 0.476304 0.455086 -0.751293 0.0398681 
3664 2 180.072 264.635 -459.25 0.368024 -0.28216 -0.79154 0.398005 
3662 2 194.728 272.001 -448.672 0.197517 0.891105 -0.125079 -0.388939 
3661 2 200.299 276.121 -441.575 -0.0748708 0.588103 0.73119 -0.337476 
3667 1 131.702 260.937 -434.29 -0.634544 0.0102059 -0.606539 -0.478916 
3684 2 178.795 343.315 -482.684 0.313497 -0.0500395 0.946165 -0.0631402 
3660 2 200.855 279.904 -432.45 -0.042539 -0.112834 0.980691 -0.153962 
3668 3 157.164 282.634 -424.424 -0.634595 0.0647252 -0.594235 -0.489883 
3669 2 113.921 281.437 -395.698 0.664851 -0.651866 0.135815 -0.338523 
3681 2 166.043 345.97 -456.104 -0.234449 -0.353299 -0.90348 -0.0627547 
3680 2 162.741 344.985 -446.793 -0.162449 0.518747 -0.839217 0.0150279 
3670 2 120.731 288.417 -394.64 0.704927 -0.343358 0.582374 0.21453 
3671 2 126.722 296.15 -393.189 0.194523 0.233245 0.679825 0.667529 
3672 2 132.519 304.159 -393.735 -0.365926 0.723541 0.199675 0.550197 
3673 2 138.617 311.698 -395.509 -0.519041 0.611114 -0.59759 0.00478126 
3674 2 144.527 318.318 -399.935 -0.367766 -0.157891 -0.823115 -0.402865 
3679 2 160.462 342.063 -437.659 -0.155479 0.984023 -0.0362365 0.0788089 
3678 2 157.466 338.63 -428.957 -0.00621183 0.624452 0.73608 0.261165 
3677 2 157.053 334.362 -420.04 0.0821948 -0.172658 0.951452 0.241188 
3675 2 151.33 323.993 -404.321 0.20848 -0.773498 -0.49673 -0.333912 
3676 2 154.529 330.366 -411.415 0.274313 -0.887344 0.367825 -0.045584 
3682 2 171.021 345.974 -464.846 -0.168647 -0.925434 -0.279374 -0.192564 
3683 2 174.772 343.635 -473.71 0.109151 -0.8008 0.550445 -0.209322 
3685 2 184.074 342.513 -491.143 0.170971 0.67204 0.713665 0.0990623 
3686 2 187.975 341.915 -500.22 0.117556 0.959795 -0.0296324 0.253172 
3865 2 207.824 549.706 -504.84 0.247766 -0.536873 0.768119 -0.245709 
3705 2 226.502 411.788 -479.56 0.402224 -0.659672 0.335389 -0.539039 
3704 2 216.88 409.505 -479.111 -0.241712 -0.638736 -0.402835 -0.609357 
3703 2 207.057 408.74 -480.497 -0.721734 -0.10814 -0.662344 -0.169431 
3698 2 170.1 420.707 -509.445 0.160159 -0.293373 0.184111 -0.924329 
3864 2 202.819 547.549 -496.597 0.0857309 -0.953727 -0.0280384 -0.286824 
3863 2 201.645 543.829 -487.526 0.0144745 -0.412783 -0.889825 -0.19394 
3862 2 201.314 540.306 -478.188 -0.0699851 0.399963 -0.899201 -0.163001 
3861 2 204.187 537.349 -469.217 -0.118667 0.969026 -0.137372 -0.16744 
3699 2 176.12 418.665 -501.925 0.815653 -0.0292794 0.350369 -0.459451 
3860 2 209.969 537.032 -461.188 -0.228446 0.599285 0.749197 -0.16545 
3859 2 214.786 535.035 -452.805 -0.224873 -0.186194 0.944078 0.153232 
3858 2 219.975 532.756 -444.717 -0.0478899 -0.848178 0.418024 0.321802 
3700 2 182.606 416.02 -494.883 0.848437 0.322551 0.306914 0.286216 
3701 2 189.91 412.67 -489.251 0.168995 0.509277 -0.0535317 0.842147 
3702 2 198.102 410.214 -484.419 -0.570844 0.333534 -0.449311 0.600843 
3706 2 236.265 413.711 -480.158 0.717 -0.158476 0.67756 0.0413412 
3707 2 245.597 417.111 -479.553 0.427656 0.43682 0.59088 0.52646 