ITEM: TIMESTEP
10000000
ITEM: NUMBER OF ATOMS
4067
ITEM: BOX BOUNDS pp pp pp
-4.6310929470000001e+03 4.6704658980000004e+03
-4.6310929470000001e+03 4.6704658980000004e+03
-4.6310929470000001e+03 4.6704658980000004e+03
ITEM: ATOMS id type x y z c_q[1] c_q[2] c_q[3] c_q[4] 
2317 1 56.0223 321.676 -392.524 0.383954 -0.261781 0.147606 -0.873076 
2318 3 78.2861 321.223 -365.481 0.391362 -0.262089 0.207532 -0.857365 
2319 2 96.6657 308.033 -412.23 -0.00326486 0.243885 -0.101362 0.964487 
2320 2 101.649 306.972 -403.733 -0.763466 0.0688687 -0.32452 0.554133 
2321 2 106.83 304.58 -395.637 -0.938577 -0.273566 -0.134231 -0.161919 
2323 2 113.462 296.296 -378.986 0.501604 -0.00609074 0.11282 -0.857688 
2322 2 110.674 300.171 -387.684 -0.346441 -0.200908 0.150965 -0.903783 
2324 2 114.558 294.453 -369.418 0.978739 0.077637 -0.0760832 -0.173937 
3616 2 -71.1878 489.504 -400.206 0.0657165 -0.423169 -0.599742 -0.675957 
3617 2 -65.8795 497.81 -400.492 0.562331 -0.70089 -0.00282972 -0.438783 
3618 2 -60.0843 505.818 -401.046 0.678385 -0.462533 0.497066 0.280682 
3615 2 -75.9081 481.093 -397.927 -0.472803 0.289068 -0.7421 -0.377073 
3619 2 -55.8003 514.736 -399.846 0.227706 0.108703 0.596482 0.761934 
3620 2 -51.1138 523.112 -397.59 -0.493131 0.44163 0.305871 0.684271 
3621 2 -47.7809 531.4 -393.355 -0.819264 0.533703 -0.155616 0.140537 
3622 2 -44.174 539.553 -389.026 -0.543086 0.291257 -0.575899 -0.537185 
3623 2 -41.5388 548.962 -387.265 0.123692 -0.209375 -0.597697 -0.76395 
3666 2 -76.6613 680.436 -414.779 0.621812 -0.459156 -0.560965 0.296385 
3665 2 -67.0818 678.364 -413.851 0.577572 0.221344 -0.697827 -0.361185 
3581 2 -118.459 567.39 -363.069 0.4143 -0.647878 -0.478745 0.423572 
3582 2 -127.907 568.902 -365.659 -0.144924 -0.641895 0.203241 0.725024 
3664 2 -58.0948 674.743 -411.874 -0.0226896 0.731115 -0.229464 -0.642108 
3583 2 -137.718 570.424 -365.481 -0.684048 -0.160975 0.587793 0.400831 
3667 1 -83.9669 684.506 -368.345 -0.589181 -0.39972 -0.601845 -0.361763 
3584 2 -146.912 573.091 -363.089 -0.751708 0.361315 0.445192 -0.325868 
3663 2 -50.2737 668.699 -411.262 -0.624535 0.627095 0.3879 -0.257373 
3624 2 -39.764 558.611 -385.671 0.709399 -0.585324 -0.235996 -0.313774 
3625 2 -39.3166 568.21 -383.583 0.676967 -0.538466 0.346234 0.363169 
3662 2 -41.6458 663.994 -410.001 -0.574163 0.0621129 0.769257 0.273355 
3661 2 -35.294 658.114 -405.264 -0.00484037 -0.593472 0.640266 0.487676 
3660 2 -28.185 653.634 -400.013 0.301018 -0.880725 -0.101543 0.351285 
3659 2 -21.9772 648.303 -394.429 0.443249 -0.40734 -0.79156 -0.10506 
3658 2 -18.8576 643.797 -386.255 0.0686272 0.297024 -0.914085 -0.267422 
3626 2 -38.382 577.99 -382.398 0.0751047 -0.0483321 0.675553 0.731882 
3627 2 -38.4283 587.804 -381.565 -0.451472 0.392949 0.518373 0.610782 
3628 2 -38.0274 597.563 -380.091 -0.759122 0.6507 0.0134907 -0.0119021 
3657 2 -13.0772 641.132 -378.578 -0.0301563 0.889862 -0.313091 -0.33047 
3668 3 -49.091 683.997 -370.997 -0.59207 -0.401959 -0.632907 -0.295484 
3656 2 -8.70036 637.956 -370.239 -0.242754 0.781403 0.56982 -0.0760607 
3629 2 -38.3695 607.353 -378.598 -0.410963 0.39167 -0.401995 -0.718404 
3630 2 -40.149 616.131 -374.513 0.282888 -0.180997 -0.460539 -0.821656 
3631 2 -40.0161 624.624 -369.377 0.870654 -0.400319 -0.244614 -0.147888 
3632 2 -43.0976 632.441 -364.124 0.692949 -0.468674 0.0770577 0.542429 
3696 2 -53.8986 775.904 -442.956 0.457547 0.0103366 0.221195 -0.861172 
3697 2 -51.8174 772.34 -433.99 0.973184 0.206829 0.0127568 -0.0998551 
3698 2 -51.5348 768.204 -425.053 0.703952 0.199231 -0.0742575 0.677676 
3699 2 -49.4144 764.254 -416.244 -0.0628414 0.102013 -0.139375 0.982964 
3700 2 -47.1323 761.383 -407.014 -0.858236 0.0683068 -0.215207 0.460924 
3694 1 -38.6266 818.879 -431.057 0.29525 0.397478 -0.246641 0.833071 
3701 2 -43.1407 760.537 -397.986 -0.82135 -0.103426 -0.305313 -0.470607 
3695 3 -20.3115 797.809 -409.884 0.373865 0.400152 -0.190357 0.814781 
3692 2 -4.75593 842.218 -406.002 0.306098 -0.671909 0.229551 0.634152 
3702 2 -37.5561 761.732 -390.004 -0.106146 -0.233454 -0.0279173 -0.966154 
3691 2 2.66686 836.11 -403.852 0.61956 -0.611927 -0.470988 0.140931 
3690 2 9.8421 829.496 -402.233 0.47955 0.00522505 -0.769748 -0.421299 
3693 2 -11.9669 848.945 -406.309 -0.291698 -0.253163 0.659668 0.644716 
3689 2 16.155 822.058 -400.473 -0.0518071 0.59304 -0.499553 -0.629337 
3703 2 -32.6651 762.112 -381.374 0.794036 -0.232697 0.0975566 -0.553029 
3688 2 19.9787 812.981 -399.31 -0.620094 0.719515 -0.0334974 -0.310902 
3687 2 20.5332 803.553 -396.301 -0.491636 0.610393 0.532265 0.320013 
3686 2 21.4835 794.211 -393.142 0.0309585 -0.0870171 0.809376 0.579983 
3685 2 20.4737 785.051 -389.428 0.512861 -0.723349 0.399228 0.233145 
3684 2 20.6028 775.426 -387.308 0.583295 -0.741338 -0.268839 -0.194704 
3683 2 18.4796 766.222 -384.38 0.13665 -0.34248 -0.722933 -0.584297 
3682 2 15.5099 757.469 -380.806 -0.359314 0.295364 -0.773664 -0.43023 
3681 2 13.1905 749.608 -375.208 -0.447051 0.847438 -0.286342 0.00172326 
3704 2 -28.7159 764.618 -372.723 0.975717 0.0239879 0.116609 0.183855 
3680 2 10.1722 741.32 -370.721 -0.32792 0.734678 0.419322 0.420577 
3705 2 -26.6339 764.996 -363.006 0.364413 0.033477 0.206384 0.907463 
3679 2 5.77077 734.271 -365.237 0.149836 0.233716 0.85027 0.447176 
338 2 -216.813 -836.607 -261.747 -0.769566 0.518294 0.302822 -0.217804 
339 2 -223.19 -829.589 -258.862 -0.42047 0.590655 -0.272217 -0.632637 
340 2 -228.357 -821.254 -257.58 0.243169 0.0273008 -0.620668 -0.744913 
337 2 -209.536 -841.009 -266.93 -0.72354 -0.0320619 0.470197 0.504358 
336 2 -201.591 -843.706 -272.201 -0.0827343 -0.389138 0.239593 0.88562 
335 2 -193.17 -845.655 -276.905 0.588843 -0.413819 -0.246807 0.648925 
334 2 -184.426 -847.922 -280.861 0.830249 -0.0562371 -0.540927 -0.122155 
333 2 -175.524 -851.446 -283.418 0.400052 0.351249 -0.476479 -0.699679 
332 2 -166.484 -854.702 -285.732 -0.255611 0.614823 -0.000264901 -0.746094 
331 2 -157.157 -857.807 -286.522 -0.707067 0.354824 0.587487 -0.170338 
314 2 -177.141 -904.599 -226.07 0.757335 -0.447512 0.00927912 0.475491 
330 2 -147.826 -860.569 -284.714 -0.50734 -0.256247 0.717701 0.402305 
311 2 -156.796 -919.625 -241.638 -0.479189 0.502362 0.034116 -0.71892 
312 2 -164.142 -915.11 -236.819 0.29232 0.248611 -0.442756 -0.810376 
313 2 -170.972 -909.835 -231.924 0.830376 -0.168157 -0.446972 -0.28708 
310 2 -148.089 -923.751 -244.434 -0.785835 0.319564 0.526946 -0.0516716 
309 2 -139.752 -928.348 -247.309 -0.567629 -0.181413 0.555443 0.579973 
285 2 -118.014 -894.343 -225.528 -0.131168 -0.0909657 -0.916171 -0.367629 
284 2 -120.177 -899.092 -217.062 -0.278675 0.684 -0.671907 -0.0549954 
320 3 -145.964 -872.251 -229.114 0.154868 0.375651 0.877274 -0.255525 
308 2 -131.225 -933.172 -245.715 0.127228 -0.706446 0.235301 0.655272 
306 2 -115.404 -937.795 -235.122 0.394171 0.09 -0.908982 -0.101393 
307 2 -122.822 -936.291 -241.516 0.429784 -0.66107 -0.55459 0.265898 
328 2 -131.134 -861.073 -274.773 0.209355 -0.698816 -0.543983 0.414618 
329 2 -139.159 -862.319 -280.354 -0.0437614 -0.820629 0.244677 0.514574 
327 2 -124.61 -860.333 -267.235 0.330839 -0.087248 -0.938965 0.0357485 
323 2 -106.439 -851.259 -234.018 -0.167836 -0.52063 0.833607 -0.0766521 
326 2 -118.089 -858.973 -259.909 0.303399 0.620282 -0.695558 -0.198493 
324 2 -108.502 -854.003 -243.342 -0.124288 0.435646 0.859896 -0.235253 
325 2 -112.801 -857.142 -251.667 0.0284982 0.939521 0.131506 -0.314953 
305 2 -107.407 -937.964 -229.451 0.212582 0.760035 -0.44783 -0.420243 
304 2 -100.2 -939.26 -222.778 -0.211326 0.847388 0.369729 -0.317137 
303 2 -93.3814 -939.618 -215.648 -0.356771 0.290503 0.881582 -0.105529 
357 2 -170.695 -843.155 -245.386 0.118746 0.0681651 0.984088 0.113238 
356 2 -172.19 -844.429 -235.699 0.0908958 -0.75445 0.649982 0.00819047 
355 2 -173.098 -844.42 -225.805 0.00493151 -0.978372 -0.19655 -0.0642842 
286 2 -114.509 -888.038 -232.218 0.173904 -0.76462 -0.38874 -0.483731 
287 2 -108.803 -881.519 -236.86 0.581516 -0.680734 0.40468 -0.186211 
288 2 -101.689 -874.964 -239.079 0.530761 -0.0738502 0.778102 0.327713 
289 2 -93.9549 -868.992 -240.387 0.0543516 0.528574 0.54462 0.648879 
290 2 -86.5382 -862.803 -242.353 -0.495991 0.757843 -0.0798351 0.416285 
291 2 -79.5632 -855.966 -244.068 -0.629953 0.377749 -0.662704 -0.145905 
354 2 -173.629 -843.919 -215.899 -0.0137884 -0.510887 -0.858919 -0.0325942 
358 2 -168.165 -841.044 -254.764 -0.0273096 0.77789 0.546069 0.309758 
315 2 -180.893 -897.427 -220.417 0.0988152 -0.160571 0.387636 0.902325 
322 2 -105.897 -846.281 -225.45 -0.282858 -0.959017 -0.0164438 -0.00259833 
316 2 -182.496 -890.382 -213.447 -0.641078 0.144544 0.437751 0.613597 
321 2 -106.099 -841.09 -217.096 -0.217976 -0.599581 -0.747513 0.184966 
359 2 -163.389 -837.136 -262.48 -0.295744 0.917969 -0.190588 0.18315 
360 2 -159.893 -832.37 -270.422 -0.247741 0.480699 -0.824984 -0.164177 
361 2 -157.32 -827.037 -278.44 -0.0169383 -0.270963 -0.923428 -0.271244 
362 2 -154.977 -822.362 -286.766 0.249187 -0.862141 -0.366822 -0.245071 
283 2 -123.525 -903.817 -209.061 -0.185423 0.950659 0.143262 0.203329 
341 2 -231.708 -812.122 -255.507 0.74763 -0.454377 -0.375538 -0.305879 
342 2 -234.295 -803.088 -252.429 0.796675 -0.422373 0.151161 0.405043 
343 2 -235.564 -795.043 -246.825 0.269291 -0.10528 0.422006 0.859249 
344 2 -235.916 -786.934 -241.236 -0.472533 0.276241 0.445397 0.708537 
345 2 -236.485 -777.99 -236.836 -0.831856 0.539747 0.0989757 0.0830219 
363 2 -153.167 -816.457 -294.507 0.338148 -0.860685 0.380623 0.00196976 
347 3 -208.339 -817.194 -217.697 -0.439881 -0.797157 -0.409924 0.0548452 
386 2 -88.0154 -795.35 -222.804 -0.634088 0.30232 -0.150232 0.695676 
364 2 -150.839 -811.105 -302.547 0.126599 -0.220769 0.894953 0.366461 
365 2 -149.599 -804.856 -310.106 -0.0792242 0.629873 0.684129 0.359097 
366 2 -146.152 -799.269 -317.563 -0.482028 0.854785 -0.108721 0.158655 
385 2 -95.0753 -794.872 -229.698 0.231824 0.396375 0.0590702 0.886372 
367 2 -141.912 -791.978 -322.614 -0.497027 0.461957 -0.701712 -0.217164 
368 2 -137.194 -784.422 -326.756 -0.114233 -0.136147 -0.684264 -0.707247 
384 2 -103.037 -793.291 -235.342 0.832257 0.238234 0.367648 0.339746 
369 2 -133.451 -775.21 -327.246 0.379296 -0.636436 -0.223722 -0.633271 
383 2 -112.216 -791.919 -238.712 0.739027 -0.194875 0.529018 -0.368785 
370 2 -127.585 -767.384 -325.567 0.761517 -0.534176 0.366517 -0.0203231 
382 2 -122.02 -790.485 -238.564 0.204377 -0.670137 0.301351 -0.646788 
381 2 -131.553 -787.95 -239.489 -0.469866 -0.63323 -0.262433 -0.556215 
380 2 -140.5 -784.027 -237.934 -0.612311 -0.269358 -0.740243 0.0675435 
374 3 -147.75 -769.795 -284.441 -0.72808 -0.675773 0.114901 -0.00533343 
379 2 -147.727 -777.638 -239.907 -0.331141 0.28487 -0.568099 0.697465 
378 2 -153.393 -769.634 -241.099 0.382615 0.615237 -0.261874 0.637582 
377 2 -157.15 -760.49 -240.445 0.683718 0.674604 0.27681 -0.0285762 
376 2 -161.278 -751.595 -242.021 0.446934 0.108816 0.623699 -0.631987 
375 2 -165.036 -742.476 -243.729 -0.211528 -0.425022 0.465003 -0.747251 
373 1 -140.147 -735.643 -283.197 -0.742889 -0.660988 0.105634 0.00726109 
371 2 -122.244 -759.316 -323.712 0.387233 -0.20216 0.650963 0.620829 
372 2 -119.485 -749.902 -323.161 -0.263234 0.380175 0.553219 0.69291 
387 2 -82.1472 -793.772 -215.003 -0.947439 0.0242513 -0.236428 -0.214182 
2505 2 -27.0587 89.0068 -242.935 0.38382 -0.0863991 0.839718 -0.374288 
2504 2 -33.9784 94.4675 -238.54 -0.0225549 -0.686112 0.496074 -0.531651 
2498 2 -76.6705 130.537 -219.454 0.42694 -0.0128604 0.78241 -0.453203 
2497 2 -84.1947 136.384 -216.656 -0.011136 -0.653427 0.474611 -0.589621 
2499 2 -69.627 124.101 -222.04 0.62299 0.602234 0.487635 0.106817 
2496 2 -91.7874 142.596 -215.169 -0.556825 -0.706664 -0.291645 -0.324831 
2500 2 -62.4092 117.76 -224.232 0.308983 0.804607 -0.12897 0.490412 
2495 2 -98.8658 149.446 -214.737 -0.629641 -0.246406 -0.681484 0.280027 
2494 2 -106.84 154.841 -217.142 -0.356906 0.335246 -0.517639 0.701625 
2493 2 -115.138 160.13 -216.093 0.263719 0.71662 -0.156875 0.626337 
2492 2 -123.775 165.049 -216.058 0.64855 0.55102 0.469485 0.235254 
2491 2 -131.517 169.805 -212.064 0.482906 -0.0339821 0.834824 -0.262136 
2501 2 -55.2633 111.471 -227.105 -0.172414 0.390298 -0.722282 0.544288 
2502 2 -48.4441 104.985 -230.243 -0.555843 -0.344752 -0.74689 0.119748 
2503 2 -41.229 99.4372 -234.103 -0.382661 -0.825426 -0.24305 -0.336405 
2370 2 -33.806 225.617 -342.559 -0.56478 -0.070436 0.804285 -0.170842 
2369 2 -25.009 229.128 -339.764 -0.483537 -0.679568 0.421714 0.355721 
2368 2 -15.891 231.334 -336.979 0.035859 -0.750012 -0.241552 0.614694 
2367 2 -6.89232 234.23 -334.165 0.49503 -0.264597 -0.750153 0.349577 
2371 1 -34.6847 188.108 -313.953 0.237286 0.309037 0.463218 0.796003 
2372 3 -8.84 207.693 -300.725 0.264617 0.309216 0.515826 0.753848 
2373 2 -20.2296 163.134 -276.609 0.267373 -0.493245 -0.274512 -0.780938 
2374 2 -14.2927 169.932 -272.484 0.823496 -0.482193 0.0675416 -0.291175 
2375 2 -9.91288 177.074 -266.986 0.718682 -0.246767 0.468923 0.450237 
2376 2 -5.59746 184.774 -262.416 -0.0360258 0.180188 0.549381 0.815117 
2377 2 -3.17026 193.912 -259.597 -0.598368 0.604473 0.336422 0.404214 
2378 2 -2.89941 203.786 -258.835 -0.744819 0.583375 -0.280242 -0.162428 
2379 2 0.0699521 213.117 -257.345 -0.312622 0.165454 -0.589443 -0.726257 
2366 2 2.07415 237.044 -331.321 0.54468 0.538597 -0.606198 -0.213916 
2365 2 10.3761 238.149 -326.05 0.0104658 0.875939 0.0964501 -0.472566 
2364 2 19.3904 239.545 -322.324 -0.429656 0.423264 0.700396 -0.381693 
2380 2 1.91919 222.344 -254.418 0.384718 -0.4174 -0.505497 -0.649802 
2363 2 28.7127 239.564 -318.854 -0.543844 -0.127999 0.824479 0.0899059 
2362 2 37.6887 240.157 -314.744 -0.213571 -0.765516 0.375462 0.476866 
2506 1 8.69963 105.896 -217.186 -0.575059 -0.185716 0.533676 0.591614 
2381 2 4.00628 231.985 -253.52 0.7058 -0.708116 -0.0147742 0.0141559 
2361 2 45.5213 240.742 -308.654 0.151491 -0.813838 -0.36702 0.42428 
2382 2 3.35853 241.902 -253.564 0.393177 -0.375405 0.593576 0.593423 
2360 2 53.0781 243.107 -302.657 0.395034 -0.122387 -0.883766 0.218924 
2358 2 66.2374 243.952 -287.951 0.0638997 0.940646 -0.0128072 -0.333075 
2357 2 73.4033 245.098 -281.273 -0.260703 0.553242 0.739032 -0.282469 
2359 2 59.9083 243.012 -295.499 0.276025 0.613589 -0.703883 -0.227744 
2356 2 80.5478 247.971 -275.005 -0.42254 -0.354627 0.83338 -0.0343109 
2427 2 -207.596 330.02 -334.405 0.697327 0.469441 -0.16399 0.516205 
2428 2 -205.68 321.617 -329.527 -0.0133701 0.236119 -0.405467 0.882987 
2429 2 -201.429 314.351 -324.382 -0.701051 -0.246815 -0.468164 0.477946 
2441 2 -129.816 298.92 -246.354 0.483856 0.091537 0.449534 0.745267 
2440 2 -134.272 293.601 -253.396 0.93517 -0.251133 0.248701 0.0231849 
2439 2 -139.401 290.327 -261.255 0.630498 -0.309371 0.0617102 -0.709192 
2437 2 -151.919 287.408 -276.205 -0.774332 -0.211512 -0.305676 -0.512088 
2438 2 -145.539 287.829 -268.663 -0.124444 -0.330013 -0.174185 -0.919383 
2436 2 -157.316 287.853 -284.45 -0.922009 0.048701 -0.233529 0.304946 
2435 2 -164.757 287.73 -291.009 -0.403039 0.387855 -0.14423 0.816287 
2434 2 -172.377 288.829 -297.33 0.494801 0.4031 0.177483 0.749121 
2433 2 -178.156 291.189 -305.031 0.944804 0.119915 0.296801 0.0698186 
2432 2 -184.647 295.054 -311.324 0.621658 -0.127225 0.399364 -0.661712 
2431 2 -192.658 298.955 -315.694 -0.128672 -0.496658 0.209582 -0.832376 
2430 2 -197.315 306.285 -320.494 -0.8034 -0.50365 -0.0779573 -0.307909 
2425 1 -189.973 361.067 -303.605 -0.227162 -0.532052 0.380857 -0.721295 
2415 2 -100.347 318.578 -298.267 -0.273657 0.58897 -0.162946 -0.742749 
2416 2 -107.807 324.227 -295.167 0.350685 0.0941992 -0.66345 -0.654202 
2417 2 -113.892 331.893 -294.335 0.763707 -0.436047 -0.455215 -0.13926 
2418 2 -119.998 339.48 -292.529 0.622504 -0.468797 -0.0242905 0.626201 
2419 2 -126.326 344.787 -287.018 -0.159784 -0.278824 0.325709 0.889179 
2420 2 -132.246 349.734 -280.957 -0.771082 0.14811 0.481507 0.389418 
2426 3 -168.437 333.668 -300.351 -0.220895 -0.548182 0.396993 -0.70221 
2414 2 -92.3913 313.423 -301.324 -0.76102 0.462038 0.391225 -0.233052 
2413 2 -84.6048 307.698 -303.658 -0.588443 -0.00908272 0.623608 0.514553 
2453 3 -138.791 351.74 -217.648 -0.588119 -0.50652 0.345109 -0.527687 
2454 2 -186.744 371.25 -221.998 -0.498972 -0.449142 -0.500753 0.546393 
2455 2 -186.736 361.388 -221.002 -0.743774 -0.658464 0.0304494 -0.110896 
2456 2 -185.444 351.675 -219.38 -0.355531 -0.379317 0.444592 -0.729421 
2457 2 -183.265 342.5 -216.255 0.401931 0.0905588 0.651694 -0.636825 
2458 2 -179.656 333.298 -214.851 0.723582 0.561726 0.381265 -0.124619 
2442 2 -124.148 304.508 -240.424 -0.235599 0.490469 0.261856 0.797097 
2412 2 -75.5298 303.696 -303.841 -0.0734764 -0.60075 0.36071 0.70964 
2443 2 -117.976 311.275 -236.589 -0.854731 0.376082 -0.258738 0.247087 
2444 2 -111.604 316.233 -230.82 -0.658409 0.0841588 -0.533314 -0.524396 
2421 2 -138.796 355.338 -276.14 -0.720598 0.551405 0.149856 -0.392727 
2452 1 -141.973 385.976 -224.262 -0.611395 -0.527155 0.346251 -0.477926 
2422 2 -145.377 361.902 -272.708 -0.0898727 0.492777 -0.340032 -0.795909 
2423 2 -152.413 368.392 -270.68 0.536094 0.00926446 -0.678717 -0.501857 
2424 2 -159.755 375.031 -270.169 0.735642 -0.535384 -0.402188 0.102175 
2411 2 -65.6413 303.422 -304.325 0.404284 -0.557351 -0.43746 0.578396 
2445 2 -105.498 322.878 -226.608 0.027077 -0.397777 -0.507472 -0.76388 
2446 2 -99.5224 330.572 -224.864 0.610594 -0.699262 -0.140616 -0.344145 
2447 2 -96.3508 339.958 -224.646 0.620144 -0.632074 0.385894 0.258822 
2451 2 -95.3242 379.162 -225.306 -0.46289 0.476207 -0.567104 -0.487188 
2448 2 -94.7104 349.724 -225.41 0.103439 -0.173741 0.631053 0.748924 
2449 2 -96.091 359.473 -224.194 -0.454517 0.4857 0.538135 0.51761 
2450 2 -96.0613 369.27 -224.891 -0.682331 0.730342 0.00558946 0.0315189 
2459 2 -174.532 324.889 -213.956 0.458192 0.716239 -0.0382379 0.524976 
2460 2 -167.497 318.018 -213.445 -0.107557 0.32559 -0.550662 0.761048 
2461 2 -161.101 310.608 -211.866 -0.702566 -0.277973 -0.505101 0.417139 
2355 2 88.949 249.012 -269.844 -0.208188 -0.835546 0.282326 0.422862 
2410 2 -55.91 304.962 -304.795 0.721593 0.0298705 -0.685584 0.0915722 
2316 2 29.9087 337.931 -356.734 0.439674 0.0960751 -0.888037 0.0940565 
2383 2 3.54891 251.868 -253.571 -0.264623 0.166922 0.671081 0.672132 
2409 2 -47.0091 308.924 -306.578 0.626866 0.527274 -0.332658 -0.46729 
2315 2 37.2226 340.279 -350.472 0.352592 0.719899 -0.540906 -0.254648 
2397 2 -36.1508 381.231 -250.513 -0.285839 0.116625 0.767354 0.562017 
2396 2 -33.288 372.031 -248.462 0.284699 -0.520245 0.589768 0.548147 
2395 2 -29.0896 363.536 -245.99 0.57136 -0.792936 -0.0831638 0.194637 
2400 2 1.83515 370.172 -333.384 -0.308121 -0.121 0.671854 -0.662596 
2394 2 -25.6683 354.659 -243.12 0.493352 -0.465928 -0.647161 -0.347415 
2314 2 45.0836 342.383 -344.75 -0.0123031 0.84928 0.262955 -0.457631 
2313 2 52.8751 343.929 -339.047 -0.37845 0.406287 0.779406 -0.29023 
2393 2 -21.5226 345.822 -243.985 0.113434 0.160799 -0.655831 -0.728809 
2392 2 -18.0597 337.174 -246.939 -0.55523 0.537088 -0.283589 -0.568185 
2312 2 60.4515 344.681 -332.808 -0.391192 -0.391211 0.820459 0.14412 
2391 2 -16.6979 327.63 -248.863 -0.779709 0.609198 0.120668 0.0798139 
2390 2 -12.413 318.749 -249.485 -0.461945 0.136519 0.635786 0.603113 
2389 2 -8.57519 309.622 -248.936 0.231247 -0.449609 0.559636 0.656647 
2388 2 -5.22517 300.32 -250.028 0.673739 -0.669429 0.0587922 0.307384 
2387 2 -2.08827 290.815 -250.172 0.632551 -0.499251 -0.498431 -0.319679 
2408 2 -39.2453 312.529 -311.361 0.0602941 0.491838 0.147944 -0.855905 
2407 2 -31.5769 316.811 -315.923 -0.619645 0.126971 0.506516 -0.585969 
2401 2 -0.52211 360.714 -332.035 0.2453 0.554277 0.507019 -0.612811 
2402 2 -4.46532 351.696 -333.104 0.708724 0.662937 -0.133632 -0.200918 
2403 2 -8.85343 342.884 -332.012 0.615435 0.270316 -0.523237 0.523825 
2404 2 -12.6651 334.232 -329.372 0.113715 -0.275816 -0.528442 0.794823 
2384 2 2.32691 261.663 -253.525 -0.747143 0.597194 0.203991 0.208627 
2385 2 1.63361 271.351 -251.828 -0.582826 0.603417 -0.318382 -0.4414 
2386 2 0.0784453 281.176 -250.832 0.00487188 0.13228 -0.68134 -0.719899 
2405 2 -18.2353 326.479 -326.598 -0.522923 -0.44164 -0.0513613 0.727233 
2406 2 -24.3732 321.542 -320.601 -0.859385 -0.317814 0.396654 0.0558304 
2398 1 -17.0298 386.464 -293.294 0.0415166 0.0302646 0.666304 -0.743908 
2399 3 -16.4624 351.77 -288.429 -0.0121654 0.0393808 0.687412 -0.725097 
2310 2 78.5052 342.049 -327.056 0.497945 -0.598613 -0.408798 0.476022 
2311 2 68.9986 344.712 -327.91 -0.113809 -0.825484 0.21018 0.511321 
2340 2 85.9867 305.248 -218.715 -0.143529 0.163553 -0.190882 0.957191 
2339 2 85.5652 307.042 -228.448 0.646924 0.0664987 -0.0195638 0.759398 
2309 2 87.9631 339.996 -324.818 0.608791 -0.042856 -0.78462 -0.109124 
2338 2 86.2766 308.542 -238.191 0.997404 0.0575102 -0.0334126 -0.0276078 
2337 2 86.8242 306.789 -247.935 0.609399 -0.0353579 -0.11949 -0.78301 
2336 2 85.4281 303.941 -257.265 -0.26012 -0.053605 -0.151525 -0.952105 
2335 2 84.7533 301.985 -266.983 -0.936987 0.0553754 -0.0673965 -0.3383 
2334 2 84.123 300.34 -276.784 -0.806319 0.0936237 0.026642 0.583416 
2333 2 85.6632 299.223 -286.507 0.0154286 -0.0565631 0.0443359 0.997295 
2332 2 88.7309 298.652 -295.95 0.797657 -0.140909 -0.118164 0.574391 
2331 2 91.2297 296.819 -305.32 0.962113 -0.0641666 -0.158759 -0.212172 
2341 2 90.4203 302.281 -210.373 -0.778215 0.079919 -0.314976 0.537387 
2330 2 93.8359 295.393 -314.723 0.483408 0.0859074 -0.128922 -0.861577 
2354 2 97.9857 250.447 -266.101 0.236193 -0.702289 -0.440688 0.506752 
2308 2 97.7386 338.998 -323.435 0.386853 0.571749 -0.50873 -0.514434 
2329 2 96.4035 293.898 -324.305 -0.353702 0.144028 -0.0333851 -0.9236 
2353 2 106.441 253.397 -261.853 0.489841 -0.0586344 -0.841254 0.221156 
2352 2 115.937 255.088 -259.602 0.547552 0.516011 -0.574453 -0.322372 
2351 2 125.619 256.972 -259.435 0.161653 0.711393 -0.0551998 -0.681719 
2328 2 99.6258 291.943 -333.443 -0.942948 0.152449 0.128707 -0.26654 
2307 2 106.921 339.381 -319.8 -0.0825165 0.827024 0.101954 -0.546651 
2350 2 135.487 256.426 -260.604 -0.526106 0.478987 0.435013 -0.551859 
2325 2 113.263 293.475 -359.663 0.75268 -0.0566035 -0.209852 0.621474 
2346 2 168.541 261.83 -242.824 0.314443 -0.31695 -0.855755 0.26144 
2347 2 161.404 259.093 -249.157 -0.0399392 -0.871984 -0.210492 0.440162 
2348 2 154.337 256.045 -255.351 -0.376373 -0.634087 0.530508 0.418137 
2349 2 145.163 255.514 -258.933 -0.663524 0.0264721 0.746099 0.0486973 
2326 2 109.24 291.991 -350.696 -0.0682322 -0.269874 -0.0230275 0.960199 
2327 2 104.201 291.169 -342.192 -0.813169 -0.117226 0.219041 0.526341 
2306 2 115.36 338.736 -314.733 -0.427039 0.475018 0.733691 -0.231716 
2305 2 121.928 337.571 -307.475 -0.346464 -0.297188 0.873977 0.166752 
2304 2 128.464 335.632 -300.324 0.0165727 -0.882782 0.261884 0.389663 
2303 2 134.636 331.451 -293.78 0.392776 -0.77977 -0.454773 0.175689 
2302 2 139.798 327.311 -286.38 0.358101 -0.23474 -0.893277 -0.136807 
2345 3 127.475 293.179 -237.58 0.32727 -0.699989 -0.626251 -0.103539 
2292 2 183.877 288.984 -211.423 -0.178661 0.696388 0.686362 -0.109683 
2301 2 145.667 321.65 -280.781 0.0546364 0.523397 -0.706845 -0.472695 
2300 2 152.389 317.06 -275.334 -0.265395 0.892978 0.0232745 -0.362787 
2299 2 158.612 313.356 -268.585 -0.384092 0.477989 0.789841 -0.0122589 
2298 2 163.802 308.134 -261.89 -0.223493 -0.221427 0.890079 0.329818 
2297 2 167.643 302.208 -255.022 0.203178 -0.810153 0.437705 0.332844 
2296 2 171.271 296.465 -247.823 0.331436 -0.863555 -0.372854 0.0734965 
2295 2 174.374 292.803 -239.187 0.20542 -0.391416 -0.889516 -0.115577 
2293 2 180.408 290.141 -220.583 -0.0129083 0.9759 -0.184806 -0.115326 
2294 2 177.901 290.809 -230.153 0.0922944 0.489828 -0.846801 -0.185683 
2291 3 181.211 336.465 -232.391 0.135055 -0.889352 0.0121351 0.436654 
2282 2 148.259 388.222 -232.056 0.618774 0.570494 0.400717 0.362051 
2283 2 157.202 384.003 -231.359 -0.0377958 0.650661 -0.155583 0.742297 
2284 2 166.962 382.127 -230.251 -0.650747 0.288202 -0.557946 0.426806 
2285 2 176.73 381.46 -228.849 -0.667129 -0.302078 -0.653347 -0.1919 
2286 2 186.447 379.976 -228.965 -0.254155 -0.627673 -0.0520892 -0.733975 
2287 2 195.955 377.725 -227.062 0.348382 -0.484521 0.390079 -0.701218 
2288 2 205.466 375.737 -225.354 0.788208 -0.0348336 0.598511 -0.13892 
2289 2 214.792 374.74 -222.306 0.565784 0.462597 0.366906 0.575563 
2281 2 140.838 394.513 -234.06 0.721695 0.156202 0.577504 -0.348206 
2290 1 208.027 329.436 -210.99 0.123904 -0.899791 0.044374 0.415999 
2344 1 136.523 273.418 -210.186 0.325496 -0.700483 -0.62972 -0.0826369 
3426 2 -258.969 446.843 -265.536 0.706254 -0.477843 -0.0679162 -0.517937 
3427 2 -254.757 454.351 -260.672 0.840858 -0.310986 0.34103 0.282744 
3428 2 -250.494 461.168 -254.754 0.334439 0.0571879 0.439361 0.83177 
3429 2 -246.289 467.476 -248.364 -0.398614 0.347325 0.117701 0.840606 
3424 1 -279.177 420.253 -232.223 0.79564 -0.47276 -0.0485583 -0.375629 
3430 2 -241.072 471.744 -241.016 -0.917605 0.286024 -0.261351 0.0888075 
3431 2 -235.464 476.457 -234.228 -0.578651 -0.157555 -0.412257 -0.685845 
3432 2 -228.824 479.962 -227.82 0.0717219 -0.386874 -0.195824 -0.898242 
3433 2 -222.21 484.027 -221.667 0.756702 -0.380184 0.127198 -0.516413 
3434 2 -216.329 488.322 -214.888 0.860318 -0.121968 0.368391 0.330551 
3425 3 -269.269 448.915 -214.67 0.798732 -0.487846 -0.0438818 -0.34944 
3613 1 -60.5705 468.253 -355.224 0.686659 -0.718109 0.111053 -0.0220486 
3507 2 -97.9479 496.56 -305.503 0.902774 -0.273361 -0.0539085 -0.327668 
3508 2 -96.6257 501.637 -297.097 0.842046 -0.275943 0.243289 0.394493 
3509 2 -94.8116 507.74 -289.52 0.332205 -0.0469264 0.324126 0.884523 
3514 2 -92.8182 548.294 -263.194 0.677889 -0.432686 -0.186764 -0.564242 
3510 2 -93.6673 513.575 -281.586 -0.493499 0.251938 0.366683 0.747348 
3513 2 -92.0291 539.682 -268.027 0.114513 -0.0750943 -0.511717 -0.848171 
3511 2 -93.623 521.334 -275.524 -0.835417 0.546565 -0.0290474 0.0500229 
3512 2 -92.6067 530.452 -271.749 -0.554092 0.368481 -0.438348 -0.604198 
3505 1 -109.271 531.035 -335.761 0.234015 0.231703 0.31528 0.890028 
3506 3 -89.2742 547.348 -312.16 0.201559 0.231699 0.368771 0.877324 
3614 3 -53.5316 502.537 -356.226 0.686156 -0.704152 0.182624 -0.00289827 
3550 2 -22.9196 546.101 -220.923 -0.0598975 0.793557 0.299027 0.526557 
3608 2 -35.4298 514.658 -317.551 -0.058509 -0.232546 -0.554203 0.797094 
3609 2 -37.9478 505.406 -315.226 -0.601123 -0.648701 -0.190489 0.426089 
3610 2 -41.1989 496.105 -314.166 -0.644418 -0.667611 0.265461 -0.261824 
3611 2 -41.0667 486.268 -314.298 -0.186246 -0.198201 0.629955 -0.727451 
3612 2 -40.8785 476.515 -313.115 0.479357 0.442951 0.507793 -0.562279 
2263 1 52.6391 486.339 -310.935 0.712741 0.107344 0.234194 0.652404 
2265 2 22.1862 479.282 -275.561 -0.538661 -0.330485 -0.0370895 -0.774111 
2266 2 28.1269 476.314 -268.144 0.341579 -0.351584 0.181175 -0.852577 
2267 2 35.3164 475.241 -261.39 0.824292 0.0138512 0.478464 -0.302364 
2268 2 42.7733 472.262 -255.524 0.722964 0.52431 0.199045 0.403488 
2269 2 49.7797 466.452 -251.508 0.125217 0.495582 -0.396895 0.762361 
2246 2 43.2671 499.24 -247.089 0.169181 -0.442222 0.135594 -0.870305 
2245 2 37.4568 502.193 -254.514 -0.666862 -0.323136 -0.129992 -0.658772 
2244 2 33.8471 505.35 -263.147 -0.965598 -0.155243 -0.178263 0.108364 
2243 2 29.324 507.67 -271.6 -0.534176 0.102765 -0.227623 0.807641 
2242 2 25.9563 508.848 -280.755 0.338169 0.162735 -0.018209 0.92673 
2241 2 21.3946 510.863 -289.327 0.868918 0.179994 0.213423 0.408697 
2240 2 15.9784 512.634 -297.406 0.842875 -0.0621198 0.30996 -0.435462 
2239 2 11.5835 514.492 -306.164 0.201283 -0.199165 0.115278 -0.952118 
2238 2 5.50215 514.244 -313.96 -0.531557 -0.269837 -0.217404 -0.772897 
2270 2 56.1342 459.208 -249.002 -0.57941 0.113978 -0.61938 0.517361 
2264 3 71.7613 493.37 -282.477 0.726309 0.100691 0.211974 0.646068 
2247 2 51.3186 498.176 -241.33 0.736007 -0.0614406 0.5666 -0.365354 
2248 2 60.4863 495.777 -238.429 0.753492 0.410908 0.394546 0.328234 
3607 2 -35.1799 523.492 -322.043 0.5611 0.320709 -0.401847 0.648715 
3606 2 -36.2871 531.699 -327.504 0.888101 0.455001 0.0651187 0.00309719 
2271 2 64.0806 453.797 -246.947 -0.747073 -0.471859 -0.463734 -0.0646617 
2272 2 71.4499 447.215 -245.968 -0.392277 -0.70333 0.212936 -0.553267 
3605 2 -36.8592 541.003 -330.942 0.561806 0.387403 0.419655 -0.598483 
2249 2 69.1216 491.973 -235.498 0.131237 0.756004 -0.107494 0.632203 
2273 2 77.9199 439.668 -246.055 0.305161 -0.328743 0.616205 -0.647377 
2250 2 78.5235 488.815 -236.762 -0.329215 0.503098 -0.694616 0.394992 
3549 2 -30.325 544.32 -214.644 0.385763 0.270878 0.841144 0.265119 
2251 2 86.759 486.555 -241.849 -0.542599 -0.247221 -0.802754 0.00726084 
2274 2 86.2684 434.465 -245.895 0.743089 0.235173 0.600895 -0.177307 
2275 2 93.9597 428.309 -244.672 0.575415 0.616361 0.282817 0.457177 
3604 2 -35.7337 550.861 -331.487 -0.144428 -0.0368406 0.686956 -0.711249 
2223 2 90.7588 550.549 -238.757 0.187266 0.28396 -0.867516 -0.362925 
3551 2 -14.8903 550.132 -225.022 -0.487284 0.662016 -0.475468 0.313398 
2262 2 93.8792 500.497 -328.932 -0.341232 0.438598 0.831266 -0.0137617 
2252 2 95.4809 484.446 -246.129 -0.309853 -0.802682 -0.348269 -0.372024 
2280 2 134.294 401.388 -236.762 0.228689 -0.272599 0.503719 -0.787183 
2279 2 126.123 406.648 -238.685 -0.358558 -0.647897 0.0177798 -0.671826 
2276 2 102.787 424.026 -244.074 0.0730777 0.565316 -0.30893 0.761341 
2261 2 99.5055 497.641 -321.339 -0.246798 -0.31516 0.884854 0.238322 
2278 2 117.69 411.757 -239.956 -0.772599 -0.390392 -0.486273 -0.119261 
2277 2 110.749 418.596 -241.935 -0.522284 0.00971279 -0.632242 0.572184 
2260 2 105.04 494.276 -313.833 0.0282324 -0.855916 0.385252 0.34379 
2259 2 110.234 491.34 -305.937 0.273056 -0.812607 -0.486778 0.167804 
2258 2 114.421 488.763 -297.324 0.23058 -0.0955231 -0.961098 -0.11832 
2257 2 115.738 487.872 -287.586 0.0509028 0.666132 -0.742185 -0.053269 