ITEM: TIMESTEP
10000000
ITEM: NUMBER OF ATOMS
4067
ITEM: BOX BOUNDS pp pp pp
-4.6310929470000001e+03 4.6704658980000004e+03
-4.6310929470000001e+03 4.6704658980000004e+03
-4.6310929470000001e+03 4.6704658980000004e+03
ITEM: ATOMS id type x y z c_q[1] c_q[2] c_q[3] c_q[4] 
2506 1 -144.028 4.7425 -829.87 0.714273 -0.0495377 0.39455 0.575925 
2505 2 -102.244 11.9218 -850.606 -0.0216593 0.960241 -0.0304926 -0.276656 
2503 2 -93.0314 10.7963 -833.28 -0.216019 -0.295351 0.928395 0.064707 
2504 2 -97.0221 11.4543 -842.298 -0.229912 0.540483 0.797593 -0.13735 
2502 2 -87.5364 12.1878 -825.217 -0.169176 -0.897489 0.336686 0.229205 
2540 2 -21.3557 91.3732 -825.808 -0.518336 0.0342833 0.832002 0.194746 
2539 2 -12.441 90.36 -821.517 -0.323899 -0.598424 0.590357 0.434116 
2541 2 -29.7815 95.1247 -829.419 -0.524138 0.629047 0.44271 -0.365496 
2550 2 -99.5541 144.807 -838.392 0.163858 0.111956 -0.782437 -0.590262 
2558 2 -126.19 208.115 -874.272 0.643906 -0.529444 -0.52369 -0.175566 
2557 2 -121.42 199.364 -873.716 0.232854 0.119631 -0.722271 -0.64015 
2556 2 -117.607 190.796 -870.573 -0.356257 0.674971 -0.440887 -0.472349 
2554 2 -110.611 176.167 -859.308 -0.317939 0.275216 0.852492 0.310529 
2555 2 -113.925 183.222 -865.353 -0.465171 0.843696 0.257898 -0.0726805 
2553 2 -108.658 169.162 -852.574 0.101843 -0.38428 0.828222 0.394974 
2552 2 -106.568 161.302 -846.85 0.400562 -0.874796 0.16711 0.215304 
2551 2 -103.53 153.329 -841.73 0.412306 -0.634767 -0.623612 -0.195405 
2549 2 -95.6529 135.874 -836.978 -0.405358 0.707795 -0.332257 -0.473619 
2548 2 -89.6994 127.988 -835.51 -0.661571 0.619885 0.420881 -0.0304123 
2560 1 -170.101 205.625 -850.602 -0.674942 -0.470936 -0.176188 -0.540028 
2561 3 -144.656 189.279 -833.04 -0.701932 -0.449187 -0.233713 -0.5009 
2559 2 -131.354 216.613 -875.228 0.50732 -0.740603 0.110729 0.426466 
2547 2 -82.3872 121.251 -835.333 -0.491299 -0.0373083 0.712682 0.499317 
2546 2 -74.266 115.616 -834.054 -0.0320194 -0.560067 0.483162 0.672201 
2545 2 -65.7646 110.72 -832.995 0.431213 -0.716857 -0.127465 0.532845 
2544 2 -57.3957 105.481 -832.542 0.68931 -0.356785 -0.628698 -0.0478999 
2542 2 -38.8316 98.7881 -831.041 -0.0312513 0.701239 -0.239794 -0.670661 
2543 2 -47.9763 102.405 -831.967 0.497278 0.288176 -0.663158 -0.479469 
2640 2 -69.483 258.591 -868.122 -0.154515 -0.334885 0.928964 -0.0316644 
2639 2 -66.2431 260.041 -858.885 -0.110112 -0.940468 0.295408 0.127003 
2638 2 -66.2028 263.184 -849.468 -0.110211 -0.763023 -0.631045 0.0862063 
2637 2 -64.8355 266.05 -840.144 0.0849674 -0.0248323 -0.983213 0.159551 
2636 2 -63.3951 269.321 -830.865 0.161041 0.806921 -0.567348 0.0325759 
2635 2 -60.7366 273.952 -822.5 0.204906 0.914194 0.30746 -0.166527 
2641 1 -42.1384 291.877 -887.316 0.89561 -0.110652 0.0948584 -0.420287 
2646 2 -3.46685 323.726 -857.104 0.362987 0.285105 -0.0431871 0.886053 
2645 2 -5.98006 325.396 -866.528 0.947328 0.102578 0.123298 0.27721 
2643 2 -11.6064 327.727 -885.26 0.162119 -0.126635 0.0635071 -0.976549 
2644 2 -8.76504 326.564 -875.889 0.842647 -0.046756 0.166842 -0.509827 
2647 2 0.75936 320.653 -848.665 -0.408006 -0.0709483 -0.184772 0.891267 
2642 3 -34.0127 293.555 -853.358 0.92696 -0.112619 0.120138 -0.33709 
2648 2 0.943755 316.46 -839.66 -0.93248 -0.180045 -0.089093 0.300212 
2649 2 1.81771 312.269 -830.733 -0.738165 -0.112847 0.126358 -0.653002 
2650 2 1.7068 309.326 -821.26 -0.0204249 -0.0243935 0.194134 -0.980459 
2697 2 -75.9503 424.82 -823.38 -0.227269 0.249249 -0.208101 0.918105 
2689 2 18.8206 416.53 -833.887 0.404868 -0.911544 -0.0515104 0.0501601 
2695 1 -41.8527 444.935 -849.09 -0.694977 -0.360769 0.0113918 -0.621871 
2694 2 3.15861 455.242 -858.761 0.0396172 0.249498 -0.827779 -0.500962 
2693 2 6.35357 447.187 -854.05 -0.380263 0.822141 -0.273945 -0.32317 
2692 2 11.5202 439.468 -850.741 -0.570236 0.66999 0.475004 -0.0177484 
2691 2 15.199 431.794 -845.739 -0.235701 0.070534 0.861855 0.443481 
2690 2 17.4267 423.694 -840.491 0.213428 -0.644822 0.611386 0.40603 
2696 3 -24.1332 426.503 -825.214 -0.663347 -0.379822 -0.00233723 -0.644749 
2688 2 17.4609 410.3 -826.325 0.150432 -0.571605 -0.73958 -0.321962 
2451 2 -232.043 -63.9112 -679.504 -0.0959999 0.685646 0.619908 -0.369306 
2450 2 -225.94 -61.0681 -672.173 -0.306445 0.0111642 0.939432 -0.153084 
2480 3 -116.396 -61.1095 -700.76 0.508651 -0.721648 0.328012 0.336014 
2484 2 -155.818 -65.4111 -719.847 -0.537864 0.827484 0.0667374 0.146693 
2479 1 -113.318 -95.2243 -693.876 0.498587 -0.736544 0.307654 0.338028 
2483 2 -158.726 -73.8555 -715.638 -0.182502 0.44667 0.691746 0.537277 
2482 2 -158.356 -82.1413 -710.122 0.175866 -0.371758 0.801147 0.434777 
2481 2 -158.89 -90.7162 -705.191 0.489225 -0.842612 0.183664 0.130119 
2477 2 -70.3614 -69.4313 -688.901 -0.3638 -0.320136 -0.656494 0.578082 
2478 2 -69.1913 -79.2786 -689.137 -0.678185 -0.718211 -0.142009 0.0638073 
2476 2 -72.2779 -59.716 -688.163 0.195284 0.370906 -0.604167 0.677698 
2452 1 -251.875 -21.874 -687.832 -0.839105 0.18766 -0.505641 0.0708103 
2454 2 -253.199 25.2377 -686.258 0.572763 0.260523 0.664733 0.402741 
2455 2 -243.534 27.3932 -686.231 0.00670395 0.634936 0.16546 0.754609 
2456 2 -233.973 29.7361 -684.97 -0.554435 0.427598 -0.406539 0.586931 
2457 2 -224.474 30.1981 -682.356 -0.738076 -0.130779 -0.661816 -0.0118576 
2458 2 -214.648 28.3881 -681.752 -0.444601 -0.62262 -0.264001 -0.587348 
2453 3 -221.972 -13.6439 -671.617 -0.835682 0.166958 -0.520154 0.0565752 
2485 2 -154.468 -56.3392 -723.826 -0.496356 0.445027 -0.696962 -0.264245 
2501 2 -83.914 13.7913 -816.21 0.02407 -0.785633 -0.591822 0.17874 
2459 2 -205.223 26.0062 -680.632 0.19141 -0.587667 0.338894 -0.709338 
2475 2 -73.6719 -50.005 -687.038 0.646234 0.731081 -0.102393 0.193436 
2508 2 -174.929 8.9378 -794.537 -0.721336 0.617703 -0.290006 -0.118384 
2507 3 -126.54 23.7687 -806.23 0.714291 -0.0957678 0.40803 0.560471 
2460 2 -195.72 23.3033 -679.842 0.6261 -0.146969 0.677868 -0.356222 
2486 2 -150.122 -48.1706 -727.304 -0.211161 -0.205848 -0.716688 -0.631978 
2487 2 -144.444 -40.2517 -729.019 0.196896 -0.705007 -0.271412 -0.624926 
2509 2 -172.473 18.5076 -794.33 -0.394361 0.14658 -0.592638 -0.686858 
2488 2 -136.961 -34.0273 -730.781 0.568741 -0.626772 0.483527 -0.223365 
2500 2 -82.3577 13.9205 -806.424 0.115961 -0.0986526 -0.987268 0.0460681 
2489 2 -128.762 -28.8566 -732.857 0.570584 -0.0768267 0.791505 0.205067 
2499 2 -84.0643 15.8391 -796.912 0.0259885 0.658361 -0.747572 0.0837964 
2510 2 -169.347 27.6875 -792.024 0.346605 -0.38411 -0.407963 -0.752257 
2511 2 -166.327 36.4417 -788.367 0.707804 -0.59372 0.181536 -0.33698 
2512 2 -159.948 43.5817 -785.78 0.629438 -0.206404 0.693138 0.284192 
2498 2 -86.7175 14.6234 -787.594 -0.0671239 0.986647 0.0580707 0.136566 
2490 2 -120.044 -24.786 -734.999 0.17894 0.568776 0.634333 0.492033 
2491 2 -112.056 -20.4076 -738.83 -0.352024 0.811317 -0.0579648 0.463124 
2497 2 -89.6483 12.141 -778.429 0.0256844 0.534738 0.818556 0.208233 
2513 2 -152.15 49.6616 -786.33 0.174664 0.409247 0.553038 0.704385 
2492 2 -104.29 -15.4995 -742.523 -0.505246 0.539577 -0.661786 -0.124992 
2493 2 -99.076 -8.3116 -746.898 -0.198448 -0.164242 -0.884384 -0.38924 
2496 2 -91.1525 9.0689 -769.138 0.120548 -0.346126 0.924356 0.105981 
2514 2 -144.924 56.353 -785.708 -0.441002 0.685786 0.0141577 0.578804 
2515 2 -137.283 62.6378 -785.307 -0.708407 0.430087 -0.548875 0.109183 
2516 2 -128.453 67.003 -784.747 -0.413176 -0.326341 -0.69382 -0.491327 
2494 2 -94.8928 -2.4098 -753.598 0.223044 -0.811851 -0.458537 -0.284417 
2495 2 -92.191 3.85291 -760.803 0.277544 -0.916005 0.28956 0.00764396 
2517 2 -120.037 72.0132 -786.343 0.285664 -0.679474 -0.207424 -0.643185 
2518 2 -112.579 78.5756 -786.523 0.681158 -0.617233 0.384824 -0.0834081 
2469 2 -114.466 -9.78117 -682.232 0.101914 0.750245 -0.205989 0.619931 
2468 2 -122.845 -5.47562 -679.429 0.526225 0.649394 0.470197 0.283356 
2467 2 -131.937 -1.97853 -678.09 0.608429 -0.0349825 0.752057 -0.250999 
2461 2 -186.246 20.4306 -679.56 0.654213 0.50395 0.454748 0.333533 
2466 2 -140.305 3.22777 -678.94 0.180581 -0.514809 0.452606 -0.705344 
2462 2 -176.925 17.2094 -678.911 0.138997 0.727385 -0.175024 0.648813 
2465 2 -149.266 7.45634 -679.824 -0.461037 -0.66795 -0.153514 -0.563668 
2464 2 -158.871 9.42777 -679.71 -0.703442 -0.230025 -0.668256 -0.0754401 
2463 2 -168.185 12.8079 -680.051 -0.463961 0.361141 -0.605921 0.535888 
2470 2 -105.808 -14.2075 -684.191 -0.337847 0.144775 -0.771762 0.518925 
2471 2 -98.918 -21.0124 -686.086 -0.720256 -0.468992 -0.502658 -0.092802 
2472 2 -91.3687 -27.3542 -685.993 -0.259809 -0.716018 0.0905115 -0.64158 
2473 2 -83.1521 -32.7691 -686.281 0.178576 -0.212266 0.653408 -0.704352 
2474 2 -77.41 -40.8686 -686.063 0.58737 0.514301 0.549528 -0.297507 
2519 2 -106.049 86.0678 -786.772 0.448507 -0.0829471 0.747501 0.482911 
2520 2 -99.3946 93.3841 -788.071 -0.173288 0.546394 0.477548 0.665862 
2538 2 -4.16825 90.7862 -816.139 0.0901268 -0.875182 -0.154354 0.449566 
2537 2 3.21768 91.2889 -809.525 0.369344 -0.447854 -0.786227 0.211799 
2536 2 10.7804 92.9351 -803.595 0.434666 0.341877 -0.833132 -0.0087706 
2535 2 19.4479 93.9623 -798.844 0.21821 0.826362 -0.231218 -0.464811 
2562 2 -192.963 185.388 -814.655 0.886566 0.130505 0.427841 0.117991 
2563 2 -185.265 184.073 -808.532 0.465093 0.3542 0.238584 0.775441 
2521 2 -94.0234 101.723 -788.277 -0.661301 0.69275 -0.0827427 0.275558 
2522 2 -89.1699 110.249 -787.908 -0.599656 0.351545 -0.652145 -0.302549 
2523 2 -83.1699 118.066 -788.328 -0.0668389 -0.37849 -0.604137 -0.698066 
2564 2 -177.563 183.82 -802.276 -0.315887 0.405381 -0.173775 0.84005 
2524 2 -76.7921 125.583 -788.982 0.548759 -0.699835 -0.0926399 -0.447786 
2525 2 -71.374 133.874 -788.431 0.727634 -0.524544 0.44047 -0.0372797 
2576 2 -78.3395 229.693 -780.664 0.655944 -0.00572427 0.664924 0.357185 
2570 2 -123.823 193.402 -787.144 0.0852132 0.58172 0.389819 0.708789 
2571 2 -115.093 198.144 -786.772 -0.509619 0.671865 -0.185403 0.504492 
2572 2 -106.317 202.751 -786.926 -0.71824 0.350967 -0.58614 -0.131887 
2569 2 -132.447 188.614 -787.807 0.654368 0.00790148 0.663118 0.363338 
2565 2 -169.488 183.511 -796.565 -0.801832 0.166934 -0.530425 0.218739 
2568 2 -141.649 184.942 -787.164 0.605366 -0.567148 0.473061 -0.296796 
2566 2 -160.601 183.944 -792.318 -0.662094 -0.347933 -0.437215 -0.499417 
2567 2 -151.381 184.056 -788.715 0.0193954 -0.659765 -0.0184163 -0.750996 
2575 2 -85.0525 223.008 -783.212 0.731534 -0.544647 0.328236 -0.245923 
2573 2 -98.485 208.73 -785.846 -0.377272 -0.122483 -0.671144 -0.626282 
2574 2 -91.8145 215.852 -784.533 0.285713 -0.620516 -0.271343 -0.678013 
2577 2 -69.8183 234.577 -779.252 0.11363 0.504192 0.455758 0.724682 
2941 2 -96.1493 107.793 -680.295 0.584454 -0.137238 0.708123 0.371673 
2943 2 -80.5962 119.686 -678.698 -0.598406 0.603315 -0.128985 0.511159 
2942 2 -88.5961 114.204 -680.557 0.0824807 0.475301 0.430985 0.762586 
2944 2 -72.7336 124.959 -676.034 -0.836501 0.157306 -0.520378 -0.0687581 
2940 2 -103.561 101.661 -682.651 0.754565 -0.501039 0.314284 -0.284285 
2526 2 -64.6274 141.075 -788.236 0.427435 -0.00221297 0.653142 0.625061 
2527 2 -58.9944 149.138 -787.636 -0.171724 0.577779 0.406395 0.686677 
2945 2 -64.6865 129.308 -672.227 -0.379188 -0.169181 -0.363642 -0.833882 
2578 2 -61.5332 239.96 -778.726 -0.526551 0.652103 -0.0776541 0.539884 
2579 2 -54.093 246.277 -777.843 -0.747016 0.411017 -0.52168 0.0297002 
2528 2 -53.0474 157.015 -787.246 -0.685547 0.581008 -0.258052 0.354774 
2529 2 -45.06 162.74 -785.968 -0.739135 0.0667385 -0.593837 -0.310778 
2530 2 -36.6247 166.91 -782.932 -0.232175 -0.489292 -0.466998 -0.698999 
2531 2 -27.6295 171.071 -782.52 0.365531 -0.738273 0.0398164 -0.565469 
2532 2 -19.0995 175.906 -783.446 0.66402 -0.434354 0.602511 -0.0859939 
2534 3 -21.4709 125.725 -796.619 -0.0285839 0.744159 0.366584 -0.557697 
2533 1 9.42585 138.386 -786.41 -0.0424416 0.728157 0.334245 -0.596881 
2592 2 -21.8262 225.807 -713.928 -0.154652 0.64555 -0.193518 -0.722426 
2593 2 -30.3778 230.643 -712.983 0.424275 0.28724 -0.66026 -0.549127 
2591 2 -12.8063 222.127 -716.093 -0.699288 0.474634 0.397031 -0.357891 
2590 2 -3.25221 219.686 -716.925 -0.678178 -0.0599486 0.6741 0.286479 
2589 2 6.49597 217.848 -716.79 -0.284821 -0.563037 0.404966 0.661717 
2594 2 -39.1013 235.313 -713.796 0.643704 -0.39087 -0.650524 -0.0984089 
2992 1 52.6386 211.311 -674.015 0.90057 0.0507846 -0.054195 0.428319 
2587 1 14.9989 237.352 -758.897 -0.108518 -0.478428 0.294768 0.820026 
2595 2 -46.6751 241.448 -715.623 0.429211 -0.850035 0.0324407 0.303589 
2596 2 -51.7454 248.39 -720.445 -0.0270596 -0.494139 0.652333 0.574069 
2598 2 -64.1465 262.005 -727.631 -0.585131 0.698613 0.384589 -0.147149 
2632 2 -62.5025 289.37 -797.808 -0.234051 -0.887539 0.330089 -0.22031 
2629 2 -71.3147 306.231 -775.504 0.0530892 0.603177 -0.7604 0.234842 
2628 2 -73.4283 312.309 -767.98 0.332545 0.934497 0.0172047 0.125831 
2601 2 -86.165 281.188 -728.901 0.860031 -0.249982 -0.439956 -0.0655393 
2602 2 -93.5358 286.328 -724.918 0.621681 -0.517885 -0.153097 0.567335 
2603 2 -101.224 291.01 -720.663 -0.101854 -0.523627 0.311908 0.786227 
2604 2 -110.014 294.778 -718.112 -0.654212 0.0135353 0.590386 0.472512 
2627 2 -75.1883 318.363 -760.4 0.255411 0.594719 0.731359 -0.214916 
2625 2 -78.4795 327.975 -743.639 -0.141182 -0.878371 0.429408 -0.155374 
2623 2 -80.9785 339.581 -727.841 -0.179323 -0.289158 -0.906539 0.249836 
2622 2 -80.1617 346.2 -720.444 0.224378 0.440857 -0.816283 0.298298 
2605 2 -117.586 300.211 -714.844 -0.813725 0.345796 0.421011 -0.202552 
2606 2 -125.661 304.151 -710.674 -0.23947 0.61711 0.0655375 -0.746682 
2607 2 -134.96 306.207 -707.941 0.381661 0.384989 -0.511605 -0.666617 
2621 2 -79.9801 353.852 -714.235 0.416873 0.890924 -0.159147 0.0845138 
2608 2 -143.581 310.367 -705.54 0.776027 -0.193787 -0.582766 -0.143574 
2609 2 -151.861 315.182 -703.202 0.644402 -0.630817 -0.179946 0.392983 
2610 2 -159.047 321.882 -701.388 0.134729 -0.448176 0.454213 0.758074 
2615 3 -123.456 350.761 -703.421 -0.555913 -0.255827 -0.727544 0.310149 
2614 1 -141.427 379.468 -694.533 -0.527245 -0.284152 -0.718517 0.353558 
2620 2 -80.7922 361.444 -707.823 0.298015 0.670684 0.618138 -0.281559 
2619 2 -82.3501 369.867 -702.736 0.0653186 -0.0473651 0.862733 -0.49918 
2618 2 -85.5951 378.555 -699.51 -0.332215 -0.681987 0.456457 -0.464945 
2617 2 -90.9856 386.552 -697.057 -0.610336 -0.716142 -0.307606 -0.141453 
2624 2 -79.4478 333.485 -735.475 -0.300808 -0.886022 -0.351608 0.0291728 
2626 2 -77.0413 323.895 -752.508 0.0598167 -0.246448 0.91782 -0.305438 
2600 2 -77.8958 275.833 -729.763 0.39245 0.28654 -0.595011 -0.640187 
2631 2 -66.0981 295.546 -790.969 -0.39775 -0.749087 -0.528799 0.0321756 
2616 2 -96.6994 394.352 -695.168 -0.493317 -0.258478 -0.732466 0.391562 
2599 2 -70.5347 269.226 -729.952 -0.234909 0.667008 -0.254406 -0.659694 
2611 2 -164.375 330.055 -700.2 -0.531774 0.174948 0.610847 0.559889 
2612 2 -169.76 338.255 -698.226 -0.647712 0.708622 0.199613 -0.196161 
2613 2 -175.084 346.683 -699.114 -0.215078 0.563235 -0.471993 -0.643219 
2630 2 -68.9896 301.953 -784.064 -0.214502 -0.169982 -0.915295 0.295517 
2633 2 -59.99 283.501 -805.298 -0.123324 -0.374664 0.87615 -0.277091 
2634 2 -59.6775 277.916 -813.484 0.0415341 0.436058 0.87531 -0.204845 
2597 2 -57.3509 255.897 -723.733 -0.469009 0.117869 0.821327 0.302587 
2580 2 -45.8481 251.67 -776.46 -0.467305 -0.190915 -0.677031 -0.535543 
2581 2 -37.1559 256.443 -776.016 -0.0192236 -0.770263 -0.242021 -0.589704 
2651 2 2.20783 305.63 -812.064 0.76396 0.21108 0.148934 -0.591295 
2663 2 -52.1738 301.394 -715.859 -0.483597 0.0522466 -0.0719357 -0.870764 
2664 2 -52.1258 303.822 -706.264 0.381366 -0.145492 -0.0231179 -0.91261 
2665 2 -50.2555 305.215 -696.646 0.915933 -0.137014 0.139226 -0.350586 
2662 2 -49.9235 300.008 -725.462 -0.977553 0.0604603 0.120714 -0.161749 
2582 2 -28.0143 259.135 -778.477 0.448233 -0.660465 0.534853 -0.277139 
2652 2 2.80922 300.561 -803.611 0.963963 0.128874 -0.125843 0.19578 
2583 2 -19.1503 262.236 -781.606 0.461249 0.0400963 0.858041 0.222277 
2666 2 -46.5704 306.694 -687.623 0.845024 0.0520106 0.201145 0.492717 
2586 2 7.13333 268.638 -793.321 -0.53075 0.279666 -0.787985 0.13846 
2685 2 15.9683 389.984 -805.072 -0.385464 0.797715 0.430428 0.172627 
2667 2 -42.9957 308.071 -678.493 0.0910424 0.176786 0.0898221 0.975905 
2585 2 -2.14581 267.982 -789.717 -0.249715 0.775619 -0.290751 0.501519 
2584 2 -10.8211 266.06 -785.45 0.145235 0.728488 0.418593 0.522486 
2661 2 -47.0485 299.52 -734.956 -0.752565 -0.105566 0.147427 0.633061 
2653 2 0.900315 297.567 -794.376 0.3602 -0.126335 -0.191977 0.904124 
2749 1 -34.9159 390.778 -708.162 0.406794 -0.601352 -0.250228 -0.640531 
2654 2 -2.44703 294.495 -785.596 -0.523938 -0.357183 0.00593534 0.773223 
2655 2 -7.51132 290.979 -777.917 -0.946787 0.0902853 0.307011 0.0344591 
2660 2 -41.0299 299.428 -742.83 0.111092 -0.306258 -0.078319 0.942195 
2659 2 -34.6322 298.616 -750.34 0.807494 -0.22686 -0.271248 0.472136 
2656 2 -13.3072 292.858 -770.049 -0.571352 0.359945 0.13269 -0.725527 
2588 3 -14.0244 253.691 -748.263 -0.112629 -0.465417 0.370459 0.795903 
2668 1 2.27881 295.173 -681.745 -0.168517 0.655683 0.735949 0.00789366 
2657 2 -20.0307 295.173 -763.125 0.269688 0.319442 -0.232397 -0.87819 
2658 2 -27.2122 297.209 -756.607 0.815081 0.0787466 -0.421588 -0.389494 
2678 2 19.676 339.526 -759.214 -0.314382 0.826114 0.444654 0.144853 
2677 2 21.0614 332.358 -752.511 -0.097301 0.0604023 0.905678 0.408204 
2676 2 22.7196 326.587 -744.65 0.141805 -0.679109 0.660816 0.286399 
2675 2 25.3419 320.269 -737.557 0.333884 -0.930893 -0.110298 0.0989658 
2674 2 30.627 314.066 -731.837 0.451948 -0.471652 -0.742986 -0.145804 
2669 3 -6.39755 302.185 -714.864 -0.158738 0.671179 0.724086 0.00444583 
2670 2 42.6072 288.321 -705.386 -0.146156 0.108791 0.899576 0.396946 
2671 2 40.9891 295.937 -711.491 -0.381388 0.790409 0.47194 0.0840872 
2672 2 38.6802 302.536 -718.439 -0.220332 0.868873 -0.373402 -0.238921 
2673 2 36.3343 308.369 -726.089 0.20321 0.285359 -0.831841 -0.430484 
2679 2 19.1114 345.982 -766.717 -0.28686 0.883732 -0.268659 -0.254069 
2680 2 16.7679 352.816 -773.487 0.0395478 0.427364 -0.796674 -0.425567 
2681 2 13.7223 359.64 -780.07 0.279303 -0.436358 -0.769563 -0.373302 
2682 2 13.0803 367.635 -785.875 0.405428 -0.907417 -0.0747453 -0.0814622 
2683 2 13.9585 375.167 -792.237 0.337821 -0.638716 0.657323 0.214115 
2751 2 5.22456 385.114 -732.228 0.871197 -0.42637 0.240916 -0.0344075 
2752 2 9.98625 391.9 -726.899 0.562436 0.0294141 0.496962 0.660174 
2684 2 15.3241 382.335 -798.913 -0.0121401 0.160813 0.885484 0.435786 
2830 1 46.8296 346.719 -671.645 0.124925 0.149683 -0.473342 -0.859032 
2829 2 24.3283 371.638 -704.803 -0.289833 -0.512494 -0.622468 0.515636 
2828 2 25.7459 380.918 -701.622 0.193147 0.15906 -0.791429 0.557705 
2827 2 26.2649 389.59 -696.78 0.467891 0.76663 -0.393628 0.195993 
2753 2 16.0081 397.566 -721.394 -0.135675 0.349418 0.213104 0.902267 
2686 2 15.5232 397.435 -811.548 -0.371652 0.83851 -0.381983 -0.113423 
2826 2 26.1364 398.187 -691.788 0.413454 0.75016 0.440514 -0.268819 
2698 2 -70.1697 422.121 -815.808 -0.863147 -0.00562954 -0.315497 0.394216 
2699 2 -64.371 419.265 -808.403 -0.839496 -0.31461 -0.124618 -0.425132 
2748 2 -64.7428 414.915 -680.761 -0.673613 -0.704313 -0.00354958 0.223998 
2861 2 -127.469 436.45 -683.942 -0.347666 -0.517863 0.395807 -0.674006 
2860 2 -132.875 444.686 -683.291 -0.65967 -0.689752 -0.239406 -0.17822 
2859 2 -137.885 453.191 -682.559 -0.570526 -0.279143 -0.673019 0.378978 
2862 2 -123.524 427.502 -682.242 0.400376 -0.127903 0.576517 -0.700691 
2863 2 -117.137 420.664 -678.919 0.838922 0.305639 0.446256 -0.0604263 
2864 2 -110.459 414.313 -675.103 0.608893 0.516814 -0.00346344 0.601782 
2747 2 -61.6998 424.281 -680.779 -0.239545 -0.446233 -0.565316 0.651085 
2700 2 -59.6066 415.17 -800.75 -0.00574038 -0.447865 0.133726 -0.884026 
2865 2 -104.605 407.689 -670.544 -0.154237 0.284453 -0.296697 0.898481 
2746 2 -57.3354 433.121 -681.065 0.462077 0.191127 -0.675699 0.541651 
2687 2 16.3434 404.622 -818.307 -0.0907177 0.235266 -0.919031 -0.302988 
2712 2 35.8917 407.134 -734.444 -0.92506 0.0299914 -0.37806 0.0208707 
2754 2 21.789 402.58 -715.058 -0.804038 0.377373 -0.0481436 0.456941 
2711 2 29.4326 405.686 -741.764 -0.593842 0.299774 -0.193951 0.72102 
2713 2 42.406 407.506 -727.003 -0.578281 -0.381391 -0.246732 -0.677684 
2706 2 -11.2105 405.267 -769.325 -0.608254 -0.364613 -0.32137 -0.627539 
2707 2 -3.01187 404.536 -763.736 0.0909011 -0.513821 0.0682361 -0.850335 
2705 2 -18.5475 405.748 -775.903 -0.903882 -0.0165199 -0.424507 0.0501845 
2716 2 65.8916 405.184 -709.059 0.705844 0.314811 0.477889 0.417492 
2710 2 21.8884 403.535 -747.848 0.203364 0.370317 0.223445 0.878397 
2709 2 14.1163 403.599 -753.888 0.84497 0.125475 0.413832 0.314682 
2708 2 5.68525 404.162 -759.053 0.708945 -0.279339 0.440745 -0.474459 
2715 2 57.6714 405.897 -714.502 0.797521 -0.119965 0.443638 -0.390837 
2714 2 49.8231 406.456 -720.519 0.149705 -0.414542 0.0995912 -0.89209 
2717 2 74.9841 404.605 -705.134 0.162513 0.535038 0.122637 0.819929 
2718 2 84.0564 404.326 -701.218 -0.557027 0.47986 -0.3416 0.585461 
2704 2 -26.2596 406.759 -781.996 -0.51325 0.328305 -0.2875 0.739009 
2703 2 -34.9589 408.035 -786.592 0.247695 0.500247 0.0473722 0.828346 
2702 2 -43.9191 410.219 -789.995 0.755147 0.347641 0.455027 0.319139 
2701 2 -52.0989 412.699 -794.965 0.733464 -0.140177 0.473021 -0.467582 
2745 2 -52.5745 441.779 -681.427 0.703174 0.659765 -0.261578 -0.0428085 
2744 2 -48.1118 449.829 -685.149 0.474711 0.514113 0.241882 -0.672184 
2743 2 -40.7649 456.042 -687.635 -0.329718 0.279464 0.553374 -0.712014 
2755 2 25.9505 408.261 -708.1 -0.87875 0.284497 -0.203979 -0.324427 
2756 2 27.6142 414.441 -700.526 -0.29514 0.0574861 -0.345867 -0.888799 
2750 3 -17.4696 420.328 -701.61 0.424922 -0.606005 -0.2556 -0.621988 
2742 2 -32.1709 459.621 -691.138 -0.823337 -0.127992 0.534497 -0.141589 
2741 2 -23.9753 462.675 -695.803 -0.684362 -0.411678 0.240645 0.551598 
2757 2 28.1287 421.006 -693.135 0.516542 -0.214764 -0.265007 -0.785387 
2731 2 54.0725 456.778 -751.201 0.825461 0.0806811 -0.428424 -0.358549 
2732 2 46.9319 458.144 -744.516 0.831247 -0.277354 -0.287348 0.386697 
2733 2 39.4931 460.944 -738.506 0.184062 -0.287435 0.0726635 0.937135 
2734 2 34.056 462.73 -730.376 -0.56908 -0.298967 0.387295 0.660885 
2735 2 25.9165 464.11 -724.917 -0.821761 0.132728 0.533809 -0.148794 
2736 2 17.1285 464.965 -720.524 -0.416511 0.480687 0.164824 -0.753851 
2737 2 8.75274 465.896 -715.449 0.244223 0.29786 -0.19742 -0.901477 
2738 2 1.92734 467.675 -708.47 0.771394 0.166614 -0.550722 -0.271839 
2739 2 -7.1867 468.182 -704.494 0.690305 -0.204765 -0.497325 0.483961 
2740 2 -16.2838 466.402 -700.829 -0.0484047 -0.468611 -0.20937 0.856869 
2730 2 59.9636 456.694 -759.282 0.412583 0.296136 -0.1407 -0.849872 
2729 2 66.9043 456.928 -766.37 -0.494994 0.313109 0.208483 -0.783249 
2728 2 76.2514 457.889 -769.612 -0.792644 0.00944756 0.580822 -0.185126 
2758 2 28.0244 427.674 -685.838 0.900694 -0.421306 -0.00126349 -0.106061 
2759 2 28.9774 435.077 -679.271 0.68323 -0.23391 0.35126 0.595902 
2760 2 30.6175 442.541 -673.02 -0.0472558 0.073614 0.490948 0.866786 
2761 2 31.4224 451.311 -668.546 -0.701615 0.509725 0.233415 0.439811 
2825 2 27.154 404.233 -683.997 0.0133554 0.1142 0.940072 -0.321005 
2824 2 26.5259 409.332 -675.566 -0.176545 -0.649575 0.704342 -0.225357 
2723 3 88.14 428.538 -738.753 0.638374 -0.257159 -0.663308 0.293889 
2727 2 85.6222 456.461 -772.382 -0.564164 -0.34532 0.465692 0.587881 
2823 2 24.6825 414.5 -667.464 -0.289054 -0.948454 -0.118072 -0.05424 
2719 2 93.517 406.347 -699.007 -0.768741 -0.00857642 -0.62857 -0.117742 
2726 2 94.7768 453.836 -774.877 0.0640052 -0.599612 0.13329 0.786513 
2720 2 103.274 407.71 -697.723 -0.281311 -0.539438 -0.39789 -0.686698 
2721 2 112.829 410.062 -696.893 0.284384 -0.677982 0.0875619 -0.672159 
2725 2 102.891 449.242 -778.184 0.767371 -0.448779 -0.274848 0.366329 
2724 2 111.992 446.604 -781.149 0.748055 0.0723926 -0.603129 -0.267223 
2722 1 123.064 430.853 -738.012 0.63811 -0.273118 -0.660607 0.286045 
2449 2 -218.63 -58.6478 -666 -0.337594 -0.676254 0.618485 0.214911 
2406 2 -222.843 -91.0731 -605.498 0.16552 -0.375574 -0.343479 -0.844731 
2407 2 -218.003 -84.0988 -600.466 0.846733 -0.396446 0.0194614 -0.354252 
2404 2 -226.733 -107.222 -615.96 -0.848032 0.493748 -0.147631 -0.12353 
2405 2 -225.403 -98.7037 -611.21 -0.415634 0.0914381 -0.445226 -0.787821 
2343 2 -297.696 -89.9361 -532.253 -0.411253 0.519975 -0.625233 -0.411802 
2341 2 -299.097 -107.562 -523.544 -0.317182 0.637019 0.603193 0.360224 
2342 2 -298.491 -99.137 -528.755 -0.573573 0.817593 -0.0105123 0.0494526 
2403 2 -225.731 -114.298 -622.778 -0.718729 0.253132 0.297046 0.575427 
2402 2 -225.402 -121.567 -629.41 0.00517169 -0.0105056 0.410754 0.911671 
2401 2 -221.685 -129.253 -634.489 0.652861 -0.449184 0.136818 0.59438 
2408 2 -214.207 -77.7667 -593.819 0.791621 -0.217762 0.416115 0.39085 
2400 2 -217.257 -136.733 -639.164 0.855337 -0.424168 -0.271853 -0.120729 
2340 2 -299.628 -116.613 -519.599 0.14671 -0.140175 0.805948 0.556125 
2409 2 -209.847 -70.7823 -588.33 0.0992848 0.231071 0.374266 0.892566 
2339 2 -298.809 -125.086 -514.431 0.371824 -0.783272 0.412498 0.279422 
2410 2 -205.218 -64.3869 -582.425 -0.688753 0.40398 0.0979353 0.593994 
2398 1 -170.736 -128.599 -638.746 0.71017 -0.32669 0.0570579 0.621029 
2399 3 -182.422 -110.059 -611.393 0.678728 -0.306474 0.0553567 0.665085 
2389 2 -156.816 -89.7972 -551.599 -0.0177893 -0.577988 -0.80646 -0.123432 
2394 2 -142.744 -95.9172 -597.849 0.111215 0.888545 -0.399143 0.196989 
2395 2 -140.354 -99.3958 -606.791 -0.133071 0.308116 -0.906214 0.257162 
2368 2 -94.7455 -139.57 -540.527 -0.455172 -0.614318 -0.0895457 -0.63829 
2369 2 -86.2287 -144.307 -538.628 0.133871 -0.458116 0.47356 -0.740236 
2390 2 -155.04 -88.2626 -561.182 -0.0310737 -0.981024 -0.0240166 -0.189869 
2391 2 -151.197 -89.2052 -570.239 0.0856676 -0.634279 0.748875 -0.171866 
2393 2 -145.454 -92.9579 -588.76 0.208425 0.872352 0.435578 0.0763809 
2392 2 -148.056 -91.1069 -579.391 0.135036 0.194373 0.970904 -0.0364598 
2396 2 -136.374 -103.088 -615.134 -0.306401 -0.499372 -0.808342 0.0577011 
2397 2 -132.029 -106.508 -623.281 -0.212762 -0.950153 -0.087707 -0.210353 
2367 2 -103.367 -134.636 -540.545 -0.706545 -0.365443 -0.606006 0.0012225 
2366 2 -112.063 -130.661 -538.069 -0.407617 0.326123 -0.722231 0.453735 
2388 2 -156.666 -90.7991 -541.769 0.00635558 0.368115 -0.927017 -0.0713407 
2365 2 -121.17 -127.833 -535.858 0.0838434 0.77335 -0.134314 0.613889 
2387 2 -155.039 -92.3225 -532.063 -0.028563 0.951921 -0.284249 -0.110604 
2364 2 -129.686 -124.021 -532.552 0.500938 0.66466 0.488687 0.261673 
2386 2 -152.696 -93.4991 -522.497 -0.0804459 0.839721 0.535925 -0.0343686 
2363 2 -139.194 -122.19 -530.366 0.616535 -0.0690606 0.771389 -0.141681 
2370 2 -78.349 -150.114 -537.13 0.631389 -0.0165894 0.652295 -0.419027 
2427 2 -129.663 -88.3751 -522.637 0.373077 -0.697112 0.608956 0.0634102 
2428 2 -125.43 -82.2093 -529.185 0.147049 0.128231 0.879769 0.43352 
2429 2 -121.707 -75.1641 -535.063 -0.275296 0.720087 0.485315 0.412501 
2362 2 -149.023 -121.161 -529.584 0.255864 -0.644209 0.346406 -0.632085 
2430 2 -118.595 -67.1007 -539.959 -0.549119 0.798027 -0.198487 -0.149076 
2361 2 -158.339 -118.174 -527.837 -0.45205 -0.700912 -0.297486 -0.464624 
2360 2 -168.008 -117.024 -525.842 -0.62258 -0.214741 -0.750937 -0.0487348 
2431 2 -118.133 -58.0374 -543.797 -0.129716 0.446193 -0.749386 -0.471705 
2359 2 -176.699 -115.68 -521.225 -0.417572 0.460187 -0.70331 0.345276 
2411 2 -201.003 -57.693 -576.373 -0.878497 0.316845 -0.340111 -0.11035 
2358 2 -184.838 -114.31 -515.627 -0.0250497 0.877708 -0.132919 0.45971 
2448 2 -212.765 -53.647 -659.7 -0.221897 -0.896733 -0.159324 0.348206 
2432 2 -120.154 -50.0885 -549.273 0.306053 -0.199845 -0.868611 -0.334527 
2447 2 -205.856 -50.2339 -653.507 0.221292 -0.484485 -0.765527 0.360933 
2412 2 -195.412 -51.4483 -571.116 -0.445743 0.00405428 -0.472101 -0.760537 
2446 2 -198.485 -45.7321 -648.705 0.447898 0.221889 -0.852442 0.153283 
2413 2 -191.556 -44.5124 -565.082 0.401998 -0.37155 -0.358607 -0.756141 
2414 2 -188.996 -36.282 -560.213 0.884635 -0.39431 0.0363896 -0.246203 
2415 2 -186.354 -29.3908 -553.575 0.707038 -0.269517 0.312547 0.574258 
2445 2 -192.249 -40.0535 -643.623 0.42849 0.813398 -0.34512 -0.188871 
2444 2 -186.875 -34.1741 -637.623 0.184106 0.805335 0.402055 -0.394832 
2443 2 -180.249 -29.8007 -631.664 -0.259526 0.280096 0.851187 -0.360102 
2442 2 -173.516 -27.8656 -624.587 -0.341982 -0.555756 0.745761 0.134253 
2441 2 -166.207 -27.4342 -617.884 -0.074571 -0.910638 0.114067 0.390085 
2440 2 -161.005 -27.3845 -609.354 0.15239 -0.728818 -0.638395 0.195074 
2439 2 -155.466 -27.2272 -601.212 0.321082 0.0494132 -0.94573 -0.00765718 
2438 2 -148.871 -28.9468 -593.969 0.134832 0.751131 -0.552354 -0.335451 
2433 2 -124.094 -43.1325 -554.982 0.400353 -0.770099 -0.47677 0.139128 
2435 2 -135.177 -34.2778 -568.533 -0.250894 -0.374321 0.847866 0.27939 
2434 2 -130.137 -37.9743 -560.862 0.161147 -0.90966 0.202516 0.324866 
2437 2 -144.593 -29.4162 -584.986 -0.0726447 0.924255 0.316006 -0.201532 
2436 2 -141.075 -31.3812 -575.935 -0.224912 0.39851 0.889063 0.0131159 
2416 2 -185.501 -22.0357 -547.061 -0.0690514 0.11247 0.316415 0.939395 
2937 2 -101.236 93.6032 -591.195 -0.661579 -0.670504 0.0161246 0.335377 
2426 3 -153.6 -42.3443 -520.367 -0.286861 0.858036 0.423793 0.0434168 
2417 2 -184.271 -15.5378 -539.701 -0.821884 0.174327 0.138693 0.524291 
2965 1 -67.0806 87.817 -552.561 0.468314 -0.826491 0.0325776 -0.310699 
2418 2 -184.769 -11.4104 -530.704 -0.913201 0.10482 -0.0913095 -0.383066 
2938 1 -105.96 87.3512 -637.733 0.7137 -0.644419 0.100059 -0.255626 
2419 2 -184.109 -8.97693 -521.168 -0.354935 -0.0286265 -0.053917 -0.932896 
2967 2 -65.3447 75.0479 -597.97 0.59745 -0.685663 0.356674 -0.213785 