ITEM: TIMESTEP
10000000
ITEM: NUMBER OF ATOMS
4067
ITEM: BOX BOUNDS pp pp pp
-4.6310929470000001e+03 4.6704658980000004e+03
-4.6310929470000001e+03 4.6704658980000004e+03
-4.6310929470000001e+03 4.6704658980000004e+03
ITEM: ATOMS id type x y z c_q[1] c_q[2] c_q[3] c_q[4] 
2478 2 -864.182 174.255 -837.621 0.187351 0.476652 0.85725 -0.0531471 
2479 1 -859.571 127.542 -833.008 0.134726 -0.334383 0.0861483 0.928771 
2477 2 -867.098 176.74 -828.537 0.0765811 -0.42178 0.881242 -0.19912 
2533 1 -948.488 301.629 -821.748 -0.695144 -0.362422 0.263141 -0.5623 
2451 2 -916.33 52.7931 -717.761 0.569445 -0.130538 -0.616941 0.52733 
2446 2 -877.678 77.6623 -706.915 -0.409443 -0.806409 0.394202 0.163296 
2447 2 -883.908 72.467 -712.505 -0.50514 -0.160129 0.830727 -0.170544 
2448 2 -891.854 68.5306 -716.906 -0.240851 0.43308 0.647712 -0.578707 
2449 2 -899.856 63.3306 -719.402 0.303649 0.720378 0.0438042 -0.62204 
2450 2 -908.19 58.0553 -719.849 0.748496 0.467679 -0.426959 -0.196815 
2453 3 -913.825 94.7931 -687.184 -0.517274 0.0399313 -0.744836 -0.419587 
2445 2 -870.751 82.6533 -701.81 -0.0769633 -0.789037 -0.377802 0.478292 
2452 1 -939.477 71.6923 -681.268 -0.517043 0.0322233 -0.744779 -0.420633 
2444 2 -864.907 88.2915 -696.266 0.244796 -0.274754 -0.820543 0.437373 
2481 2 -869.835 85.8761 -813.303 -0.547509 0.351407 0.0540691 -0.757512 
2482 2 -875.853 88.9341 -806.048 0.294594 0.260476 -0.227434 -0.890865 
2483 2 -882.242 90.8232 -798.77 0.764845 0.0492394 -0.512823 -0.386783 
2443 2 -861.392 93.0527 -688.248 0.292136 0.525471 -0.795638 0.0741403 
2484 2 -890.372 93.6296 -793.843 0.800838 -0.419538 -0.339556 0.259516 
2500 2 -978.604 211.449 -779.22 -0.636794 -0.146899 0.324566 0.683792 
2501 2 -985.337 214.036 -772.453 -0.94192 0.0533535 0.322791 -0.0757991 
2502 2 -991.533 215.139 -764.808 -0.46623 0.268613 0.214519 -0.815143 
2503 2 -997.257 214.524 -756.703 0.370725 0.475656 -0.0319656 -0.797053 
2504 2 -1004.84 211.672 -750.983 0.842819 0.208687 -0.420036 -0.263962 
2505 2 -1012.89 210.489 -745.436 0.692406 -0.25171 -0.3896 0.552656 
2506 1 -1018.18 164.16 -752.646 -0.00961561 0.785866 0.10262 0.609747 
2507 3 -985.691 170.48 -764.335 0.0042622 0.777497 0.162339 0.607557 
2510 2 -984.395 124.595 -765.573 0.780249 -0.283091 0.541069 -0.135337 
2509 2 -994.177 123.402 -766.617 0.31405 -0.636908 0.22067 -0.668599 
2508 2 -1003.83 121.938 -768.008 -0.321676 -0.536431 -0.376655 -0.683299 
2511 2 -975.374 127.535 -762.775 0.595806 0.232706 0.554281 0.532575 
2442 2 -858.092 96.5604 -679.638 0.188454 0.966412 -0.0819795 -0.154313 
2499 2 -971.321 207.293 -784.617 0.199411 -0.454284 0.144101 0.85621 
2476 2 -867.868 178.429 -818.956 -0.0985769 -0.973946 0.199601 -0.043269 
2485 2 -897.918 98.1518 -789.444 0.258241 -0.688932 0.16395 0.657119 
2498 2 -964.253 201.571 -788.478 0.783175 -0.459823 -0.32392 0.265097 
2441 2 -855.163 99.6627 -670.685 -0.0191784 0.697838 0.686026 -0.204994 
2497 2 -957.767 195.52 -793.071 0.65118 -0.0260568 -0.536317 -0.53633 
2486 2 -905.755 104.25 -789.193 -0.262086 -0.145908 0.591722 0.748256 
2512 2 -966.341 130.635 -760.229 -0.118375 0.651806 0.257187 0.703556 
2513 2 -957.546 135.151 -760.027 -0.761948 0.55615 -0.180204 0.278673 
2496 2 -951.266 188.844 -796.517 -0.0813951 0.401421 -0.390702 -0.824371 
2495 2 -945.88 180.645 -797.303 -0.580176 0.715935 0.0509114 -0.38502 
2494 2 -940.696 172.177 -797.883 -0.706763 0.466586 0.491041 0.204114 
2493 2 -937.225 162.889 -797.035 -0.214746 -0.0146575 0.732682 0.645637 
2492 2 -933.34 154.159 -794.507 0.319536 -0.637828 0.482159 0.508522 
2491 2 -929.404 145.583 -791.573 0.578973 -0.77973 -0.224857 0.0790587 
2490 2 -925.88 136.928 -788.236 0.383651 -0.288493 -0.77947 -0.402506 
2489 2 -922.035 128.159 -785.862 -0.144911 0.482159 -0.609948 -0.611953 
2487 2 -911.503 111.921 -787.085 -0.772707 0.345761 0.48915 0.210013 
2488 2 -917.722 119.287 -784.698 -0.584038 0.750618 -0.0330485 -0.307214 
2514 2 -951.699 142.505 -756.704 -0.591357 0.291694 -0.615071 -0.432318 
2462 2 -907.449 144.406 -695.83 0.0254252 -0.936544 0.0603506 -0.344379 
2480 3 -880.655 136.205 -806.431 0.169188 -0.322379 0.0896931 0.927039 
2515 2 -946.296 150.799 -755.907 -0.0235154 -0.352053 -0.627878 -0.69374 
2463 2 -901.357 144.106 -703.607 0.258315 -0.603812 0.745709 -0.112263 
2464 2 -895.901 145.319 -711.83 0.113064 0.161086 0.974236 0.110143 
2465 2 -893.19 147.406 -721.124 -0.20352 0.8156 0.495827 0.218018 
2466 2 -890.897 152.517 -729.294 -0.179366 0.928291 -0.325554 0.0109027 
2516 2 -941.218 159.233 -756.902 0.426123 -0.806504 -0.191557 -0.362322 
2520 2 -922.024 191.822 -768.271 -0.616402 0.755422 0.043876 0.217855 
2519 2 -926.242 183.429 -765.242 -0.187868 0.52409 0.611156 0.562604 
2518 2 -930.627 174.86 -762.629 0.334412 -0.108182 0.808324 0.472311 
2517 2 -936.247 166.914 -760.597 0.635493 -0.55352 0.534919 0.060221 
2467 2 -889.897 155.906 -738.485 -0.142112 0.278635 -0.939566 -0.139219 
2468 2 -887.49 159.282 -747.465 -0.0232014 -0.571351 -0.743866 -0.345953 
2470 2 -879.663 168.423 -763.263 0.223308 -0.577318 0.785162 -0.018919 
2469 2 -883.898 163.843 -755.621 0.228749 -0.947221 0.0171268 -0.223947 
2582 2 -865.165 215.623 -686.877 -0.322317 -0.56344 -0.760567 0.0135705 
2583 2 -860.272 212.273 -694.83 -0.211455 -0.954818 -0.0779468 -0.193735 
2584 2 -855.73 208.482 -702.71 0.10127 -0.670013 0.633399 -0.373674 
2585 2 -849.591 205.303 -709.771 0.295697 0.0953262 0.921326 -0.233741 
2586 2 -844.953 200.704 -717.161 0.353302 0.789954 0.490976 0.100464 
2587 1 -849.738 239.113 -744.126 -0.965334 0.201485 0.153132 0.0639137 
2471 2 -876.122 171.29 -772.035 0.0683268 0.306252 0.932991 0.176262 
2472 2 -873.922 174.314 -781.228 -0.178269 0.91662 0.31237 0.174505 
2473 2 -872.102 178.65 -789.937 -0.12288 0.857163 -0.498571 -0.0399934 
2474 2 -871.428 180.372 -799.591 -0.123896 0.0976434 -0.987394 0.0129774 
2475 2 -869.511 180.059 -809.343 -0.114287 -0.738994 -0.663918 0.00625085 
2581 2 -870.834 220.275 -680.235 -0.225564 0.221599 -0.889708 0.329293 
2580 2 -877.61 226.475 -676.454 0.1613 0.734533 -0.394475 0.528046 
2579 2 -884.293 233.63 -675.464 0.625514 0.689983 0.258989 0.256087 
2578 2 -890.86 240.922 -676.278 0.598185 0.221392 0.665888 -0.38698 
2521 2 -919.024 201.147 -769.362 -0.438167 0.614631 -0.579176 -0.307886 
2522 2 -917.71 209.669 -774.247 -0.0928291 -0.159528 -0.877187 -0.443257 
2523 2 -915.462 217.461 -780.045 0.314205 -0.804025 -0.448893 -0.2309 
2461 2 -911.295 142.616 -686.879 -0.112717 -0.708411 -0.668162 -0.197503 
2460 2 -914.447 139.811 -678.054 -0.165703 0.220905 -0.954051 -0.116318 
2459 2 -917.782 136.227 -669.466 -0.232979 0.887488 -0.389602 0.0793512 
2524 2 -914.258 224.883 -786.39 0.451892 -0.770086 0.429649 0.134771 
2525 2 -911.87 232.723 -791.944 0.187063 -0.123401 0.805937 0.547946 
2526 2 -909.795 241.659 -795.575 -0.350459 0.522798 0.604414 0.48841 
2535 2 -994.134 290.442 -817.443 -0.00749791 -0.0974695 0.372749 -0.922769 
2540 2 -985.824 258.761 -781.457 -0.930717 -0.14279 -0.299019 0.154808 
2539 2 -989.938 263.729 -788.964 -0.456906 0.101789 -0.336139 0.817243 
2538 2 -992.024 269.431 -796.924 0.475584 0.237269 -0.186438 0.826295 
2537 2 -992.541 275.611 -804.649 0.932572 0.315743 -0.0402649 0.170277 
2536 2 -992.769 283.765 -810.28 0.61878 0.338755 0.325335 -0.629693 
2562 2 -991.72 344.567 -728.419 -0.367008 -0.416571 0.274509 -0.785123 
2563 2 -986.933 337.639 -723.14 0.304033 -0.156664 0.473441 -0.81171 
2564 2 -982.191 330.572 -718.064 0.828524 0.260816 0.421767 -0.260068 
2565 2 -976.96 324.572 -712.14 0.699475 0.520255 0.117749 0.475609 
2541 2 -980.485 255.293 -773.865 -0.653822 -0.376018 -0.198266 -0.625953 
2542 2 -973.741 253.041 -767.08 0.0642034 -0.406385 0.0938076 -0.906603 
2577 2 -896.892 248.724 -675.577 0.129433 -0.316267 0.634911 -0.6929 
2566 2 -970.48 318.374 -707.997 0.124138 0.366434 -0.284531 0.877131 
2588 3 -860.075 250.118 -712.535 -0.969112 0.177412 0.1713 -0.00157823 
2543 2 -966.455 251.831 -760.412 0.726521 -0.150053 0.500686 -0.446055 
2576 2 -902.684 256.649 -676.31 -0.468532 -0.658052 0.222221 -0.545951 
2544 2 -957.825 249.759 -755.966 0.771642 0.111231 0.470067 0.413805 
2545 2 -949.368 251.377 -751.094 0.171564 0.527886 0.219933 0.802204 
2597 2 -851.08 289.107 -675.621 -0.258915 -0.324507 -0.0579146 -0.907912 
2567 2 -964.259 313.01 -702.473 -0.554234 0.145795 -0.61772 0.538508 
2575 2 -909.482 263.871 -676.463 -0.718932 -0.53819 -0.432452 -0.0804561 
2596 2 -854.844 290.173 -684.625 -0.870589 -0.190588 -0.153968 -0.426668 
2589 2 -858.675 284.956 -751.031 -0.838281 0.247367 0.0428497 -0.484003 
2590 2 -861.418 288.105 -742.052 -0.168813 -0.0255412 -0.161921 -0.971922 
2532 2 -902.842 297.655 -810.461 0.107767 -0.078671 0.871038 0.472747 
2531 2 -903.724 289.322 -805.203 0.442343 -0.759633 0.436832 0.190968 
2530 2 -903.992 279.715 -802.691 0.578152 -0.719863 -0.295661 -0.245196 
2546 2 -940.18 253.291 -747.826 -0.596283 0.564572 -0.11501 0.558998 
2547 2 -932.39 258.313 -744.479 -0.758812 0.417706 -0.45795 -0.200022 
2529 2 -903.922 269.876 -801.404 0.160047 -0.227548 -0.742148 -0.609773 
2528 2 -905.454 260.167 -800.093 -0.46134 0.438588 -0.628689 -0.446718 
2534 3 -947.966 274.467 -799.613 -0.680987 -0.343953 0.27844 -0.583458 
2568 2 -956.041 307.732 -700.749 -0.798734 -0.320559 -0.495752 -0.116168 
2549 2 -921.385 274.416 -741 0.359923 -0.584425 -0.353916 -0.635332 
2548 2 -926.895 266.339 -742.424 -0.287418 -0.13141 -0.640561 -0.69986 
2527 2 -908.84 251.019 -798.538 -0.633006 0.757842 -0.0858731 0.13268 
2569 2 -947.471 303.575 -697.881 -0.493299 -0.559617 0.0301997 -0.665261 
2570 2 -940.5 297.574 -694.072 0.263521 -0.234061 0.458705 -0.815697 
2571 2 -934.242 291.244 -689.716 0.753652 0.204779 0.517702 -0.349369 
2572 2 -927.938 284.608 -686.104 0.73691 0.515106 0.0899757 0.428409 
2560 1 -954.473 363.037 -750.738 -0.683431 -0.524508 0.0919134 -0.499364 
2561 3 -941.274 334.668 -734.977 -0.709917 -0.477735 0.113766 -0.504822 
2558 2 -906.721 355.123 -760.668 0.107987 -0.347119 0.691609 0.624118 
2556 2 -903.717 336.116 -756.215 0.572793 -0.645167 -0.455855 -0.218778 
2550 2 -916.515 283.107 -740.419 0.692042 -0.68069 0.239549 -0.0188871 
2551 2 -912.339 292.029 -740.477 0.404824 -0.222402 0.762537 0.452981 
2555 2 -901.093 327.126 -752.988 0.121747 -0.0258241 -0.803653 -0.581939 
2552 2 -908.125 300.686 -742.994 -0.105572 0.441694 0.649809 0.609516 
2553 2 -904.006 309.371 -745.444 -0.575916 0.765895 0.129405 0.254913 
2554 2 -901.549 318.6 -748.015 -0.441584 0.641805 -0.54215 -0.314903 
2557 2 -905.926 345.502 -758.493 0.557865 -0.738698 0.264167 0.270789 
2559 2 -908.731 364.73 -762.211 -0.428009 0.338351 0.689381 0.47653 
2591 2 -860.132 291.136 -732.716 0.65101 -0.121351 -0.0299252 -0.748709 
2592 2 -858.764 293.154 -723.105 0.998785 -0.0250377 0.0219539 -0.0363235 
2593 2 -857.983 294.101 -713.254 0.602209 0.0299965 -0.0475079 0.796359 
2595 2 -858.015 291.245 -693.812 -0.920859 0.0138742 -0.159097 0.355688 
2594 2 -858.734 293.38 -703.432 -0.285781 -0.0145153 -0.133309 0.948866 
2574 2 -915.865 271.195 -678.18 -0.506117 -0.0552214 -0.6473 0.567273 
2573 2 -922.2 278.015 -681.441 0.0944959 0.429883 -0.376004 0.81541 
2598 2 -845.67 288.225 -667.337 0.47572 -0.130361 0.206168 -0.845098 
1995 2 -538.969 -687.06 -518.882 -0.767676 0.511229 0.218627 0.318623 
1996 2 -538.987 -677.773 -515.282 -0.690881 0.495159 -0.339477 -0.402812 
2033 2 -551.296 -528.48 -523.31 0.135495 -0.956039 0.258873 -0.0248112 
2034 2 -550.944 -525.826 -532.885 0.13985 -0.320829 0.921865 0.166361 
2035 2 -549.509 -522.535 -542.243 -0.0464747 0.525022 0.840827 0.123299 
2036 2 -549.265 -519.515 -551.634 -0.222625 0.966359 0.127986 0.0144132 
2037 2 -549.227 -515.325 -560.566 -0.0421985 0.689442 -0.700251 -0.180383 
2046 2 -561.031 -511.596 -648.151 0.046117 -0.807365 -0.585007 0.0616552 
2045 2 -559.506 -511.842 -638.426 0.0611787 0.00850817 -0.998061 -0.00764603 
2044 2 -558.359 -512.113 -628.547 0.0715067 0.768337 -0.635884 -0.0140156 
2043 2 -557.323 -512.152 -618.651 -0.0133512 0.979568 0.184677 -0.0785003 
2042 2 -555.93 -510.622 -608.939 -0.0245542 0.512601 0.856167 -0.0601307 
2041 2 -555.527 -510.997 -599.029 0.008049 -0.335171 0.9398 0.0661146 
2040 2 -554.189 -510.046 -589.246 -0.0346153 -0.953981 0.282586 0.0941645 
2039 2 -552.023 -511.08 -579.607 0.0923719 -0.832095 -0.543837 0.0576728 
2038 2 -550.92 -512.324 -569.82 0.0602434 -0.15143 -0.985971 -0.0360664 
2047 1 -598.048 -482.465 -649.939 0.9456 -0.0343555 0.164425 0.278612 
2049 2 -628.328 -451.413 -631.348 0.822905 -0.0947714 0.343648 0.442438 
2050 2 -623.717 -447.062 -623.686 0.287828 0.244463 0.135557 0.915979 
2048 3 -586.842 -479.154 -617.023 0.924301 -0.0117843 0.203671 0.322562 
2051 2 -618.557 -445.96 -615.345 -0.532976 0.256583 -0.0126811 0.806189 
2052 2 -613.6 -444.005 -606.996 -0.905419 0.145847 -0.339026 0.209778 
2053 2 -607.018 -442.508 -599.733 -0.728823 -0.272929 -0.328489 -0.535184 
2054 2 -599.555 -442.609 -593.235 0.0646293 -0.424351 0.0753538 -0.90004 
2055 2 -592.12 -443.231 -586.786 0.739793 -0.19003 0.419094 -0.490871 
2056 2 -584.221 -444.807 -580.966 0.819632 0.211217 0.43445 0.307968 
2057 2 -576.015 -445.791 -575.49 0.226276 0.543087 0.0477188 0.807204 
2058 2 -566.89 -447.428 -571.833 -0.427176 0.337909 -0.423372 0.723943 
2059 2 -558.153 -450.224 -568.028 -0.749804 -0.176829 -0.637476 -0.0122891 
2060 2 -548.669 -452.56 -566.26 -0.373536 -0.526298 -0.261762 -0.717608 
2061 2 -539.454 -452.736 -562.745 0.427238 -0.51287 0.123636 -0.734266 
2062 2 -531.26 -449.821 -558.125 0.862804 -0.234697 0.408596 -0.18313 
2142 2 -576.6 -387.921 -533.389 -0.446211 -0.616108 -0.00571427 0.649056 
2143 2 -584.443 -393.051 -530.061 -0.719783 -0.481642 0.489274 0.102687 
2144 2 -592.788 -398.453 -529.29 -0.558393 0.125048 0.645051 -0.506429 
2141 2 -568.339 -383.723 -537.135 0.347617 -0.33645 -0.424153 0.765544 
2140 2 -560.695 -378.895 -541.106 0.784777 0.139517 -0.536505 0.277168 
2139 2 -555.179 -372.701 -546.442 0.825327 0.434686 -0.139387 -0.332349 
2145 2 -601.393 -403.39 -528.454 -0.0173215 0.635242 0.340592 -0.692939 
2138 2 -551.159 -366.451 -552.971 0.36329 0.342487 0.23399 -0.834249 
2146 2 -609.992 -408.137 -529.17 0.564008 0.691135 -0.185985 -0.41187 
2147 2 -617.927 -414.005 -529.122 0.635936 0.215151 -0.689887 0.270834 
2089 2 -526.711 -415.446 -522.293 0.578676 -0.00474999 0.0245814 0.815173 
2088 2 -528.407 -417.17 -531.918 0.984922 -0.103316 0.138639 0.00578681 
2087 2 -528.304 -418.209 -541.789 0.725657 -0.00734032 -0.0271812 -0.687481 
2148 2 -625.773 -419.986 -529.61 0.2449 -0.378076 -0.510348 0.732549 
2086 2 -525.985 -419.536 -551.302 -0.139031 0.152184 -0.0388306 -0.977754 
2085 2 -522.347 -419.982 -560.436 -0.842655 0.101845 0.116601 -0.515718 
2149 2 -633.514 -425.642 -527 -0.560675 -0.584825 -0.11523 0.574757 
2150 2 -639.324 -433.132 -523.934 -0.794877 -0.467617 0.359105 -0.143349 
2084 2 -519.423 -421.656 -569.744 -0.861061 -0.00168666 0.155063 0.484279 
2083 2 -515.454 -424.107 -578.412 -0.039799 -0.159371 0.122207 0.978817 
2151 2 -643.511 -441.559 -520.829 -0.361587 -0.0613931 0.507584 -0.779644 
2063 2 -523.574 -447.346 -552.48 0.7258 0.199419 0.392481 0.528588 
2064 2 -516.223 -446.342 -545.852 0.0490079 0.441048 -0.0544499 0.894489 
2152 2 -645.975 -449.872 -516.162 0.395178 0.3568 0.390319 -0.751119 
2082 2 -512.078 -425.994 -587.462 0.773653 -0.170975 -0.0511401 0.607958 
2065 2 -508.699 -448.517 -539.821 -0.679676 0.242094 -0.317365 0.615395 
2066 2 -501.235 -449.396 -533.306 -0.851486 -0.0924729 -0.483953 -0.179471 
2081 2 -507.129 -426.948 -595.998 0.925517 0.00470104 -0.251505 -0.283092 
2080 2 -499.789 -428.517 -602.48 0.290032 0.322585 -0.216875 -0.87452 
2079 2 -492.541 -431.714 -608.523 -0.549735 0.446592 0.113312 -0.696784 
2078 2 -484.274 -435.934 -611.883 -0.813099 0.259454 0.520852 0.0163274 
2077 2 -475.733 -439.433 -615.349 -0.520189 -0.265983 0.511316 0.630247 
2076 2 -467.209 -442.339 -619.448 0.226287 -0.544925 0.0174243 0.807185 
2075 3 -474.363 -439.847 -568.001 -0.675397 0.346111 0.425334 -0.493089 
2074 1 -441.531 -441.663 -579.87 -0.670474 0.378659 0.452265 -0.450043 
2073 2 -436.216 -440.672 -533.032 -0.598245 0.0250806 -0.779677 -0.183243 
2067 2 -492.848 -449.433 -528.002 -0.380286 -0.519375 -0.26925 -0.716336 
2072 2 -445.28 -443.861 -530.793 -0.545931 0.571648 -0.540954 0.287309 
2068 2 -483.426 -449.472 -524.764 0.357606 -0.626552 0.21045 -0.659743 
2069 2 -473.782 -447.303 -523.815 0.64855 -0.204663 0.725451 -0.105912 
2071 2 -454.538 -445.267 -527.73 -0.0325233 0.817675 0.104476 0.565186 
2070 2 -464.094 -445.81 -524.989 0.494611 0.420196 0.66921 0.361874 
2137 2 -547.475 -359.14 -558.598 -0.408248 -0.00257618 0.460304 -0.78832 
2136 2 -544.86 -351.764 -564.632 -0.870701 -0.348404 0.257397 -0.232898 
2135 2 -541.391 -345.834 -571.782 -0.76881 -0.339202 -0.0669266 0.537954 
2134 2 -541.447 -338.953 -578.83 -0.0613421 -0.0214011 -0.399932 0.914239 
2133 2 -542.62 -331.945 -585.804 0.698569 0.318648 -0.181901 0.61431 
2132 2 -546.062 -324.768 -591.656 0.878092 0.39595 0.252013 -0.0931059 
2131 2 -550.897 -316.93 -595.407 0.446929 0.0297044 0.566102 -0.692027 
2130 2 -555.978 -309.405 -599.255 -0.144907 -0.424128 0.38532 -0.806626 
2128 1 -592.762 -301.607 -570.802 -0.378534 0.215576 -0.409249 0.80172 
2129 3 -570.248 -318.618 -550.118 -0.382832 0.21264 -0.363487 0.822254 
2127 2 -614.666 -302.062 -528.965 -0.484216 0.00178934 0.862265 0.148428 
2126 2 -606.599 -304.488 -523.705 -0.162515 -0.689287 0.52171 0.4757 
2125 2 -598.494 -306.72 -518.565 0.313844 -0.793747 -0.339703 0.395056 
2371 1 -983.132 16.9731 -537.975 -0.795853 -0.0861748 -0.590281 -0.103732 
2370 2 -963.379 -19.4528 -560.579 0.0153588 0.845188 -0.276086 -0.457382 
2398 1 -847.892 7.15693 -643.058 0.452287 -0.30953 0.121572 0.827555 
2400 2 -878.518 -24.0741 -625.476 0.367034 0.210859 -0.45354 -0.784299 
2401 2 -885.054 -18.9037 -620.165 0.851163 -0.244664 -0.395001 -0.244206 
2403 2 -894.758 -5.42773 -609.635 -0.0299973 -0.311601 0.541337 0.780359 
2402 2 -890.86 -12.9336 -614.852 0.740864 -0.467964 0.0579008 0.478307 
2404 2 -899.356 3.06317 -607.61 -0.667162 0.212923 0.552515 0.45198 
2405 2 -903.996 11.5772 -605.452 -0.837 0.521995 0.0593633 -0.153066 
2406 2 -905.877 20.6322 -601.841 -0.325606 0.365114 -0.474425 -0.731842 
2407 2 -908.216 29.6943 -598.79 0.391697 -0.198717 -0.574548 -0.690637 
2395 2 -828.654 50.8564 -624.434 -0.0870899 -0.777697 -0.622537 0.00709768 
2387 2 -875.509 51.5711 -567.058 -0.446496 -0.00343277 -0.894779 0.000691938 
2388 2 -867.864 51.7332 -573.291 -0.285554 -0.615934 -0.644888 -0.351004 
2389 2 -859.463 53.2663 -578.35 0.127782 -0.866005 -0.0124106 -0.483273 
2390 2 -851.276 55.1511 -583.422 0.415746 -0.510361 0.720661 -0.217566 
2391 2 -843.419 56.65 -589.382 0.362256 0.280893 0.887085 0.0543139 
2392 2 -836.653 55.4104 -596.522 0.14041 0.926686 0.259249 0.233085 
2393 2 -832.322 54.1063 -605.324 -0.0390927 0.710453 -0.68796 0.142966 
2394 2 -830.281 52.7459 -614.848 -0.0693114 -0.061415 -0.991651 0.0897397 
2399 3 -863.488 24.9757 -617.317 0.405873 -0.352608 0.114514 0.835357 
2408 2 -910.593 39.0207 -596.558 0.775166 -0.525018 -0.32518 -0.13316 
2409 2 -913.556 48.1869 -594.015 0.522823 -0.726239 0.26445 0.359582 
2410 2 -915.976 57.6148 -595.869 -0.0280244 -0.247838 0.705845 0.663004 
2411 2 -919.275 66.8902 -596.91 -0.508576 0.357368 0.654677 0.430159 
2412 2 -922.636 76.1578 -598.247 -0.692222 0.710477 0.104805 -0.0711813 
2386 2 -881.633 51.1091 -559.284 -0.209642 0.795191 -0.498967 0.27341 
2385 2 -886.409 49.9646 -550.782 0.0715044 0.896556 0.346401 0.266609 
2367 2 -943.139 -24.2018 -540.097 -0.199639 -0.74281 0.593198 0.237686 
2368 2 -949.242 -24.3335 -547.809 -0.364878 0.070401 0.921447 0.113327 
2369 2 -956.024 -21.7702 -554.447 -0.341929 0.727444 0.52411 -0.281458 
2384 2 -891.331 47.3269 -542.512 0.166253 0.417204 0.864935 0.224028 
2366 2 -936.234 -24.0172 -533.091 0.0768356 -0.898411 -0.179184 0.393505 
2383 2 -896.656 43.9522 -534.928 0.313678 -0.455568 0.831983 0.0432297 
2365 2 -928.621 -21.6096 -527.175 0.311245 -0.357096 -0.837031 0.27384 
2396 2 -827.756 49.2562 -634.143 0.00347821 -0.964216 0.248567 -0.09214 
2397 2 -825.535 48.6317 -643.744 0.095131 -0.363722 0.923675 -0.074034 
2413 2 -925.109 85.6413 -598.893 -0.416152 0.523675 -0.532495 -0.518682 
2364 2 -922.492 -17.6353 -520.555 0.448445 0.486668 -0.749654 -0.00838786 
2372 3 -949.81 18.1804 -527.516 -0.812607 -0.0566067 -0.568633 -0.114552 
2382 2 -903.113 42.45 -527.629 0.212913 -0.885543 0.309068 -0.273784 
2381 2 -909.67 42.394 -520.179 -0.18231 -0.797879 -0.483068 -0.311123 
2380 2 -916.82 46.497 -514.711 -0.409073 -0.142679 -0.884102 0.175113 
2414 2 -926.28 95.4064 -599.895 0.10907 -0.198329 -0.791692 -0.567445 
2440 2 -852.409 102.466 -661.632 -0.144205 -0.14509 0.975425 -0.0818547 
2458 2 -922.523 131.279 -662.19 -0.129293 0.855619 0.375069 0.332451 
2439 2 -850.59 106.938 -652.98 -0.245404 -0.84695 0.471644 -0.00215575 
2454 2 -945.195 103.294 -646.718 -0.0207339 -0.56307 -0.610301 -0.556826 
2455 2 -939.094 110.311 -650.139 0.482252 -0.802378 -0.0250282 -0.350708 
2415 2 -926.545 104.9 -602.878 0.612512 -0.64195 -0.344267 -0.306936 
2438 2 -848.692 110.6 -643.959 -0.155472 -0.906403 -0.374543 0.118237 
2457 2 -927.073 124.879 -656.081 0.146761 0.193436 0.872394 0.424232 
2456 2 -933.098 117.557 -653.276 0.596683 -0.472394 0.628062 0.162331 
2437 2 -847.285 114.544 -634.984 0.0135872 -0.293048 -0.932171 0.212123 
2436 2 -846.449 119.185 -626.247 0.215189 0.567852 -0.769913 0.196142 
2435 2 -847.603 121.496 -616.715 0.126385 0.987747 -0.0409305 0.0818959 
2434 2 -848.205 122.763 -606.988 0.0725012 0.647134 0.758251 0.0318739 
2433 2 -848.638 123.552 -597.139 0.0272763 -0.228013 0.972399 -0.0413087 
2432 2 -849.686 122.865 -587.293 0.0504648 -0.941452 0.331864 -0.0314188 
2431 2 -851.239 126.673 -578.302 -0.206616 -0.839268 -0.501056 0.0433771 
2429 2 -853.773 138.02 -562.382 0.211063 0.688393 -0.64452 0.257219 
2430 2 -852.501 131.881 -569.997 -0.128165 -0.161006 -0.941207 0.267919 
2428 2 -854.72 144.45 -554.974 0.335022 0.923637 0.185765 -0.0121352 
2427 2 -855.208 151.052 -547.71 0.155924 0.383968 0.859789 -0.298359 
2416 2 -926.768 114.747 -603.612 0.619474 -0.628982 0.317899 0.345794 
2417 2 -927.048 124.64 -603.691 0.0232627 -0.180882 0.718868 0.670797 
2418 2 -928.4 134.358 -604.447 -0.481889 0.512187 0.537131 0.465767 
2426 3 -889.529 149.079 -586.548 0.407199 0.75454 0.367036 -0.360753 
2424 2 -914.582 190.467 -605.654 0.270129 0.10536 0.69489 0.658071 
2423 2 -919.684 181.991 -606.021 0.679497 -0.414812 0.547844 0.257064 
2422 2 -924.143 173.166 -607.112 0.645085 -0.650786 -0.0696507 -0.394325 
2421 2 -926.553 163.589 -607.224 0.230535 -0.35202 -0.63235 -0.650437 
2420 2 -928.831 153.916 -606.834 -0.450627 0.359722 -0.656979 -0.485711 
2419 2 -928.701 144.191 -605.416 -0.647269 0.761195 -0.036248 -0.0176476 
2425 1 -883.239 180.3 -571.922 0.413673 0.753831 0.393981 -0.324641 
2616 2 -810.968 155.168 -588.95 -0.391363 0.640551 -0.65862 0.0524257 
2617 2 -805.096 159.172 -595.953 -0.258156 -0.0698231 -0.924757 -0.270748 
2614 1 -804.167 189.089 -556.888 0.235487 -0.959645 -0.0652788 -0.139161 
2615 3 -796.22 204.967 -587.215 0.211595 -0.963858 -0.0904516 -0.134257 
2618 2 -799.966 163.461 -603.322 0.0471287 -0.774572 -0.536676 -0.331355 
2619 2 -795.534 167.542 -611.186 0.445182 -0.847453 0.193069 -0.215314 
2620 2 -790.259 174.38 -616.144 0.438723 -0.429469 0.779378 0.125093 
2621 2 -784.39 179.715 -622.108 0.210987 0.269866 0.757395 0.555886 
2622 2 -778.264 187.014 -624.93 -0.238391 0.670169 0.235431 0.662281 
2623 2 -770.822 193.52 -624.907 -0.685416 0.556636 -0.371249 0.28729 
2624 2 -763.049 199.496 -623.78 -0.616049 0.0837629 -0.638138 -0.454144 
2625 2 -756.074 206.419 -622.179 0.0950942 -0.415703 -0.409933 -0.80629 
2626 2 -750.437 213.878 -618.973 0.776014 -0.503899 0.0139801 -0.379069 
2652 2 -702.758 203.247 -558.787 -0.523741 -0.724665 -0.439538 -0.085808 
2613 2 -792.17 232.737 -543.533 0.744018 0.0842442 0.293355 -0.594376 
2653 2 -697.322 196.333 -563.295 -0.228095 -0.820681 0.310751 -0.421768 
2654 2 -691.715 190.117 -568.559 0.204853 -0.204605 0.867102 -0.405347 
2627 2 -745.926 221.202 -614.175 0.816672 -0.166766 0.458014 0.308965 
2628 2 -739.327 226.622 -609.179 0.231017 0.364401 0.484451 0.761019 
2629 2 -731.378 231.855 -606.311 -0.372667 0.580331 -0.00947845 0.724048 
2651 2 -710.26 208.983 -555.623 -0.471254 -0.0166754 -0.823968 0.314196 
2655 2 -687.085 183.553 -574.353 0.560346 0.458478 0.673891 -0.147246 
2656 2 -681.18 176.5 -578.085 0.497107 0.829414 0.0245642 0.253681 
2650 2 -717.478 214.58 -551.829 -0.0115158 0.656317 -0.506755 0.558852 
2657 2 -677.061 168.266 -581.81 0.213635 0.478095 -0.615188 0.589346 
2658 2 -674.264 159.015 -584.003 -0.258334 -0.149284 -0.825464 0.479152 
2659 2 -671.493 150.03 -587.003 -0.458946 -0.803533 -0.348316 0.149596 
2649 2 -723.964 219.527 -546.139 0.356506 0.850065 0.247864 0.298088 
2648 2 -730.659 223.687 -540.076 0.454573 0.35462 0.813751 -0.0735947 
2647 2 -736.186 228.886 -533.744 0.121891 -0.439287 0.805211 -0.379217 
2646 2 -741.808 235.372 -528.673 -0.276063 -0.863827 0.153068 -0.392634 
2630 2 -722.839 235.861 -603.381 -0.759586 0.449381 -0.439783 0.166363 
2612 2 -794.99 237.48 -551.71 0.0592539 -0.142377 0.260452 -0.953091 
2611 2 -796.87 242.769 -559.864 -0.699955 -0.263559 0.139952 -0.648855 
2660 2 -670.677 141.479 -591.914 -0.430391 -0.763735 0.314199 -0.36435 
2645 2 -745.609 243.496 -524.56 -0.495485 -0.686205 -0.515208 0.134826 
2610 2 -798.817 246.21 -569.035 -0.972427 -0.177273 -0.106823 0.107466 
2631 2 -714.93 241.115 -600.588 -0.630877 0.126719 -0.566829 -0.514434 
2661 2 -668.246 132.574 -595.395 0.0825519 -0.289742 0.776961 -0.552781 
2682 2 -669.181 180.425 -524.069 0.417329 0.345106 -0.103169 -0.834323 
2683 2 -675.536 179.149 -516.583 0.932246 0.177652 -0.211988 -0.233278 
2632 2 -709.089 248.275 -597.225 -0.0208506 -0.419192 -0.49835 -0.758611 
2681 2 -663.065 182.042 -531.696 -0.423615 0.264385 0.212287 -0.839991 
2662 2 -663.749 124.372 -598.756 0.587426 0.227142 0.723313 -0.283117 
2668 1 -596.541 136.572 -609.571 -0.771561 0.00646191 0.534257 0.345285 
2669 3 -625.356 148.729 -593.797 -0.777242 0.0478018 0.555941 0.290758 
2667 2 -622.922 97.8304 -604.086 -0.462127 -0.677878 -0.0870266 -0.565108 
2666 2 -631.438 102.867 -604.596 -0.730911 -0.300892 -0.610154 0.0542647 
2665 2 -639.732 108.267 -603.957 -0.43217 0.239121 -0.675158 0.547916 
2664 2 -648.481 112.132 -601.227 0.0668754 0.772779 -0.221535 0.590984 
2663 2 -656.627 117.604 -599.982 0.57471 0.668515 0.314947 0.351574 
2673 2 -610.184 190.092 -588.698 -0.879819 -0.0628596 0.423569 0.206292 
2672 2 -602.387 189.408 -594.829 -0.323183 -0.385233 0.152985 0.850731 
2671 2 -596.607 186.092 -602.247 0.585789 -0.333841 -0.0566626 0.736336 
2670 2 -589.284 183.131 -608.229 0.884327 -0.225218 -0.389974 0.123139 
2674 2 -617.931 190.482 -582.575 -0.62593 0.286633 0.36957 -0.624076 
2675 2 -626.164 189.335 -577.266 0.222989 0.344628 -0.0140942 -0.911761 
2676 2 -632.377 187.373 -569.77 0.890951 0.18815 -0.279262 -0.304661 
2677 2 -638.87 185.981 -562.35 0.824283 -0.178886 -0.187762 0.503293 
2678 2 -644.045 186.331 -553.904 0.0649969 -0.333196 -0.0409179 0.939724 
2679 2 -650.274 185.988 -546.193 -0.698008 -0.291994 0.134972 0.639771 
2680 2 -656.374 184.194 -538.671 -0.918285 -0.0332758 0.383643 -0.0920009 
2714 2 -602.698 238.56 -524.194 -0.0561572 0.737199 0.589562 0.325269 
2715 2 -598.797 243.761 -531.744 -0.315335 0.925316 -0.137477 0.159543 
2713 2 -608.011 235.37 -516.474 0.308914 0.150563 0.90788 0.240118 
2599 2 -841.358 285.876 -658.752 0.941887 0.064509 0.212584 -0.251981 
2602 2 -829.697 275.719 -633.647 -0.632343 -0.050982 -0.386414 0.669498 
2601 2 -833.478 280.644 -641.421 0.062033 0.218249 -0.249955 0.941298 
2600 2 -838.037 283.851 -649.606 0.747806 0.287626 0.0701313 0.594255 
2603 2 -825.745 270.161 -626.489 -0.901269 -0.338081 -0.27023 -0.0197839 
2604 2 -820.776 264.652 -619.908 -0.548992 -0.30868 0.0370347 -0.775856 
2609 2 -800.255 248.43 -578.59 -0.601667 -0.00658723 -0.144614 0.785519 
2608 2 -803.929 249.261 -587.739 0.233297 0.213713 -0.00453583 0.948619 
2607 2 -807.362 252.518 -596.504 0.876406 0.213774 0.0663942 0.426385 
2606 2 -811.253 256.851 -604.473 0.872338 0.124021 0.303667 -0.362536 
2605 2 -816.396 260.735 -611.948 0.330871 -0.142914 0.252688 -0.897913 
2633 2 -702.743 255.679 -595.489 0.570241 -0.645831 -0.0819968 -0.501003 
2642 3 -718.837 265.952 -552.226 0.406937 0.87716 -0.115458 0.227293 
2634 2 -697.707 263.948 -593.445 0.797764 -0.47498 0.323508 0.182505 
2635 2 -694.612 272.566 -589.766 0.327435 -0.0467284 0.482757 0.810893 
2636 2 -692.379 280.825 -584.732 -0.462467 0.299826 0.383298 0.741156 
2637 2 -691.193 289.43 -579.995 -0.895006 0.404292 0.103214 0.157665 
2638 2 -692.026 296.978 -573.663 -0.706376 0.395753 -0.168338 -0.562205 
2639 2 -694.102 304.439 -567.601 0.0968344 0.110376 -0.45279 -0.879444 
2640 2 -696.809 312.08 -561.848 0.722887 -0.258418 -0.387794 -0.510167 
2641 1 -729.238 293.384 -533.093 0.416786 0.873237 -0.0989064 0.232301 
2644 2 -750.843 250.953 -520.441 -0.242946 0.0429904 -0.84282 0.478314 
2643 2 -756.795 258.357 -517.692 0.230625 0.688802 -0.394057 0.563102 
2716 2 -594.907 249.099 -539.118 -0.342083 0.487284 -0.792476 -0.132349 
2717 2 -590.915 254.676 -546.202 -0.177144 -0.287775 -0.856184 -0.390838 
2718 2 -585.638 260.113 -552.552 0.275705 -0.787351 -0.426665 -0.349317 
2719 2 -581.978 267.105 -558.435 0.411748 -0.858476 0.297474 0.0706464 
2720 2 -580.582 273.813 -565.572 0.156345 -0.422106 0.862437 0.231486 
2721 2 -579.908 279.268 -573.892 -0.0785498 0.369552 0.885076 0.271849 
2722 1 -611.858 309.917 -557.687 -0.945552 -0.243984 -0.0660963 -0.205024 
2723 3 -601.415 293.335 -528.781 -0.939637 -0.276833 -0.0947139 -0.177414 
2724 2 -636.353 331.229 -523.442 -0.463754 -0.205811 0.138347 -0.85055 