ITEM: TIMESTEP
10000000
ITEM: NUMBER OF ATOMS
4067
ITEM: BOX BOUNDS pp pp pp
-4.6310929470000001e+03 4.6704658980000004e+03
-4.6310929470000001e+03 4.6704658980000004e+03
-4.6310929470000001e+03 4.6704658980000004e+03
ITEM: ATOMS id type x y z c_q[1] c_q[2] c_q[3] c_q[4] 
2885 3 -451.808 359.565 -678.314 -0.487417 0.467922 -0.435789 -0.594611 
2884 1 -447.449 325.285 -684.28 -0.515189 0.462724 -0.436703 -0.574245 
2891 2 -493.418 373.198 -677.361 0.356776 -0.628652 -0.607801 -0.328764 
2883 2 -409.306 344.54 -704.308 -0.315095 -0.339317 -0.76719 0.443845 
2882 2 -411.031 353.531 -700.455 0.145317 0.373936 -0.751595 0.523602 
2881 2 -411.158 362.133 -695.624 0.505994 0.821448 -0.219688 0.144672 
2880 2 -410.726 369.963 -689.669 0.377453 0.709659 0.512784 -0.301606 
2879 2 -411.511 376.478 -682.158 0.0297037 -0.0183539 0.930637 -0.364274 
2878 2 -412.874 383.162 -674.824 -0.198686 -0.698139 0.625832 -0.285412 
2892 2 -493.708 381.488 -682.723 0.454371 -0.883848 0.106187 0.0329373 
2893 2 -493.598 389.74 -688.14 0.184635 -0.550747 0.737209 0.345124 
2890 2 -495.499 365.079 -672.099 -0.123539 0.0179397 -0.86158 -0.492032 
2894 2 -494.063 396.894 -694.93 -0.18164 0.228635 0.889793 0.350715 
2889 2 -496.095 355.952 -668.164 -0.483185 0.657667 -0.508057 -0.275472 
2877 2 -416.977 388.658 -667.645 -0.336423 -0.922547 -0.119872 -0.146142 
2910 2 -552.662 460.539 -806.202 0.0205186 0.983393 -0.179667 0.0153676 
2909 2 -552.863 460.721 -796.278 0.0182823 0.741713 0.670365 0.0117167 
2911 1 -536.223 504.682 -808.594 0.926988 0.137804 0.0457947 -0.345841 
2908 2 -554.966 460.764 -786.568 0.0996895 -0.0209222 0.994796 0.00235041 
2912 3 -535.86 497.792 -774.253 0.942401 0.143173 0.0487063 -0.298346 
2906 2 -554.367 459.186 -766.944 0.0550237 -0.965056 -0.246843 0.0686139 
2907 2 -555.965 459.771 -776.682 0.109372 -0.803692 0.584891 0.00447131 
2905 2 -549.988 457.603 -758.272 0.243666 -0.43354 -0.86665 0.0398443 
2904 2 -545.47 455.074 -749.854 0.131175 0.525095 -0.807539 -0.234414 
2925 2 -543.265 511.996 -684.955 0.350064 -0.239126 -0.196012 0.884225 
2924 2 -538.188 511.81 -693.515 0.937721 -0.0967491 -0.236541 0.235303 
2923 2 -534.737 512.446 -702.693 0.862064 0.0768549 -0.124563 -0.485204 
2922 2 -530.415 512.278 -711.481 0.0854554 0.231564 -0.0269535 -0.968684 
2921 2 -526.38 514.511 -720.256 -0.732912 0.0550557 0.221688 -0.64083 
2903 2 -541.016 452.25 -741.429 -0.12186 0.956688 -0.0972116 -0.24586 
2902 2 -535.662 447.372 -734.651 -0.369962 0.730278 0.570094 -0.0693911 
2920 2 -523.103 517.322 -729.099 -0.968825 -0.162831 0.132443 0.131619 
2919 2 -518.667 520.871 -737.213 -0.487004 -0.291398 -0.0699405 0.820379 
2901 2 -528.476 443.036 -729.338 -0.419966 0.00901225 0.875195 0.239961 
2900 2 -520.96 438.054 -725.282 -0.0454249 -0.649428 0.539076 0.534394 
2915 2 -515.239 540.158 -771.106 -0.0243205 -0.0276983 0.189935 -0.981105 
2914 2 -516.426 543.052 -780.482 -0.716313 -0.123133 0.0337668 -0.685998 
2926 2 -548.614 509.936 -676.905 -0.363388 -0.211344 0.100926 0.901719 
2913 2 -519.695 544.631 -789.666 -0.980587 -0.0562422 -0.169806 0.0803301 
2927 2 -553.377 509.89 -668.246 -0.958592 -0.0332051 0.0901412 0.268092 
2918 2 -515.925 526.006 -745.161 0.359536 -0.024035 -0.292441 0.885796 
2899 2 -514.281 432.787 -720.255 0.339289 -0.858351 -0.170904 0.34483 
2916 2 -514.758 536.751 -761.794 0.727288 0.215208 0.164994 -0.630488 
2917 2 -514.975 531.465 -753.366 0.932227 0.267088 -0.0963181 0.224366 
2898 2 -508.353 426.489 -715.445 0.486122 -0.451899 -0.743516 -0.0815911 
2897 2 -504.153 420.407 -709.023 0.0957126 0.353731 -0.847717 -0.383523 
2896 2 -499.87 412.404 -704.922 -0.391953 0.780308 -0.297139 -0.386264 
2895 2 -495.355 404.283 -701.496 -0.557496 0.692479 0.457103 0.0269776 
2967 2 -548.147 672.665 -671.795 0.887354 0.328331 -0.258447 -0.194951 
1777 1 51.5917 -718.358 -526.637 0.280925 -0.0243678 0.0410325 0.958542 
1776 2 61.2466 -672.734 -519.536 -0.0080809 -0.199199 -0.979918 0.00395439 
1938 2 -160.285 -402.636 -588.514 -0.325102 -0.208529 0.885077 -0.259737 
1937 2 -155.584 -396.539 -582.28 -0.396803 -0.861411 0.278358 0.151776 
1936 2 -150.032 -389.982 -577.402 -0.117032 -0.679735 -0.535672 0.487155 
1935 2 -144.581 -384.091 -571.484 0.27818 -0.0483558 -0.889108 0.360227 
1934 2 -138.663 -380.216 -564.549 0.403707 0.563672 -0.720591 -0.00663646 
1939 1 -165.88 -437.927 -557.673 0.260223 0.0459245 0.49719 0.826424 
1940 3 -157.306 -410.714 -537.402 0.277243 0.0339571 0.450411 0.848006 
1933 2 -132.876 -377.226 -557.082 0.23776 0.922824 -0.0936043 -0.288278 
1932 2 -130.873 -376.323 -547.427 -0.0809868 0.688129 0.709023 -0.131172 
1931 2 -126.435 -375.713 -538.533 -0.185169 -0.127221 0.974374 0.0110624 
1930 2 -121.705 -376.475 -529.884 -0.0710159 -0.838083 0.474052 0.260476 
1929 2 -117.971 -375.889 -520.765 0.033177 -0.941901 -0.278181 0.185306 
1941 2 -168.447 -455.838 -514.121 0.312392 -0.229228 -0.492669 -0.779194 
2888 2 -494.407 346.555 -665.598 -0.579159 0.752005 0.293486 0.113706 
2887 2 -491.472 337.233 -664.045 -0.309393 0.154535 0.759049 0.551579 
2876 2 -421.53 391.292 -659.183 -0.256177 -0.498075 -0.828425 -0.00248812 
2886 2 -489.825 327.503 -663.656 0.29116 -0.427278 0.578931 0.630474 
2839 2 -392.851 321.352 -566.713 0.0589068 0.628788 -0.411154 -0.657349 
2840 2 -401.565 325.872 -568.011 0.468803 0.177828 -0.739073 -0.449858 
2841 2 -410.131 330.834 -569.141 0.632396 -0.446728 -0.632515 0.0208343 
2842 2 -417.811 336.813 -571.021 0.399548 -0.831457 -0.0187535 0.385603 
2843 2 -423.827 343.564 -574.967 -0.0108556 -0.514383 0.603761 0.608905 
2844 2 -429.835 350.982 -577.592 -0.611598 0.128036 0.62049 0.473864 
2845 2 -436.234 358.452 -576.562 -0.825861 0.452324 0.288812 -0.173044 
2846 2 -442.734 364.569 -572.326 -0.408453 0.530329 -0.0755017 -0.739065 
2847 2 -449.945 369.607 -567.874 0.314374 0.432939 -0.498344 -0.682192 
2848 2 -458.7 373.906 -566.553 0.751111 -0.0949885 -0.628105 -0.179704 
2849 2 -467.439 378.056 -564.427 0.480757 -0.629401 -0.283685 0.540601 
2850 2 -476.769 381.274 -563.939 -0.147971 -0.566059 0.294668 0.755548 
2851 2 -486.312 383.536 -562.256 -0.752731 -0.0819194 0.516341 0.400098 
2852 2 -494.728 386.129 -557.91 -0.809117 0.349937 0.388413 -0.268346 
2838 2 -384.41 316.121 -566.556 -0.552781 0.683732 0.255574 -0.402027 
2837 2 -376.657 310.071 -568.055 -0.72914 0.240427 0.598086 0.229876 
2853 2 -502.72 389.928 -553.445 -0.452662 0.466336 -0.136995 -0.747569 
2854 2 -508.652 396.232 -548.734 0.253947 0.186847 -0.318608 -0.893918 
2836 2 -369.78 302.987 -568.601 -0.170596 -0.330456 0.611786 0.698151 
2875 2 -425.257 394.703 -650.615 -0.142792 0.233655 -0.937722 0.213759 
2874 2 -429.011 398.519 -642.23 0.0529947 0.883314 -0.393196 0.249688 
2835 2 -360.433 299.589 -568.124 0.203162 -0.753439 0.0208994 0.624995 
2831 3 -349.137 327.06 -537.694 0.429087 -0.617308 -0.311464 0.58121 
2832 2 -333.008 289.356 -569.422 0.00905063 0.556943 -0.262904 -0.787791 
2833 2 -341.632 293.442 -566.993 0.582601 0.191247 -0.699481 -0.367051 
2834 2 -350.905 296.909 -567.822 0.656564 -0.374097 -0.613342 0.229753 
2830 1 -314.943 319.797 -538.181 0.435984 -0.625488 -0.338006 0.551757 
2928 2 -555.336 509.532 -658.511 -0.844744 0.0573123 0.154014 -0.509316 
2938 1 -575.13 461.74 -572.218 0.0117009 -0.807815 -0.454124 -0.375593 
2939 3 -555.359 475.935 -597.381 0.0112208 -0.80581 -0.478918 -0.348111 
2929 2 -557.92 508.376 -649.006 -0.143014 0.179532 0.00428514 -0.973292 
2930 2 -562.12 508.713 -640.007 0.70216 0.205073 -0.0898286 -0.675905 
2931 2 -565.653 506.911 -630.916 0.941498 -0.104809 -0.303856 0.101337 
2932 2 -571.991 507.783 -623.287 0.532341 -0.366972 -0.189803 0.738864 
2933 2 -579.522 508.736 -616.845 -0.299233 -0.3098 -0.00181346 0.902485 
2934 2 -584.995 507.657 -608.752 -0.911572 -0.173234 0.157227 0.338092 
2935 2 -589.292 505.866 -600.05 -0.86393 0.0462216 0.195677 -0.461735 
2936 2 -593.303 503.942 -591.233 -0.121755 0.324357 0.300223 -0.888726 
2937 2 -600.012 499.626 -585.332 0.62358 0.436396 -0.0736923 -0.644419 
2989 2 -585.949 541.704 -521.887 0.24965 0.434379 -0.544766 0.672473 
2990 2 -583.29 532.278 -521.226 -0.402701 -0.088617 -0.655216 0.632986 
2991 2 -579.087 523.355 -520.349 -0.742087 -0.542556 -0.369843 0.134748 
2940 2 -538.336 432.3 -575.059 -0.504725 0.653416 -0.563302 0.031483 
2941 2 -532.184 438.81 -579.254 -0.305888 0.00767154 -0.839442 -0.449121 
2942 2 -526.984 446.328 -583.088 0.0856154 -0.708231 -0.442836 -0.543116 
2943 2 -520.538 452.712 -586.976 0.479537 -0.766994 0.416068 -0.0930113 
2856 2 -519.328 407.571 -536.538 0.80722 -0.44108 -0.125663 0.371556 
2988 2 -586.122 551.584 -521.718 0.679775 0.713689 -0.103958 0.133218 
2944 2 -515.17 459.516 -591.98 0.250521 -0.206761 0.855817 0.402575 
2873 2 -432.418 402.883 -634.118 0.266592 0.880423 0.38445 0.0773397 
2855 2 -513.937 401.622 -542.296 0.811871 -0.177975 -0.41349 -0.371775 
2953 2 -512.492 543.139 -613.355 -0.634942 0.752611 0.115599 0.130622 
2954 2 -512.04 552.788 -615.182 -0.501366 0.61876 -0.420125 -0.435044 
2950 2 -512.469 514.059 -607.653 0.602925 -0.755504 0.208614 0.148911 
2951 2 -512.346 523.878 -609.448 0.31004 -0.358346 0.738087 0.480303 
2949 2 -510.471 504.377 -607.115 0.559609 -0.527392 -0.495942 -0.403406 
2948 2 -509.064 494.597 -607.007 0.00983035 0.0879294 -0.700264 -0.70838 
2952 2 -511.642 533.255 -612.415 -0.304373 0.287658 0.685279 0.595821 
2945 2 -512.306 466.883 -597.89 -0.229745 0.503171 0.633815 0.540662 
2946 2 -509.616 475.743 -601.448 -0.542241 0.81373 0.131992 0.162471 
2947 2 -508.515 484.769 -605.319 -0.460579 0.649189 -0.461947 -0.391186 
2872 2 -434.825 408.109 -626.039 0.189408 0.316976 0.907977 -0.198062 
2871 2 -437.35 411.122 -617.003 0.0500847 -0.550918 0.806734 -0.207753 
2870 2 -439.84 414.199 -607.906 -0.138946 -0.98432 -0.00755047 -0.108399 
2869 2 -440.521 417.685 -598.699 -0.127554 -0.670676 -0.722463 0.109416 
2862 2 -437.869 449.565 -539.21 -0.0772515 -0.787331 -0.611571 -0.0110841 
2863 2 -436.709 448.419 -548.946 -0.146389 -0.944714 0.292076 -0.0278713 
2864 2 -437.162 445.323 -558.32 -0.0838565 -0.2637 0.934628 -0.223384 
2865 2 -437.848 440.291 -566.839 0.130838 0.528373 0.776111 -0.318363 
2866 2 -439.704 434.338 -574.466 0.339157 0.911156 0.187006 -0.140697 
2867 2 -440.905 427.694 -581.703 0.189669 0.801208 -0.544967 0.158436 
2868 2 -440.567 423.119 -590.481 0.0552694 0.112972 -0.948809 0.289733 
2861 2 -439.064 450.412 -529.426 -0.0701251 0.0528326 -0.992162 0.0889127 
2858 3 -468.912 418.77 -542.07 -0.300924 -0.350631 -0.882816 0.0844942 
2860 2 -439.554 449.924 -519.654 -0.071808 0.796002 -0.600608 0.0222366 
2857 1 -485.51 431.674 -514.143 -0.307815 -0.357529 -0.877759 0.0834395 
2968 2 -553.244 667.573 -664.999 0.742439 -0.00327157 -0.412079 0.528171 
2987 2 -585.054 561.3 -523.465 0.530707 0.506474 0.409981 -0.541987 
2969 2 -559.037 663.513 -658.08 0.00902894 -0.199602 -0.235003 0.951237 
2970 2 -563.376 659.239 -650.209 -0.697834 -0.182678 -0.0435893 0.691199 
2971 2 -565.406 655.602 -641.231 -0.893776 -0.306669 0.204295 -0.255699 
2986 2 -584.399 570.587 -526.767 -0.0908256 -0.04352 0.5801 -0.808295 
2985 2 -583.246 578.888 -532.143 -0.76942 -0.379802 0.276781 -0.432593 
2984 2 -582.996 587.833 -536.356 -0.787159 -0.526842 -0.165758 0.274486 
2983 2 -582.391 595.055 -543.172 -0.263912 -0.178494 -0.357926 0.877713 
2972 2 -567.468 649.19 -633.901 -0.349048 -0.141031 0.331635 -0.86504 
2973 2 -567.389 642.032 -626.998 0.463386 0.126013 0.288435 -0.828372 
2974 2 -567.492 635.985 -619.114 0.951361 0.248868 -0.00671474 -0.18147 
2975 2 -568.249 631.244 -610.478 0.748605 0.0759128 -0.165108 0.637626 
2976 2 -569.773 628.346 -601.149 -0.0346801 -0.0961501 -0.158518 0.982051 
2977 2 -571.662 625.424 -591.924 -0.804146 -0.156261 -0.0931723 0.565907 
2978 2 -571.985 622.51 -582.406 -0.902415 -0.204778 0.146758 -0.349537 
2979 2 -573.178 617.714 -573.765 -0.32608 -0.0393355 0.235811 -0.914613 
2980 2 -574.619 613.018 -565.142 0.518876 0.251463 0.12865 -0.806835 
2981 2 -577.293 608.052 -557.043 0.907573 0.391894 -0.150691 0.00471847 
2982 2 -580.065 601.652 -550.079 0.516863 0.114165 -0.385504 0.755781 
2966 3 -523.984 640.276 -639.121 0.749124 0.170022 -0.444285 0.460995 
2965 1 -504.18 661.554 -658.744 0.764561 0.179891 -0.452667 0.422111 
2955 2 -512.921 562.644 -615.955 0.0205481 0.0118742 -0.762945 -0.646028 
2956 2 -512.939 572.495 -617.101 0.479645 -0.601254 -0.443043 -0.460594 
2957 2 -511.23 582.147 -618.607 0.527782 -0.811924 0.248952 0.0157524 
2958 2 -508.371 590.747 -622.63 0.479831 -0.306383 0.725436 0.386825 
2959 2 -503.353 598.975 -625.107 0.167839 0.327073 0.660154 0.655019 
2960 2 -496.79 606.392 -625.623 -0.375068 0.774655 0.128303 0.492719 
2964 2 -472.353 635.795 -635.322 0.517463 -0.759323 0.257267 -0.299123 
2963 2 -479.176 629.005 -632.88 0.0870594 -0.644371 -0.463001 -0.602359 
2962 2 -485.112 621.875 -629.486 -0.425388 0.00975437 -0.814148 -0.395112 
2961 2 -490.125 613.426 -627.836 -0.65524 0.641121 -0.398752 -0.0249149 
3039 2 -725.449 745.026 -521.428 0.513498 0.130065 -0.724868 -0.440421 
3040 2 -734.222 749.476 -522.444 0.537011 -0.536623 -0.641751 0.108676 
3041 2 -742.174 754.134 -526.097 0.247867 -0.79649 0.0282796 0.550786 
3042 2 -750.671 758.404 -528.956 -0.218117 -0.514305 0.654295 0.509719 
3043 2 -758.653 762.747 -532.785 -0.641637 0.216567 0.69231 0.249214 
3044 2 -766.528 768.69 -533.482 -0.416104 0.688255 0.321916 -0.499532 
3045 2 -776.045 771.1 -534.694 0.0422372 0.719686 -0.191539 -0.666018 
3038 2 -717.007 740.089 -520.099 -0.0714653 0.683435 -0.316237 -0.654067 
3037 2 -708.182 735.842 -518.348 -0.479997 0.696866 0.376496 -0.377137 
3036 2 -698.731 733.971 -516.34 -0.631793 0.149827 0.760179 0.0227483 
3035 2 -689.188 731.935 -514.584 -0.392124 -0.482983 0.580292 0.525573 
3022 2 -565.815 729.015 -523.817 -0.722799 -0.242354 0.641898 -0.0824209 
3021 2 -557.604 734.544 -524.453 -0.512766 -0.682861 0.141099 0.500862 
3024 2 -584.608 724.453 -523.933 0.0535153 0.632235 -0.187945 -0.749728 
3023 2 -574.837 724.884 -523.259 -0.46905 0.508798 0.509558 -0.511338 
3025 2 -594.261 726.263 -522.862 0.697123 0.332928 -0.476986 -0.419121 
3026 2 -603.71 726.188 -519.872 0.781332 -0.25954 -0.488005 0.289847 
3027 2 -612.705 727.449 -515.797 0.27391 -0.587835 -0.239873 0.722416 
3073 1 -701.268 931.249 -553.067 0.696457 0.370977 -0.0942468 0.606994 
3074 3 -689.718 908.127 -529.399 0.681263 0.385086 -0.107905 0.613144 
3075 2 -741.074 912.592 -535.73 -0.882906 -0.458261 -0.100275 0.0204551 
3076 2 -739.082 905.146 -529.576 -0.543839 -0.381357 0.157813 -0.730686 
3077 2 -735.447 898.616 -523.104 0.330037 -0.156535 0.250523 -0.896555 
3078 2 -731.156 895.541 -514.753 0.911923 -0.0722762 0.307197 -0.262302 
3129 2 -658.664 987.163 -563.719 -0.823984 0.138563 -0.51167 -0.200112 
3072 2 -654.407 934.085 -557.347 -0.39623 0.904546 -0.0726959 -0.139692 
3067 2 -647.413 894.74 -528.53 0.129894 -0.210564 -0.850496 -0.464164 
3071 2 -652.098 926.737 -551.052 -0.35599 0.611106 0.672 0.219626 
3068 2 -647.532 903.324 -533.574 0.448961 -0.798576 -0.374373 -0.143369 
3070 2 -649.628 919.51 -544.631 -0.0520104 -0.182435 0.881367 0.43267 
3069 2 -648.348 911.597 -538.906 0.348954 -0.772952 0.44327 0.290322 
3130 2 -651.128 991.812 -559.233 -0.346983 -0.234892 -0.441905 -0.793189 
3127 1 -633.223 958.859 -591.564 0.831021 -0.0888656 0.381678 0.394751 
3126 2 -592.874 939.916 -607.004 0.00506383 0.88415 0.318777 -0.341518 
3125 2 -587.151 942.128 -599.231 -0.236737 0.363866 0.867373 -0.243356 
3124 2 -581.821 943.162 -590.93 -0.277025 -0.454746 0.840585 0.0993955 
3123 2 -577.741 942.746 -581.898 0.00747569 -0.953963 0.190182 0.231796 
3122 2 -575.117 943.324 -572.388 0.0747648 -0.763574 -0.631935 0.109653 
3121 2 -572.878 945.65 -563.026 0.134857 0.0573701 -0.982129 0.118086 
3120 2 -572.76 947.606 -553.279 0.107985 0.828945 -0.548189 0.0260516 
3119 2 -573.554 948.161 -543.425 0.0178432 0.955992 0.292842 -0.00210235 
3128 3 -609.444 971.713 -569.334 0.854089 -0.0407617 0.352966 0.379849 
3118 2 -575.161 947.13 -533.805 0.0734489 0.283389 0.952746 0.0810628 
3131 2 -644.312 996.875 -554.33 0.328621 -0.529889 -0.0869523 -0.776959 
3132 2 -636.8 1001.85 -550.103 0.7627 -0.413345 0.400286 -0.295306 
3117 2 -575.434 944.401 -524.301 0.0746979 -0.526503 0.84204 0.0904653 
3133 2 -628.536 1005.97 -546.43 0.639012 0.0867766 0.691985 0.324484 
3066 2 -650.849 886.565 -524.148 -0.443277 0.454899 -0.71635 -0.288816 
3065 2 -653.977 878.508 -519.383 -0.485437 0.842119 -0.199467 0.124091 
3116 2 -577.392 941.505 -514.957 0.159311 -0.970226 0.163648 -0.0806325 
3134 2 -619.216 1009.21 -546.062 0.115201 0.527237 0.43777 0.719102 
3064 2 -660.288 872.583 -514.56 -0.0602724 0.716935 0.477357 0.504482 
3135 2 -610.758 1014.3 -545.089 -0.464334 0.72694 -0.085736 0.4986 
3136 2 -602.988 1020.51 -545.058 -0.75228 0.292894 -0.574322 -0.135802 
3137 2 -595.407 1026.58 -543.029 -0.271099 -0.296997 -0.648334 -0.646499 
3138 2 -587.988 1033.21 -542.936 0.294151 -0.636669 -0.251315 -0.66706 
3139 2 -581 1040.26 -542.955 0.648742 -0.625664 0.317292 -0.294966 
3155 3 -541.34 1125.34 -576.446 -0.898767 -0.285929 0.148933 -0.297121 
3147 2 -525.827 1083.8 -569.152 0.412149 -0.307038 0.857305 0.0298148 
3146 2 -532.979 1080.41 -563.202 0.301717 -0.874403 0.215301 -0.313099 
3145 2 -538.826 1077.4 -555.847 -0.0864774 -0.768535 -0.531926 -0.344864 
3144 2 -543.822 1071.09 -550.039 -0.273424 -0.00239601 -0.901092 -0.336551 
3143 2 -551.593 1065.57 -547.331 -0.546492 0.629307 -0.539071 0.121335 
3142 2 -559.429 1060.52 -544.224 -0.220267 0.792515 0.168211 0.543238 
3141 2 -566.204 1053.4 -542.649 0.177082 0.356533 0.659566 0.637573 
3140 2 -573.944 1047.26 -543.401 0.658511 -0.136864 0.658387 0.337872 
3154 1 -536.546 1147.51 -603.094 -0.888803 -0.304601 0.102829 -0.326609 
3161 2 -558.979 1143.39 -541.054 -0.533025 -0.257729 0.21174 -0.777577 
3162 2 -557.08 1137.22 -533.453 0.236654 0.0224294 0.394644 -0.887551 
3160 2 -563.445 1149.52 -547.348 -0.902435 -0.349633 -0.244889 -0.0582805 
3163 2 -554.785 1130.19 -526.876 0.89135 0.241839 0.275938 -0.266208 
3148 2 -518.965 1086.91 -575.547 0.198517 0.431864 0.845719 0.242577 
3164 2 -551.036 1124.43 -519.631 0.761459 0.323986 -0.0540679 0.55883 
3159 2 -565.983 1155.75 -554.606 -0.667163 -0.148818 -0.371066 0.628535 
3158 2 -567.547 1160.97 -562.912 0.0740122 0.0781514 -0.235187 0.965972 
3149 2 -514.139 1089.51 -583.838 -0.193356 0.932846 0.195942 0.232418 
3150 2 -510.998 1094.02 -592.064 -0.345637 0.70046 -0.618631 -0.0847756 
3151 2 -508.064 1099.88 -599.428 -0.133632 -0.00731749 -0.849496 -0.510338 
3152 2 -505.605 1108.1 -604.241 0.206529 -0.653998 -0.569931 -0.452561 
3153 2 -501.833 1116.01 -608.749 0.486726 -0.844747 0.190887 -0.11429 
3157 2 -571.054 1163.48 -571.821 0.777591 0.227571 0.0541757 0.583634 
3156 2 -574.206 1165.28 -581.032 0.942689 0.00621651 0.178533 -0.281826 
1723 1 70.3483 -867.84 -421.976 -0.43841 -0.126996 -0.513461 -0.726654 
1722 2 88.4406 -841.786 -456.878 -0.513025 -0.166014 0.83127 -0.135037 
1724 3 93.4408 -847.275 -405.513 -0.409616 -0.126633 -0.438195 -0.79004 
1725 2 66.4348 -881.402 -376.94 0.363983 -0.393342 -0.417922 -0.73358 
1726 2 69.4905 -872.692 -373.473 0.834619 -0.526282 0.122992 -0.106355 
1727 2 72.5115 -864.167 -369.48 0.545715 -0.179029 0.522269 0.63038 
1728 2 75.4714 -855.38 -366.07 -0.223859 0.296342 0.524574 0.766088 
1729 2 78.2922 -846.115 -363.952 -0.725123 0.573914 0.0832993 0.371323 
1721 2 96.5668 -837.702 -452.828 -0.395824 -0.784785 0.285275 0.38217 
1720 2 104.298 -832.85 -448.901 0.0544817 -0.682439 -0.454356 0.569973 
1719 2 110.71 -829.147 -442.308 0.333307 -0.1535 -0.893501 0.258843 
1718 2 118.546 -828.258 -436.324 0.398434 0.47041 -0.754755 -0.224296 
1717 2 124.448 -827.489 -428.445 0.0636446 0.947695 -0.110407 -0.292633 
1716 2 129.039 -826.735 -419.656 -0.158527 0.597304 0.770151 -0.158005 
1713 2 144.394 -832.375 -394.912 0.256775 -0.863605 -0.377256 0.214314 
1714 2 138.527 -830.33 -402.661 -0.0217521 -0.843444 0.458481 0.27915 
1715 2 133.724 -828.397 -411.109 -0.234583 -0.180993 0.947992 0.116293 
1683 2 228.909 -853.601 -378.667 0.899705 0.123082 -0.358639 0.216239 
1682 2 233.191 -847.445 -385.154 0.774178 0.399173 -0.0135206 -0.491047 
1681 2 239.075 -840.136 -388.556 0.20437 0.443651 0.307587 -0.816576 
1712 2 148.414 -830.636 -386.007 0.177982 -0.239449 -0.946127 0.125824 
1684 2 223.353 -857.525 -371.48 0.406066 -0.23873 -0.32088 0.821678 
1680 2 245.596 -832.753 -389.376 -0.443965 0.118478 0.665163 -0.588571 
1685 2 217.333 -860.99 -364.397 -0.387569 -0.509133 0.00892414 0.768436 
1711 2 155.2 -827.914 -379.366 0.42877 0.545683 -0.709137 -0.124542 
1710 2 163.049 -824.785 -374.077 0.145555 0.877027 0.0692781 -0.452591 
1709 2 170.291 -819.921 -369.378 -0.206058 0.437703 0.716111 -0.503131 
1679 2 250.809 -824.427 -387.967 -0.66634 -0.525274 0.515135 -0.121299 
1775 2 60.6536 -672.189 -509.601 0.0258239 0.584998 -0.810419 0.0182214 
1779 2 39.3312 -761.67 -512.416 0.079069 -0.197374 0.0713319 0.974527 
1780 2 35.8735 -759.213 -503.404 -0.780302 0.0569441 0.265334 0.563458 
1781 2 32.2343 -755.675 -494.884 -0.935133 0.143685 0.0324236 -0.322228 
1782 2 30.2921 -753.62 -485.345 -0.332038 0.0616026 -0.108759 -0.934948 
1794 2 7.85454 -696.926 -386.803 -0.582916 -0.0820279 0.326466 0.739527 
1783 2 30.1028 -751.369 -475.691 0.492448 -0.166737 -0.0546365 -0.852472 
1793 2 11.5719 -701.873 -394.618 0.279267 -0.253298 0.18952 0.906605 
1795 2 2.52153 -692.982 -379.496 -0.957507 0.238353 0.162201 -0.00773358 
1792 2 13.0544 -707.355 -402.781 0.903295 -0.269855 -0.010241 0.333363 
1778 3 50.3508 -715.161 -491.804 0.221509 -0.025296 0.0353454 0.974189 
1791 2 15.5917 -713.808 -409.837 0.867765 -0.272941 -0.247496 -0.333516 
1789 2 20.7574 -726.016 -424.696 -0.342174 0.281939 -0.217105 -0.869651 
1790 2 17.8951 -719.719 -417.503 0.355725 0.00927302 -0.357122 -0.863619 
1788 2 25.329 -731.511 -431.51 -0.882734 0.377218 0.162908 -0.227922 
1784 2 31.617 -748.451 -466.362 0.963086 -0.173629 -0.0853194 -0.187189 
1787 2 27.7459 -736.706 -439.539 -0.702889 0.125223 0.299096 0.633094 
1786 2 28.6243 -740.21 -448.729 -0.0206165 -0.00561698 0.167352 0.985666 
1785 2 30.4053 -744.551 -457.453 0.718058 -0.225541 0.0835501 0.653103 
1771 2 67.5904 -680.225 -472.958 0.217927 -0.873569 0.39618 0.180074 
1772 2 65.8071 -674.322 -480.678 -0.10788 -0.252479 0.956994 0.0936992 
1773 2 63.4023 -672.629 -490.139 -0.111088 0.608677 0.785577 -0.00634643 
1774 2 61.4407 -671.694 -499.731 0.0605335 0.995313 -0.0668995 -0.0348068 
1770 2 67.4776 -685.936 -464.806 0.290399 -0.835608 -0.455133 -0.1014 
1769 2 69.933 -690.423 -456.378 0.132616 -0.205223 -0.952261 -0.183018 
1768 2 70.6386 -696.007 -448.284 -0.165392 0.618421 -0.730794 -0.236941 
1767 2 72.4287 -702.573 -441.251 -0.349543 0.932519 0.0160848 -0.0892758 
1766 2 73.47 -708.996 -433.75 -0.286323 0.68654 0.638683 0.19689 
1765 2 74.0949 -717.214 -428.409 -0.0228018 -0.0559709 0.883619 0.46429 
1764 2 73.2901 -725.878 -423.624 0.449933 -0.661072 0.531744 0.278913 
1796 2 -0.475634 -687.993 -371.472 -0.673859 0.281645 -0.0348651 -0.682184 
1763 2 76.4112 -734.373 -419.529 0.564715 -0.763506 -0.313169 -0.00899749 
1737 2 69.6857 -771.29 -367.827 -0.610758 0.566521 -0.379002 -0.40297 
1762 2 79.4562 -743.436 -416.833 0.358361 -0.261897 -0.750206 -0.490079 
1761 2 84.5209 -751.71 -414.899 -0.0566491 0.465277 -0.61591 -0.633217 
1810 2 76.1793 -677.11 -371.092 -0.440056 0.830645 0.216742 -0.263445 
1738 2 70.2703 -761.449 -367.512 -0.161302 -0.035167 -0.633869 -0.755616 
1739 2 73.0387 -752.159 -365.811 0.57125 -0.487678 -0.333065 -0.57001 
1740 2 74.5558 -742.711 -363.388 0.722621 -0.633225 0.252543 0.114312 
1811 2 70.4069 -671.252 -376.617 0.0207912 0.650738 -0.489785 -0.579843 
1760 2 90.4896 -758.768 -411.418 -0.459014 0.823281 0.0710688 -0.326289 
1797 2 -3.01026 -682.963 -363.308 0.0249006 0.102471 -0.249737 -0.962555 
1736 2 70.7937 -780.728 -364.971 -0.587325 0.775981 0.209321 0.0953254 
1735 2 71.2938 -790.313 -362.668 -0.281754 0.31402 0.704999 0.570073 
1744 2 94.7665 -710.083 -364.125 -0.746448 0.290891 -0.577211 -0.158194 
1741 2 77.1121 -733.151 -362.558 0.426597 -0.11474 0.676041 0.589761 
1742 2 81.1336 -724.061 -362.913 -0.0998675 0.566842 0.495738 0.650354 
1743 2 87.6264 -716.835 -364.54 -0.548591 0.69069 -0.0740471 0.465308 
1809 2 79.4147 -682.081 -363.15 -0.308693 0.442152 0.826181 0.163203 
1759 2 96.4548 -764.984 -406.599 -0.528205 0.47705 0.694379 0.106115 
1758 2 102.411 -771.426 -402.078 -0.234088 -0.251015 0.827641 0.444077 
1757 2 110.344 -776.993 -399.304 0.189768 -0.758628 0.203718 0.589042 
1756 2 118.739 -780.981 -395.867 0.50989 -0.640237 -0.527521 0.227661 
1755 2 126.239 -783.732 -390.011 0.397859 0.0599033 -0.888152 -0.222049 
1754 2 133.893 -786.267 -384.227 0.177642 0.693207 -0.572952 -0.399542 
1751 3 122.777 -742.781 -374.24 0.141882 -0.761229 -0.224252 0.591702 
1753 2 142.081 -786.224 -378.651 -0.133208 0.846175 0.239168 -0.457211 
1752 2 150.534 -786.689 -373.542 -0.464836 0.415616 0.761629 -0.176384 
1750 1 155.886 -740.982 -363.069 0.108789 -0.762033 -0.191402 0.608963 
1708 2 177.383 -815.284 -364.231 -0.460246 -0.266599 0.838986 -0.114899 
1745 2 102.663 -704.22 -362.71 -0.464755 -0.376416 -0.55075 -0.582227 
1678 2 255.263 -815.915 -385.583 -0.486284 -0.747057 -0.1771 0.417216 
1677 2 259.65 -808.015 -381.48 0.0033219 -0.376533 -0.749206 0.544888 
1676 2 264.591 -800.005 -378.47 0.521797 0.412085 -0.688273 0.290163 
1675 2 269.295 -791.577 -376.232 0.564134 0.786218 -0.131512 -0.215219 
1674 2 272.832 -783.179 -372.542 0.198438 0.529581 0.63738 -0.523368 
1673 2 274.222 -775.145 -367.008 -0.206583 -0.229787 0.84903 -0.428567 
1831 1 -64.0444 -545.573 -411.998 -0.678362 -0.186863 -0.565402 -0.430381 
1833 2 -65.5674 -532.768 -366.607 0.195877 0.537262 0.40667 0.712462 
1834 2 -56.5655 -528.791 -365.431 -0.436632 0.662072 -0.231332 0.56347 
1812 2 62.8653 -666.136 -380.455 0.454793 -0.0765101 -0.827675 -0.319788 
1835 2 -47.6613 -524.661 -365.329 -0.660666 0.236553 -0.708425 -0.0754862 
1836 2 -39.0787 -519.704 -366.253 -0.296967 -0.291996 -0.714701 -0.561917 
1830 2 -42.3004 -551.404 -453.429 -0.496213 0.325595 0.78388 -0.182461 
1829 2 -33.3451 -552.072 -449.27 -0.444982 -0.400125 0.746174 0.291747 
1828 2 -24.9879 -555.719 -445.353 0.0839945 -0.825462 0.19585 0.522686 
1827 2 -17.7921 -560.906 -440.993 0.484016 -0.70925 -0.46908 0.206536 
1823 2 6.09586 -583.505 -419.125 -0.449889 0.444644 0.770676 0.0771369 
1826 2 -11.7891 -566.92 -435.894 0.381342 -0.147488 -0.861888 -0.299958 
1824 2 -0.26238 -578.903 -425.15 -0.359714 0.88102 0.077594 -0.297303 
1825 2 -5.90151 -572.73 -430.509 -0.00545748 0.615426 -0.624811 -0.48045 
1822 2 12.4527 -590.239 -415.585 -0.252552 -0.251312 0.761772 0.541076 
1832 3 -30.5426 -539.131 -404.33 -0.694864 -0.181085 -0.575603 -0.391221 
1821 2 18.5423 -596.339 -410.718 0.198101 -0.820949 0.295339 0.446736 
1820 2 23.155 -604.524 -407.78 0.575104 -0.725743 -0.375925 -0.0351115 
1819 2 28.0881 -612.49 -404.537 0.403611 -0.136907 -0.798677 -0.424817 
1818 2 31.5738 -621.507 -402.352 -0.16295 0.457895 -0.628409 -0.607356 
1817 2 34.8449 -630.098 -398.492 -0.502039 0.837482 -0.0429657 -0.211507 
1816 2 40.1911 -637.594 -394.866 -0.521166 0.526112 0.654848 0.150885 
1815 2 44.8479 -645.762 -391.748 -0.134589 -0.212031 0.769626 0.58703 
1814 2 49.735 -653.366 -387.686 0.286821 -0.770607 0.324368 0.467637 
1813 2 55.6855 -660.198 -383.9 0.574069 -0.680938 -0.453782 0.0291505 
1928 2 -113.809 -376.071 -511.785 0.236129 -0.288767 -0.925362 0.0675451 
1942 2 -168.261 -446.872 -509.856 0.83948 -0.45919 -0.0236632 -0.289582 
1947 2 -157.859 -404.899 -486.201 -0.419776 0.155798 -0.536879 -0.715036 
1948 2 -156.018 -395.822 -482.656 0.400173 -0.302583 -0.511497 -0.697622 
1946 2 -160.708 -413.483 -490.172 -0.837448 0.502366 -0.203111 -0.0710987 
1943 2 -166.394 -438.689 -504.441 0.718805 -0.304872 0.412863 0.468952 
1944 2 -163.619 -430.527 -499.446 0.0938476 0.137601 0.511055 0.843257 
1945 2 -160.621 -422.142 -495.035 -0.691438 0.379342 0.337331 0.514025 
1907 2 -72.9714 -436.746 -481.073 0.259031 -0.00686218 -0.731875 0.63025 
1908 2 -76.344 -446.004 -481.742 -0.341751 -0.498519 -0.330319 0.724965 
1909 2 -81.4478 -453.967 -479.016 -0.812888 -0.511402 0.109643 0.256242 
1913 3 -96.201 -427.208 -443.508 -0.284607 0.207193 -0.790652 -0.500939 
1910 2 -86.0652 -461.931 -475.182 -0.659869 -0.258421 0.530157 -0.465537 
1911 2 -91.0111 -470.014 -472.188 -0.152355 0.183956 0.559929 -0.793364 
1949 2 -155.183 -386.354 -479.865 0.754001 -0.637861 -0.0481941 -0.149313 
1912 1 -106.89 -457.465 -429.552 -0.289945 0.221202 -0.795457 -0.483994 
1915 2 -115.476 -417.926 -401.416 0.333252 -0.729825 -0.496926 -0.330701 
1914 2 -116.896 -425.953 -395.891 -0.0949337 -0.0958825 -0.87478 -0.465353 
1916 2 -113.512 -409.816 -406.752 0.542788 -0.811472 0.208528 0.0583938 
1917 2 -113.066 -400.752 -410.611 0.156034 -0.432656 0.82234 0.334993 
1918 2 -113.648 -393.761 -417.639 -0.0910034 0.413491 0.871767 0.246509 
1919 2 -112.901 -388.808 -426.129 -0.176336 0.969383 0.170827 0.00445171 
1920 2 -112.698 -385.616 -435.455 -0.139725 0.745775 -0.650959 0.0234453 
1950 2 -154.272 -376.73 -478.025 0.630042 -0.474946 0.340858 0.511164 
1921 2 -110.1 -383.726 -444.842 -0.0814072 -0.044227 -0.988694 -0.117903 
1922 2 -108.338 -381.479 -454.229 0.0405452 -0.868608 -0.476692 -0.128995 
1923 2 -106.73 -379.385 -463.74 0.0720817 -0.938648 0.337259 -0.000210487 
1926 2 -106.709 -376.959 -493.397 -0.0182077 0.98978 0.00828535 -0.141191 
1927 2 -109.243 -376.194 -502.999 0.163399 0.57801 -0.776492 -0.190433 
1906 2 -68.6219 -428.481 -478.069 0.557631 0.556431 -0.591292 0.172644 
1925 2 -106.844 -377.716 -483.441 0.0130855 0.659662 0.750841 0.0302134 
1924 2 -106.522 -377.894 -473.548 -0.0366743 -0.224159 0.973843 0.00607894 
1905 2 -63.8771 -420.557 -474.149 0.484294 0.820347 -0.0151258 -0.303746 