ITEM: TIMESTEP
10000000
ITEM: NUMBER OF ATOMS
4067
ITEM: BOX BOUNDS pp pp pp
-4.6310929470000001e+03 4.6704658980000004e+03
-4.6310929470000001e+03 4.6704658980000004e+03
-4.6310929470000001e+03 4.6704658980000004e+03
ITEM: ATOMS id type x y z c_q[1] c_q[2] c_q[3] c_q[4] 
3045 2 -126.785 245.491 -402.065 0.129348 -0.680303 -0.664985 0.279737 
3044 2 -121.425 247.229 -393.867 0.295064 0.0344099 -0.950129 0.094909 
3043 2 -115.677 249.568 -386.18 0.299484 0.68986 -0.647598 -0.122554 
3042 2 -110.138 249.566 -377.964 -0.0376828 0.945076 0.0168234 -0.324235 
3041 2 -103.375 251.056 -370.92 -0.257057 0.507081 0.775918 -0.273388 
3046 1 -146.677 288.246 -404.338 -0.887839 0.071659 -0.45426 0.0159343 
3047 3 -118.459 293.488 -384.309 -0.88476 0.080832 -0.45878 0.0136896 
3048 2 -150.435 333.739 -392.315 0.605524 0.319353 0.498488 0.53185 
3049 2 -141.013 335.556 -389.316 -0.0791143 0.556039 0.138893 0.815641 
3050 2 -132.1 338.581 -386.281 -0.597728 0.383763 -0.360447 0.604587 
3051 2 -123.214 339.224 -382.002 -0.844112 -0.0529011 -0.52915 -0.0683851 
3052 2 -114.333 339.161 -377.801 -0.467281 -0.576764 -0.211119 -0.635941 
3057 2 -67.0485 330.982 -369.689 -0.649623 0.377175 -0.555721 0.356233 
3054 2 -96.1347 332.84 -372.902 0.72485 -0.012769 0.638519 -0.258306 
3055 2 -86.7244 330.186 -371.209 0.605195 0.370754 0.572681 0.410266 
3056 2 -76.9963 330.266 -369.446 -0.0606742 0.705879 -0.0145659 0.705579 
3053 2 -105.221 336.266 -375.031 0.178162 -0.535946 0.303337 -0.767468 
3040 2 -96.4322 251.404 -363.875 -0.378245 -0.255232 0.884481 0.097373 
3058 2 -57.2647 332.56 -369.1 -0.674192 -0.190181 -0.658156 -0.27591 
3073 1 67.7542 349.495 -430.337 0.669102 -0.522628 -0.404401 0.340032 
3074 3 38.8474 367.102 -421.426 0.690357 -0.52243 -0.367868 0.339334 
3070 2 53.2012 357.896 -378.877 -0.262488 0.672779 -0.412421 0.555316 
3071 2 62.5916 356.264 -381.53 -0.590551 0.0925699 -0.782104 0.17605 
3075 2 44.8394 354.115 -471.287 0.591008 -0.592808 -0.168595 0.520446 
3076 2 36.7707 359.118 -468.334 -0.0442299 -0.486175 0.417407 0.766452 
3077 2 29.1297 365.137 -466.366 -0.63796 0.0789419 0.583037 0.496832 
3078 2 22.682 371.912 -463.348 -0.842397 0.447575 0.189703 -0.232501 
3079 2 17.0958 378.403 -458.278 -0.468673 0.410071 -0.20025 -0.756365 
3080 2 13.4943 385.463 -452.297 0.299244 0.049889 -0.444152 -0.843026 
3081 2 9.99025 392.788 -446.602 0.774263 -0.370109 -0.372994 -0.352719 
3066 2 14.5127 361.033 -372.52 0.0357974 -0.769897 0.00691807 -0.637126 
3065 2 4.73914 360.073 -371.531 -0.536891 -0.392365 -0.609684 -0.431374 
3064 2 -4.34957 356.853 -369.405 -0.661713 0.280169 -0.69536 0.010785 
3061 2 -29.1655 340.842 -369.818 0.649577 -0.151871 0.671644 0.322303 
3060 2 -38.1034 336.674 -369.17 0.578747 -0.635256 0.36296 -0.360226 
3059 2 -47.5132 333.497 -368.512 -0.0413569 -0.678057 -0.271523 -0.681765 
3063 2 -13.3802 352.773 -368.975 -0.41999 0.711084 -0.17061 0.537457 
3062 2 -21.2084 346.714 -369.226 0.126868 0.434529 0.526069 0.719959 
3072 2 72.1225 354.467 -383.576 -0.553795 -0.49849 -0.595711 -0.299912 
3069 2 43.5167 359.478 -377.154 0.295645 0.716626 0.296583 0.557745 
3068 2 33.9603 361.392 -375.573 0.625652 0.221015 0.746342 0.0518209 
3067 2 24.1815 361.607 -374.385 0.523609 -0.408578 0.644457 -0.378911 
3110 2 -71.5907 504.708 -407.885 -0.262099 0.164089 0.289895 -0.905726 
3111 2 -76.2394 500.618 -400.097 0.591962 0.423411 -0.0629869 -0.682889 
3112 2 -83.073 496.583 -394.083 0.906783 0.115505 -0.363555 0.179531 
3113 2 -89.3723 492.893 -387.32 0.421163 -0.265232 -0.332047 0.80126 
3114 2 -96.5979 489.787 -381.203 -0.290555 -0.474475 0.0100039 0.830874 
3109 2 -67.7015 508.151 -416.257 -0.895882 -0.0883518 0.264263 -0.346056 
3115 2 -104.521 487.475 -375.808 -0.80141 -0.324823 0.425251 0.267198 
3116 2 -112.721 484.214 -371.312 -0.679159 0.187235 0.564333 -0.430366 
3117 2 -121.745 481.887 -367.828 0.0337969 0.547149 0.147977 -0.823158 
3118 2 -130.43 478.68 -364.481 0.706669 0.463704 -0.309299 -0.435812 
3108 2 -67.2168 511.811 -425.49 -0.832314 -0.197468 -0.0673261 0.513544 
3107 2 -65.1562 515.477 -434.384 -0.0354039 -0.152732 -0.156092 0.97522 
3106 2 -61.4451 520.023 -442.273 0.688478 0.0215184 -0.321865 0.649567 
3105 2 -58.2149 526.083 -449.419 0.927145 0.323886 -0.17721 -0.0640064 
3082 2 7.2081 401.191 -442.103 0.818588 -0.487919 0.0818994 0.291791 
3104 2 -53.9176 533.069 -454.849 0.567785 0.432044 0.165157 -0.680941 
3083 2 5.68081 409.302 -436.6 0.368064 -0.159588 0.342083 0.849729 
3103 2 -50.2811 541.819 -457.682 -0.144759 0.119862 0.61698 -0.764208 
3084 2 5.22919 416.503 -429.856 -0.444906 0.07528 0.404922 0.795254 
3102 2 -47.1703 550.832 -460.343 -0.705372 -0.407171 0.461682 -0.351444 
3085 2 2.81242 423.883 -423.677 -0.82652 0.505907 0.191957 0.155162 
3086 2 0.989846 432.646 -419.243 -0.632043 0.457312 -0.281165 -0.558869 
3101 3 -28.2862 528.892 -417.337 0.431921 0.0984317 -0.586876 0.677741 
3095 2 -0.419575 511.999 -384.878 0.207275 -0.354881 -0.566146 -0.714545 
3096 2 2.26404 521.512 -383.9 0.640213 -0.750617 -0.00458645 -0.163339 
3094 2 -2.77717 502.551 -386.262 -0.382015 0.186625 -0.614401 -0.664641 
3093 2 -3.97691 493.099 -388.77 -0.748612 0.583204 -0.238654 -0.206147 
3092 2 -5.43844 483.966 -392.509 -0.718991 0.522118 0.194772 0.415342 
3097 2 4.83631 531.006 -384.865 0.46875 -0.460906 0.621843 0.425617 
3091 2 -7.59618 475.62 -397.371 -0.117 0.189662 0.453672 0.862856 
3090 2 -8.26462 466.831 -401.774 0.463484 -0.219014 0.464411 0.722176 
3089 2 -5.13479 458.546 -406.385 0.826253 -0.528708 -0.0712262 0.180835 
3088 2 -2.84281 449.677 -409.906 0.628401 -0.350814 -0.434188 -0.541778 
3087 2 -0.748697 441.309 -414.766 0.0398909 0.0851319 -0.514502 -0.85232 
3098 2 6.72378 540.69 -386.339 -0.0950093 0.176454 0.696852 0.688647 
3099 2 7.84499 550.531 -386.821 -0.588605 0.637924 0.305796 0.391261 
3148 2 -217.428 569.435 -384.646 -0.104444 -0.767241 0.560656 0.293423 
3149 2 -223.213 571.771 -392.418 -0.316958 0.0712595 0.920704 0.216249 
3150 2 -228.959 575.929 -399.336 -0.302839 0.725354 0.612916 -0.0805242 
3154 1 -283.982 593.139 -399.678 -0.81676 -0.302265 -0.199694 -0.449067 
3155 3 -262.456 580.959 -374.907 -0.799318 -0.298771 -0.173662 -0.491598 
3153 2 -244.105 584.41 -423.351 0.27142 -0.295361 -0.915232 -0.0380081 
3152 2 -239.23 582.075 -415.06 0.153333 0.457555 -0.839186 -0.250799 
3151 2 -233.522 579.388 -407.368 -0.0931685 0.926306 -0.132016 -0.340365 
3147 2 -209.897 565.862 -379.296 0.285384 -0.872247 -0.119033 0.37891 
3146 2 -202.53 563.584 -373.075 0.455065 -0.427647 -0.779632 0.0469852 
3145 2 -196.658 559.289 -366.435 0.182174 0.395033 -0.822103 -0.367298 
3100 1 -15.1169 559.961 -426.949 0.500312 0.183271 -0.548816 0.644128 
904 2 78.6541 -770.766 -231.145 -0.567818 0.786052 0.218326 0.109719 
905 2 77.3025 -761.455 -234.19 -0.526855 0.497372 -0.496763 -0.477779 
906 2 78.3741 -751.651 -234.367 -0.059598 -0.07383 -0.579595 -0.809362 
903 2 81.4166 -778.176 -225.123 -0.302352 0.288774 0.848766 0.323711 
907 2 79.6089 -742.413 -230.883 0.597734 -0.477363 -0.310107 -0.56451 
908 2 81.0944 -733.506 -227.027 0.877238 -0.369794 0.125334 0.27928 
909 2 81.6032 -726.419 -220.087 0.313982 -0.00447374 0.353772 0.881045 
902 2 85.2616 -784.92 -219.06 0.0111264 -0.421374 0.782827 0.457713 
910 2 83.2716 -720.378 -212.375 -0.604468 0.170469 0.225371 0.744826 
901 2 91.0256 -788.436 -211.782 0.177185 -0.934148 0.0197938 0.309161 
961 2 81.5388 -673.11 -209.268 -0.157941 -0.620078 0.364965 0.676283 
962 2 72.3356 -669.765 -210.037 -0.705685 -0.0672127 0.647031 0.280788 
995 3 219.308 -692.027 -260.014 0.601489 -0.595494 -0.513007 -0.142904 
988 2 180.051 -677.064 -233.362 0.204455 -0.075696 0.569738 -0.792381 
989 2 183.771 -685.81 -230.521 0.740172 0.337685 0.461536 -0.353693 
990 2 188.36 -694.045 -227.511 0.719519 0.564914 0.0374854 0.402193 
991 2 193.461 -701.698 -223.819 0.223595 0.439677 -0.408824 0.767823 
994 1 233.904 -723.138 -253.517 0.628301 -0.580481 -0.499887 -0.13562 
992 2 197.833 -709.99 -220.618 -0.475664 -0.0926689 -0.614195 0.622832 
993 2 202.378 -718.513 -218.665 -0.775097 -0.575866 -0.246303 -0.0832891 
1023 2 208.613 -671.085 -216.448 0.5494 -0.708011 0.0708832 -0.438014 
987 2 175.685 -668.244 -233.376 -0.416205 -0.623664 0.324507 -0.576639 
1000 2 251.377 -669.481 -283.253 -0.590364 0.652864 -0.00646898 -0.474548 
999 2 253.625 -678.997 -284.92 -0.715127 0.562896 0.340159 0.236714 
998 2 253.947 -688.641 -287.209 -0.241604 0.214894 0.590957 0.739065 
997 2 254.995 -698.208 -289.722 0.410371 -0.361077 0.491371 0.678066 
996 2 258.206 -707.492 -290.776 0.761549 -0.633958 -0.0877385 0.10219 
1001 2 245.237 -661.74 -282.462 0.0747021 0.439991 -0.513014 -0.733242 
986 2 169.885 -660.276 -232.227 -0.651014 -0.679179 -0.331071 -0.0727272 
985 2 164.047 -652.374 -230.89 -0.460166 -0.139955 -0.745219 0.461853 
984 2 157.297 -645.595 -228.327 0.0481299 0.600791 -0.496123 0.624976 
1002 2 238.044 -654.988 -281.615 0.671825 -0.124004 -0.646105 -0.340327 
1003 2 230.335 -648.8 -280.665 0.619667 -0.612735 -0.395426 0.290185 
1004 2 222.388 -642.991 -280.933 0.157445 -0.68727 0.21495 0.675771 
1005 2 213.718 -638.134 -281.589 -0.451016 -0.31054 0.698658 0.460464 
1006 2 204.759 -634.349 -283.445 -0.634272 0.364322 0.681884 -0.00128462 
1007 2 196.138 -629.911 -284.838 -0.381468 0.698172 0.239457 -0.556505 
1008 2 186.895 -626.605 -285.946 0.117681 0.419665 -0.392029 -0.810152 
1009 2 179.36 -621.109 -282.505 0.746146 -0.119074 -0.431851 -0.492537 
1010 2 174.073 -615.363 -276.321 0.903644 -0.301036 -0.170198 0.252663 
1011 2 168.915 -610.842 -269.116 0.293317 -0.213787 0.0756103 0.928732 
1012 2 165.245 -608.361 -260.237 -0.506145 -0.0258875 0.232981 0.82998 
1013 2 162.502 -604.757 -251.4 -0.989815 0.0268194 0.0784018 0.115755 
1050 2 214.903 -603.537 -280.889 -0.545995 0.205523 0.214055 -0.783473 
1051 2 209.592 -604.213 -272.532 0.233853 0.24833 -0.0606109 -0.938068 
1052 2 204.559 -604.735 -264.062 0.863795 0.0802601 -0.368568 -0.334027 
1053 2 197.685 -603.475 -257.106 0.792442 -0.304323 -0.248666 0.466465 
1054 2 191.247 -600.409 -250.149 0.237699 -0.313079 0.168634 0.903905 
1055 2 186.139 -595.499 -243.194 -0.582659 0.00706224 0.282208 0.762114 
1048 1 202.708 -561.334 -298.078 -0.0146734 -0.0683409 0.0512363 0.996237 
1049 3 197.837 -557.646 -263.683 0.0302143 -0.0748404 0.0713268 0.994182 
1014 2 160.553 -603.928 -241.71 -0.752239 0.104047 0.0196264 -0.650327 
1015 2 158.677 -603.275 -231.99 0.0893141 0.081441 0.0268483 -0.992305 
1038 2 213.165 -537.658 -218.994 0.28156 -0.789709 0.335479 0.429578 
1056 2 182.722 -590.472 -235.387 -0.974778 0.202801 0.0908582 0.0205881 
983 2 149.771 -639.169 -227.583 0.470751 0.741763 0.0733091 0.472024 
1039 2 208.068 -530.877 -224.169 -0.152714 -0.222466 0.897796 0.348067 
1057 2 181.079 -586.531 -226.503 -0.52479 0.140447 -0.238404 -0.805005 
982 2 142.537 -633.916 -223.329 0.506927 0.439514 0.739473 -0.0550631 
1040 2 203.959 -525.277 -231.203 -0.365115 0.564582 0.736124 0.077844 
1016 2 157.165 -604.573 -222.297 0.759894 0.0283836 -0.0866324 -0.643623 
1024 2 215.369 -663.928 -217.147 0.654582 -0.388301 0.600992 0.244034 
1025 2 221.304 -655.946 -217.266 0.190004 0.262806 0.578721 0.748274 
1026 2 227.118 -648.132 -215.308 -0.532489 0.637584 0.174584 0.528642 
1037 2 216.966 -545.736 -214.53 0.526258 -0.809217 -0.256298 0.0503236 
981 2 137.373 -629.185 -216.214 0.156936 -0.355096 0.860338 -0.330297 
1041 2 199.592 -520.566 -238.77 -0.250839 0.9427 0.0737578 -0.207258 
1058 2 181.479 -581.439 -218.018 0.32809 -0.0936217 -0.163285 -0.925705 
1017 2 155.481 -604.013 -212.583 0.95079 0.0406848 -0.186017 0.244421 
1047 2 187.308 -516.942 -294.132 -0.0651993 0.491053 0.859989 -0.122617 
1027 2 231.609 -639.47 -213.819 -0.702862 0.601624 -0.333798 -0.180591 
1028 2 234.245 -630 -212.794 -0.227665 0.155883 -0.617964 -0.736199 
1042 2 195.532 -515.872 -246.434 -0.0236164 0.660389 -0.733693 -0.158188 
1046 2 189.668 -515.656 -284.577 -0.142282 -0.294881 0.944601 -0.0229993 
1029 2 235.05 -620.425 -210.258 0.487606 -0.28418 -0.609097 -0.55721 
1036 2 217.689 -555.1 -211.147 0.362056 -0.437894 -0.703532 -0.426857 
1030 2 232.509 -610.946 -209.074 0.757731 -0.635938 -0.101265 0.1057 
1077 2 275.166 -537.075 -215.627 -0.814387 0.0457769 -0.215049 -0.537059 
1075 1 278.818 -583.766 -209.705 -0.962917 0.141712 0.136295 0.184752 
1043 2 193.566 -512.995 -255.669 -0.0130236 -0.0378408 -0.998385 -0.0403226 
1045 2 192.428 -513.826 -275.224 -0.151107 -0.907945 0.373887 0.114067 
1044 2 193.315 -512.383 -265.481 -0.0116429 -0.831303 -0.552903 0.0556551 
1318 1 224.219 -443.817 -224.09 0.455302 -0.486503 0.233351 0.70821 
1315 2 247.781 -397.615 -212.228 0.218803 0.866857 0.447974 -0.00177069 
1347 2 239.067 -369.789 -218.204 0.309512 -0.682693 -0.0883408 0.655994 
1348 2 229.729 -366.482 -217.964 -0.22286 -0.509062 0.489153 0.672249 
1349 2 220.782 -362.33 -217.634 -0.629702 0.0598317 0.724497 0.273862 
1320 2 182.872 -463.545 -212.638 -0.225954 -0.190402 0.572104 0.765107 
1321 2 178.004 -455.339 -209.967 -0.755811 0.331162 0.500822 0.261264 
1316 2 250.276 -401.61 -220.942 0.167153 0.817367 -0.44651 0.323421 
1317 2 253.604 -407.123 -228.51 -0.126013 0.218508 -0.908269 0.333799 
1350 2 211.974 -357.804 -217.655 -0.645207 0.557653 0.343188 -0.393642 
1366 2 217.446 -225.424 -233.527 -0.379997 -0.281524 -0.745888 -0.469039 
1365 2 210.85 -230.994 -228.679 -0.486264 0.508525 -0.710543 -0.00889606 
1364 2 205.518 -237.769 -223.864 -0.434738 0.856513 -0.0703666 0.269141 
1363 2 201.596 -243.771 -217.133 -0.103827 0.658328 0.63941 0.383379 
1362 2 197.195 -252.332 -214.28 0.345637 -0.0559223 0.784797 0.511372 
1351 2 203.139 -353.698 -215.421 -0.196149 0.518915 -0.310222 -0.77202 
1352 2 196.339 -347.065 -212.945 0.288191 -0.0618661 -0.636464 -0.712764 
1353 2 193.469 -337.763 -211.207 0.674529 -0.571739 -0.388378 -0.259398 
1354 2 191.561 -328.106 -210.965 0.590267 -0.684037 0.236578 0.357364 
1367 2 225.575 -220.71 -236.657 0.0699314 -0.745088 -0.183997 -0.637259 
1407 2 241.288 -261.058 -279.836 0.870553 0.112138 0.0142117 -0.478917 
1408 2 241.141 -262.745 -270.134 0.887779 0.0590123 -0.00974309 0.456367 
1409 2 241.744 -263.504 -260.242 0.170805 0.0632422 -0.0584822 0.981533 
1406 2 242.836 -257.436 -288.891 0.194334 0.112271 0.139941 -0.964389 
1410 2 242.714 -264.228 -250.468 -0.672318 0.0037247 -0.154058 0.724045 
1411 2 245.167 -265.918 -241.048 -0.983267 -0.0150067 -0.14607 -0.107816 
1368 2 234.761 -217.929 -238.901 0.611414 -0.62879 0.392383 -0.277185 
1405 2 245.195 -253.759 -297.83 -0.656732 -0.00955737 0.238767 -0.715264 
1412 2 247.829 -265.73 -231.563 -0.552487 -0.197674 -0.113951 -0.801685 
1369 2 242.966 -212.402 -239.578 0.559816 -0.18058 0.667434 0.456649 
1355 2 189.165 -318.495 -210.855 0.0886155 -0.187824 0.670582 0.712172 
1361 2 193.256 -261.221 -212.647 0.657003 -0.638986 0.386034 0.104982 
1356 2 187.712 -308.677 -210.662 -0.49671 0.392711 0.506177 0.585527 
1404 2 250.116 -249.016 -305.035 -0.917655 -0.312875 0.225012 0.096889 
1387 2 263.236 -300.988 -218.952 0.309425 0.846078 0.426993 0.0780027 
1388 2 267.518 -305.559 -226.627 0.0591977 0.888348 -0.386288 0.24107 
1403 2 254.702 -245.346 -313.053 -0.439839 -0.30325 -0.0404705 0.844359 
1389 2 271.778 -309.091 -234.848 -0.0800796 0.227004 -0.948154 0.207513 
1402 2 262.034 -240.907 -317.975 0.335395 -0.279113 -0.421025 0.795201 
1390 2 273.835 -312.436 -243.879 -0.291283 -0.548668 -0.781883 -0.0527001 
1398 2 330.921 -297.644 -292.138 0.178218 -0.841212 -0.179878 -0.477749 
1397 2 323.646 -302.212 -287.184 -0.218844 -0.445369 -0.745356 -0.445193 
1399 1 307.395 -263.618 -314.767 0.860649 0.0452357 -0.423997 0.278322 
1396 2 316.148 -306.613 -282.433 -0.504921 0.314948 -0.799108 -0.0853685 
1395 2 307.77 -308.59 -277.471 -0.292532 0.803421 -0.32703 0.402481 
1394 2 299.827 -311.379 -272.223 0.149386 0.744631 0.48374 0.434977 
1400 3 283.942 -275.603 -291.609 0.83266 -0.00355599 -0.432643 0.345667 
1393 2 292.117 -314.005 -266.684 0.433862 0.0545639 0.884143 0.164554 
1392 2 284.81 -314.591 -260.06 0.298908 -0.660813 0.608951 -0.321183 
1391 2 278.228 -314.518 -252.593 -0.0488337 -0.936147 -0.0645394 -0.342167 
1477 2 305.083 -264.278 -224.269 -0.0905906 0.838912 0.440677 -0.306307 
1478 2 298.973 -265.463 -231.963 0.14734 0.817816 -0.413551 -0.372079 
1479 2 291.626 -265.115 -238.627 0.383268 0.1864 -0.899523 -0.0960168 
1433 2 324.85 -248.955 -252.682 0.678784 -0.215668 -0.428756 -0.555795 
1432 2 328.085 -257.705 -256.149 -0.0659864 0.235129 -0.52588 -0.814746 
1431 2 332.908 -266.052 -258.69 -0.652155 0.59561 -0.0742387 -0.463068 
1430 2 339.085 -273.833 -259.011 -0.68678 0.480589 0.536325 0.0986054 
1429 2 345.088 -281.473 -256.851 -0.239755 -0.173231 0.780992 0.550055 
1428 2 352.774 -287.528 -255.367 0.2175 -0.707899 0.282756 0.609608 
1434 2 321.657 -241.574 -246.882 0.841142 -0.486184 0.0200438 0.236016 
1435 2 319.784 -233.631 -241.305 0.352204 -0.214465 0.318776 0.853428 
1401 2 269.445 -236.904 -323.227 0.849275 0.151169 -0.460685 0.208925 
1436 2 318.676 -226.631 -234.334 -0.410871 0.168833 0.330329 0.832804 
1480 1 294.88 -221.995 -257.509 0.795485 -0.139495 0.476014 -0.348075 
1481 3 323.203 -223.924 -236.995 0.822606 -0.182409 0.434194 -0.318626 
1413 2 252.218 -265.718 -222.618 0.273052 -0.368818 -0.070492 -0.88569 
1414 2 258.391 -263.317 -215.257 0.777334 -0.156344 0.371612 -0.482921 
1476 2 312.57 -263.643 -217.885 -0.368168 0.296107 0.86456 -0.1712 
1427 3 331.94 -266.213 -212.78 0.689265 -0.59025 -0.374766 0.189917 
1475 2 319.341 -261.083 -211.094 -0.418743 -0.473107 0.774853 0.0206862 
1437 2 319.046 -219.997 -226.984 -0.890519 0.40318 0.166041 0.129815 
1438 2 317.405 -211.966 -221.455 -0.680742 0.428447 -0.146369 -0.575847 
1386 2 259.676 -295.857 -211.314 0.223576 0.190191 0.928264 -0.2284 
1370 2 248.726 -204.445 -238.914 0.040368 0.374369 0.665351 0.644614 
1439 2 314.749 -204.744 -215.128 0.157254 0.1422 -0.364926 -0.906576 
1482 2 316.782 -180.947 -265.442 -0.085539 0.527441 -0.278305 0.798145 
1483 2 325.553 -184.912 -263.036 -0.731873 0.2016 -0.552194 0.344676 
1484 2 334.958 -186.316 -260.12 -0.772367 -0.31772 -0.470565 -0.284732 
1485 2 343.934 -188.811 -256.526 -0.256584 -0.374267 -0.00162122 -0.891115 
1486 2 350.668 -190.902 -249.512 0.491823 -0.160019 0.360976 -0.776016 
1487 2 356.37 -194.474 -242.199 0.945527 0.128116 0.283006 -0.0973251 
1488 2 361.422 -197.765 -234.261 0.722279 0.229837 0.0974492 0.644974 
1371 2 254.178 -196.359 -240.522 -0.447937 0.759947 0.167515 0.440196 
1489 2 365.44 -199.487 -225.336 -0.0895645 0.150258 -0.0438339 0.983605 
1534 1 375.235 -132.257 -231.482 0.840889 0.194837 0.180421 0.471585 
1490 2 368.544 -200.639 -216.052 -0.825369 0.123017 -0.16058 0.527111 
1533 2 418.962 -139.398 -247.728 0.228705 -0.915375 0.230529 0.237991 
1532 2 422.436 -144.792 -240.245 0.329405 -0.794303 -0.510382 -0.00918076 
1531 2 426.586 -149.986 -232.88 0.277267 -0.0669629 -0.919075 -0.271919 
1530 2 427.952 -155.415 -224.725 -0.149288 0.757833 -0.589446 -0.236548 
1529 2 428.889 -161.238 -216.809 -0.334015 0.914521 0.22822 -0.000507906 
2967 2 -202.98 78.0579 -354.069 -0.607338 0.0845001 -0.660357 -0.433508 
2965 1 -184.603 44.4308 -326.634 -0.819664 0.514359 -0.244347 0.0622929 
2964 2 -156.001 28.6451 -292.61 0.280419 0.549601 0.678505 -0.398667 
2963 2 -155.878 37.2299 -287.731 -0.15505 -0.220783 0.841324 -0.468389 
2962 2 -156.791 45.6412 -282.518 -0.447134 -0.835036 0.264279 -0.181501 
2961 2 -156.886 54.2912 -277.805 -0.430188 -0.749901 -0.43822 0.24607 
2960 2 -156.404 63.439 -274.022 -0.100107 -0.191307 -0.799732 0.560186 
2966 3 -169.103 73.6387 -315.046 -0.81341 0.53344 -0.208358 0.101946 
2959 2 -155.24 73.0543 -272.177 0.436641 0.484688 -0.613885 0.444486 
2958 2 -156.964 82.7893 -270.967 0.666878 0.738078 0.0425473 0.093301 
2968 2 -195.44 84.1879 -352.501 -0.016641 -0.508278 -0.428967 -0.746568 
2969 2 -188.055 90.533 -351.294 0.55798 -0.683491 0.107414 -0.458214 
2957 2 -158.59 92.5057 -272.33 0.548 0.383299 0.532806 -0.518552 
2992 1 -20.026 86.2429 -233.709 0.4682 -0.619624 -0.629006 0.0347337 
2994 2 2.28571 88.2394 -275.283 -0.416623 0.775838 -0.303289 -0.364027 
2930 2 -215.971 244.656 -244.87 -0.189499 0.844914 -0.2612 -0.426598 
2929 2 -210.156 240.629 -238.038 -0.349988 0.73197 0.558198 -0.17362 
2970 2 -180.772 97.1757 -350.945 0.76877 -0.263878 0.571234 0.11425 
2928 2 -203.525 235.373 -232.868 -0.414786 0.116329 0.868588 0.244898 
2990 2 -61.9902 99.1159 -211.298 0.515157 -0.206303 0.298516 -0.776493 
2927 2 -197.098 229.032 -228.747 -1.54025e-05 -0.568922 0.608276 0.553469 
2989 2 -69.1765 102.148 -217.365 -0.207091 -0.451346 0.0558639 -0.866187 
2988 2 -76.2401 104.801 -223.834 -0.805257 -0.292334 -0.252981 -0.449559 
2987 2 -79.7394 108.336 -232.424 -0.896295 -0.0968221 -0.232101 0.365253 
2939 3 -204.015 242.625 -291.267 -0.347975 -0.0683609 -0.27311 0.894232 
2986 2 -83.3179 108.603 -241.634 -0.295888 0.158671 -0.111837 0.93529 
2985 2 -85.4649 110.728 -251.131 0.580583 0.107863 -0.0267048 0.806583 
2971 2 -172.733 102.405 -348.767 0.452512 0.165701 0.496624 0.721901 
2972 2 -166.221 107.909 -343.743 -0.24979 0.419495 0.0687207 0.870004 
2973 2 -158.675 110.805 -337.952 -0.817995 0.247617 -0.39081 0.341816 
2974 2 -150.955 112.239 -331.868 -0.805174 -0.119325 -0.387441 -0.432835 
2975 2 -143.498 113.982 -325.56 -0.164095 -0.400184 -0.176363 -0.884207 
2956 2 -160.237 101.955 -274.977 -0.110702 -0.127644 0.57875 -0.79781 
2976 2 -135.943 115.803 -319.471 0.549681 -0.392149 0.287622 -0.679223 
2945 2 -170.998 205.551 -296.727 0.439953 0.196537 -0.485461 0.729481 
2946 2 -172.155 196.747 -292.476 -0.316701 -0.232725 -0.536761 0.746611 
2955 2 -161.914 111.715 -275.413 -0.633919 -0.63474 0.259423 -0.357704 
2947 2 -172.266 187.374 -289.252 -0.760865 -0.606391 -0.117667 0.198818 
2948 2 -172.833 177.755 -286.79 -0.710845 -0.416798 0.255766 -0.505532 
2949 2 -172.436 169.215 -281.833 -0.0615174 -0.127753 0.565746 -0.812297 
2950 2 -171.452 159.963 -278.51 0.56037 0.327921 0.591565 -0.478021 
2951 2 -168.515 150.576 -277.676 0.697408 0.708078 0.10438 0.0367722 
2952 2 -166.705 140.773 -278.522 0.400452 0.446661 -0.533892 0.595895 
2953 2 -165.496 130.951 -278.336 -0.224543 -0.143151 -0.640797 0.720047 
2954 2 -164.573 121.219 -276.882 -0.739769 -0.555606 -0.313831 0.213435 
2977 2 -127.37 116.861 -314.584 0.914603 -0.011708 0.403274 -0.0271063 
2978 2 -120.227 117.304 -307.735 0.634554 0.279906 0.251766 0.674987 
2979 2 -113.696 117.347 -300.285 -0.190175 0.449905 -0.0554068 0.870832 
2980 2 -105.995 117.749 -293.982 -0.857456 0.14599 -0.314375 0.380295 
2981 2 -99.6977 118.286 -286.342 -0.810702 -0.125037 -0.236978 -0.520547 
2982 2 -94.6453 118.555 -277.819 -0.171896 -0.237329 0.0553646 -0.954495 
3009 2 -84.344 198.072 -255.62 0.27716 0.109779 -0.523042 -0.798473 
2944 2 -169.117 213.614 -302.213 0.870493 0.463595 -0.146873 0.0758226 
2943 2 -167.609 221.429 -308.195 0.603734 0.351929 0.256593 -0.667691 
3008 2 -78.1807 191.857 -260.249 -0.39395 0.494319 -0.183034 -0.752961 
2983 2 -89.9109 116.954 -269.296 0.633336 -0.0410751 0.1984 -0.746884 
2984 2 -87.0308 114.481 -260.111 0.977882 0.185615 0.0961464 0.00704633 
3010 2 -89.448 205.646 -251.708 0.79227 -0.354776 -0.414153 -0.273714 
2942 2 -165.711 229.789 -313.088 -0.202665 -0.0140162 0.505096 -0.838814 
3011 2 -94.5438 213.056 -247.461 0.653145 -0.534239 -0.0269992 0.535968 
3012 2 -100.832 219.695 -243.583 0.000936669 -0.405704 0.389075 0.827057 
3013 2 -107.667 225.947 -240.106 -0.638312 0.00610186 0.576047 0.510578 
3014 2 -114.775 231.847 -236.659 -0.79613 0.452309 0.344299 -0.20749 
3007 2 -72.0382 184.739 -263.514 -0.81503 0.484567 0.310392 -0.0676666 
2941 2 -164.772 237.569 -319.041 -0.814359 -0.359452 0.255069 -0.377562 
3015 2 -121.996 237.795 -233.346 -0.445278 0.453456 -0.200696 -0.745538 
3016 2 -127.176 244.501 -228.213 0.192962 0.176822 -0.353661 -0.898011 
3006 2 -65.7069 178.082 -267.211 -0.563368 -0.0243837 0.543035 0.622202 
3005 2 -60.858 170.63 -271.761 0.135284 -0.3669 0.38197 0.837366 
2940 2 -164.9 245.245 -325.338 -0.807955 -0.422891 -0.155965 0.379536 
2926 2 -192.175 222.52 -223.178 0.411228 -0.87298 -0.117633 0.234435 
2925 2 -188.222 215.923 -216.821 0.368368 -0.491185 -0.769998 -0.173627 
2924 2 -183.077 210.778 -210.142 0.158334 0.353747 -0.842125 -0.374992 
3004 2 -55.92 162.669 -274.827 0.672198 -0.609964 -0.00328157 0.419622 
3003 2 -48.5519 156.487 -277.422 0.785456 -0.336189 -0.503693 -0.127788 
2995 2 -1.03644 97.0208 -278.552 -0.0117697 0.204956 -0.724081 -0.658454 
3002 2 -41.2032 150.071 -279.459 0.408981 0.191361 -0.590492 -0.668905 
3001 2 -33.88 143.47 -279.834 -0.310647 0.679658 -0.240614 -0.619409 
2993 3 -40.9363 106.581 -253.055 0.480273 -0.59753 -0.640106 -0.0506049 
3000 2 -26.1061 137.49 -281.363 -0.748993 0.490984 0.402483 -0.189608 
2999 2 -18.0102 131.854 -281.07 -0.524198 -0.0752849 0.722532 0.444405 
2998 2 -11.6104 124.403 -281.437 0.127484 -0.508933 0.45352 0.720454 
2997 2 -6.97796 115.631 -281.635 0.668113 -0.697672 -0.0621625 0.251027 
2996 2 -3.64392 106.422 -280.131 0.523197 -0.422761 -0.631168 -0.386218 
2931 2 -222.021 250.071 -250.685 0.22282 0.319831 -0.825898 -0.407373 
2932 2 -228.295 255.104 -256.434 0.368953 -0.330693 -0.854149 -0.157942 
2933 2 -233.805 260.04 -263.004 0.3288 -0.861786 -0.37634 0.0870822 
2934 2 -237.78 264.506 -270.79 -0.0188888 -0.837157 0.504765 0.209817 
2935 2 -241.014 265.918 -280.062 -0.231745 -0.113384 0.966127 -0.00604897 
2936 2 -245.58 265.451 -288.814 -0.164177 0.693339 0.672533 -0.200065 
2937 2 -250.206 265.22 -297.69 0.0521248 0.946382 -0.198134 -0.249775 
2938 1 -208.971 261.375 -320.342 -0.405719 -0.037199 -0.286646 0.867088 
3017 2 -131.555 250.212 -221.365 0.81323 -0.105585 -0.419613 -0.389144 
3018 2 -137.612 254.932 -215.06 0.801843 -0.372838 -0.142551 0.444656 
3039 2 -90.7651 253.856 -356.167 -0.255151 -0.887296 0.305821 0.232546 
3038 2 -85.4905 254.978 -347.893 0.110457 -0.790658 -0.525244 0.294582 
3037 2 -79.8682 255.952 -339.846 0.271976 -0.105271 -0.9544 0.0637717 
3036 2 -75.9895 256.214 -330.712 0.182829 0.70573 -0.668707 -0.146116 
3020 3 -88.1405 266.696 -225.364 0.244607 0.40169 0.873496 -0.125767 
3035 2 -73.3198 257.422 -321.244 0.00628616 0.961583 0.23632 -0.139538 
3034 2 -69.99 258.461 -311.973 -0.139669 0.355179 0.917116 -0.115058 
3033 2 -66.8331 260 -302.729 -0.158536 -0.539978 0.826553 0.0100397 
3032 2 -63.7861 263.328 -293.995 -0.250151 -0.951979 0.154154 0.0860094 
3031 2 -60.7436 267.446 -285.471 -0.0554133 -0.707177 -0.652096 0.267583 
3030 2 -56.9905 272.921 -278.073 0.254837 0.19101 -0.917372 0.238748 
3029 2 -54.3334 277 -269.411 0.202406 0.920885 -0.331476 -0.0335691 
3023 2 -52.636 293.921 -213.673 0.00657113 0.106696 -0.99427 -0.000846486 
3028 2 -54.1302 281.677 -260.721 0.215806 0.84413 0.472083 -0.1342 
3027 2 -53.4743 285.154 -251.516 0.00552132 0.179016 0.967101 -0.180664 
3026 2 -53.5733 289.637 -242.738 -0.152759 -0.650503 0.724986 -0.167051 
3024 2 -52.3598 294.164 -223.594 0.0268903 -0.65588 -0.746721 0.107266 
3025 2 -53.8719 292.559 -233.243 -0.129564 -0.991126 -0.0263786 -0.0136356 
3119 2 -138.811 474.77 -360.883 0.684086 0.181335 -0.616105 0.345773 
3120 2 -146.108 468.355 -359.455 0.0702292 -0.373377 -0.547051 0.745917 
3121 2 -152.587 461.06 -358.004 -0.540149 -0.591426 -0.0215849 0.598321 
3122 2 -159.202 454.329 -355.115 -0.785123 -0.423745 0.449256 -0.046807 
3123 2 -165.741 447.375 -352.52 -0.378209 0.0300094 0.580359 -0.720584 
3140 2 -170.275 537.066 -331.883 0.306229 -0.868274 -0.183033 0.344705 
3139 2 -164.317 533.284 -325.085 0.374261 -0.456164 -0.806311 -0.0412958 
3126 2 -182.563 428.93 -337.812 0.765366 0.00656023 -0.475876 0.43326 
3133 2 -144.263 497.56 -282.98 0.337163 -0.92034 -0.164903 0.110009 
3134 2 -147.293 503.986 -290.064 0.200566 -0.722379 0.619787 0.231962 
3136 2 -150.742 516.623 -304.791 -0.381906 0.815483 0.428491 -0.074375 
3137 2 -155.155 522.672 -311.311 -0.143547 0.869233 -0.34437 -0.324404 
3132 2 -144.333 489.197 -277.692 0.272211 -0.464814 -0.743341 -0.396603 
3135 2 -148.778 510.032 -297.729 -0.100829 0.100548 0.92897 0.341671 
3131 2 -142.876 480.418 -273.603 -0.161856 0.367868 -0.763159 -0.506027 
3130 2 -140.75 471.686 -269.439 -0.514624 0.820709 -0.153963 -0.194664 
3129 2 -140.299 463.479 -263.957 -0.387902 0.699937 0.54974 0.239596 
3127 1 -162.965 436.808 -295.664 0.075867 0.122223 0.859526 0.490429 
3128 3 -155.5 465.926 -313.473 0.0469585 0.156428 0.873636 0.458351 
3125 2 -175.532 433.261 -343.253 0.822427 0.381741 -0.303865 -0.292494 
3124 2 -170.701 439.404 -349.284 0.350297 0.372937 0.236259 -0.82607 
3138 2 -159.853 527.088 -318.819 0.107076 0.283504 -0.864031 -0.402008 
3141 2 -177.548 541.075 -337.388 0.0171531 -0.686471 0.597334 0.414314 
3142 2 -182.863 546.396 -343.85 -0.257642 0.0236006 0.959501 0.111453 
3143 2 -187.483 549.121 -352.142 -0.359081 0.752867 0.548916 -0.0542555 
3937 1 -553.415 684.414 -221.789 0.80005 -0.250455 0.259215 -0.479582 
3156 2 -311.529 591.322 -361.398 0.272918 0.346567 0.133691 0.887431 
3157 2 -304.577 591.393 -354.357 -0.507574 0.426844 -0.264953 0.699981 
3158 2 -296.213 592.085 -349.177 -0.905431 0.154521 -0.393488 0.0385263 
3159 2 -289.291 594.688 -342.49 -0.607348 -0.227194 -0.423863 -0.632338 
3160 2 -281.24 596.964 -337.17 0.215459 -0.571626 0.00852886 -0.791674 
3161 2 -272.165 598.92 -333.768 0.724789 -0.295202 0.506525 -0.361896 
3162 2 -263.066 600.215 -330.174 0.691201 0.206162 0.571758 0.390936 
3163 2 -254.075 602.762 -326.945 0.135146 0.495217 0.299509 0.804233 
3164 2 -245.576 606.424 -323.284 -0.506382 0.53996 -0.132875 0.659063 
3165 2 -236.838 609.665 -319.832 -0.808767 0.266529 -0.510594 0.118966 
3166 2 -228.124 612.782 -316.476 -0.580504 -0.149234 -0.529834 -0.600017 
3197 2 -231.237 703.112 -270.266 0.765382 -0.197481 -0.409699 0.455344 
3198 2 -239.204 702.024 -264.481 0.0860886 -0.523553 -0.100205 0.841689 