ITEM: TIMESTEP
10000000
ITEM: NUMBER OF ATOMS
4067
ITEM: BOX BOUNDS pp pp pp
-4.6310929470000001e+03 4.6704658980000004e+03
-4.6310929470000001e+03 4.6704658980000004e+03
-4.6310929470000001e+03 4.6704658980000004e+03
ITEM: ATOMS id type x y z c_q[1] c_q[2] c_q[3] c_q[4] 
3532 1 232.744 464.189 -830.411 -0.59159 0.21664 -0.119037 0.76741 
3534 2 279.121 466.361 -838.997 0.166239 0.133149 0.0516203 0.97569 
3535 2 281.808 466.775 -829.51 -0.638052 0.19742 -0.137154 0.731508 
3536 2 285.666 467.465 -820.384 -0.986484 -0.00849849 -0.155598 -0.0506511 
3423 2 78.3695 648.359 -850.578 -0.214459 0.918444 0.306486 0.128585 
3422 2 77.2847 643.785 -841.854 -0.0487387 0.381446 0.892795 0.234608 
3421 2 77.7819 641.458 -832.283 0.0207551 -0.510177 0.850722 0.124742 
3420 2 78.4789 637.88 -823.104 0.179932 -0.963409 0.190652 0.0558527 
3424 1 106.468 685.05 -841.004 -0.798346 -0.279794 -0.296551 0.443188 
3505 1 196.777 592.924 -888.193 0.618416 -0.283397 0.00986268 -0.732905 
3506 3 210.775 603.426 -857.886 0.61188 -0.307351 0.0187566 -0.728551 
3503 2 165.504 596.711 -852.471 -0.421099 -0.850896 0.264776 0.168954 
3504 2 160.531 590.367 -858.089 -0.389199 -0.311357 0.835448 -0.231534 
3502 2 168.053 604.243 -846.653 -0.181626 -0.656591 -0.594819 0.426721 
3501 2 170.945 611.292 -840.263 0.216253 0.101667 -0.904841 0.352365 
3500 2 175.623 616.07 -832.862 0.318802 0.802901 -0.498677 -0.0709611 
3499 2 182.143 620.536 -826.864 0.0897294 0.8241 0.335866 -0.447216 
3498 2 187.331 627.286 -821.762 -0.231692 0.126138 0.884952 -0.383756 
3507 2 242.011 600.408 -899.345 0.543616 -0.187739 0.0537684 -0.816299 
3508 2 246.183 601.968 -890.484 0.97377 -0.0387647 0.202431 -0.096395 
3509 2 249.786 602.195 -881.243 0.69178 0.164856 0.132639 0.690413 
3515 2 258.304 586.176 -826.266 0.901326 0.336907 0.0525294 -0.267106 
3510 2 253.718 601.605 -872.221 -0.068936 0.10411 -0.100547 0.987066 
3514 2 258.434 591.671 -834.505 0.428492 0.126407 0.214197 -0.86864 
3513 2 257.72 595.087 -843.765 -0.318963 -0.116819 0.167107 -0.925576 
3512 2 256.321 597.166 -853.258 -0.944856 -0.0964782 -0.0624071 -0.306666 
3511 2 255.964 599.166 -862.964 -0.84279 -0.0598719 -0.0882647 0.52757 
3531 2 195.091 462.872 -802.017 0.0749105 -0.161152 -0.872698 0.454771 
3530 2 197.779 470.477 -796.401 0.378947 0.527309 -0.716128 0.255939 
3528 2 206.35 485.636 -786.769 0.132937 0.60179 0.594056 -0.516986 
3529 2 202.098 477.818 -791.289 0.450002 0.856115 -0.114689 -0.226743 
3527 2 210.638 494.327 -784.444 -0.335178 -0.110615 0.78512 -0.508927 
3526 2 215.965 502.521 -783.187 -0.669465 -0.629003 0.39328 -0.0387668 
3525 2 220.971 511.004 -784.282 -0.522888 -0.649348 -0.13505 0.535441 
3524 2 225.639 519.778 -784.699 0.101601 -0.251392 -0.617382 0.738457 
3523 2 230.225 528.39 -786.476 0.659215 0.316539 -0.53924 0.417682 
3522 2 234.164 537.264 -788.347 0.728625 0.655883 -0.128697 -0.14953 
3521 2 239.478 545.458 -789.758 0.262257 0.519201 0.407511 -0.703979 
3450 2 231.797 512.991 -731.233 0.843292 0.478194 0.151404 0.193042 
3449 2 227.242 520.287 -736.189 0.651978 0.148397 0.457493 -0.586177 
3448 2 223.118 528.604 -739.754 -0.0756139 -0.263935 0.48157 -0.832293 
3447 2 217.85 536.464 -742.732 -0.637703 -0.600568 0.019792 -0.481935 
3446 2 213.586 544.386 -746.894 -0.767858 -0.346653 -0.428127 0.327006 
3392 2 130.313 533.816 -690.807 -0.572137 -0.587309 -0.00708811 0.572431 
3393 2 124.001 526.824 -687.756 -0.782799 -0.369496 0.500465 -0.0152798 
3394 2 116.422 521.137 -685.04 -0.481966 0.131913 0.521183 -0.691864 
3395 2 109.405 515.312 -681.192 0.161985 0.552107 0.328817 -0.748878 
3396 2 102.32 508.437 -679.654 0.666408 0.624928 -0.179113 -0.365079 
3391 2 134.055 543.002 -690.938 -0.042026 -0.323242 -0.625745 0.708655 
3533 3 246.492 469.142 -798.553 -0.586668 0.226567 -0.0679652 0.774512 
3520 2 244.903 552.745 -793.771 -0.455155 0.00135015 0.550312 -0.699992 
3445 2 209.234 552.349 -750.987 -0.200482 0.141327 -0.526841 0.813801 
3390 2 136.553 552.613 -691.676 0.553498 0.440287 -0.523593 0.475014 
3552 2 252.581 451.168 -671.378 0.317133 0.11901 0.0146008 -0.940771 
3551 2 254.496 452.046 -681.148 -0.575127 0.052803 0.0761751 -0.812797 
3537 2 289.106 467.136 -811.08 -0.528109 -0.0637921 0.0404066 -0.845813 
3550 2 257.3 454.277 -690.369 -0.984508 -0.0829772 0.15071 -0.0338287 
3452 3 252.694 546.121 -765.355 0.659087 -0.488686 -0.536253 -0.198046 
3549 2 259.072 456.843 -699.682 -0.667023 -0.153327 -0.0330386 0.72834 
3548 2 263.012 458.614 -708.56 0.143776 -0.217014 -0.112672 0.958926 
3547 2 267.822 458.269 -717.253 0.814853 -0.14615 -0.197895 0.524873 
3546 2 272.435 457.842 -725.903 0.913821 0.0566794 -0.230763 -0.329343 
3451 1 266.499 513.993 -763.229 0.676823 -0.449452 -0.534252 -0.233405 
3545 2 275.98 456.59 -735.068 0.383418 0.173922 -0.150217 -0.894526 
3544 2 280.148 456.878 -744.079 -0.401229 0.15472 0.128519 -0.893622 
3543 2 283.436 457.376 -753.402 -0.974463 -0.00228894 0.151985 -0.165281 
3542 2 285.055 459.066 -763.035 -0.715878 -0.0854578 -0.0205647 0.692671 
3538 2 290.615 466.086 -801.333 0.449343 0.0812902 0.0299253 -0.88915 
3540 2 287.933 462.293 -782.119 0.807842 0.0581737 -0.158311 0.564752 
3541 2 285.888 459.703 -772.851 0.0903072 -0.0226204 -0.0157128 0.995533 
3539 2 289.669 464.817 -791.59 0.975042 0.145761 -0.056217 -0.157756 
3453 2 290.568 533.897 -798.641 -0.72602 0.678717 0.0451864 -0.100983 
3454 2 287.853 543.402 -797.87 -0.391511 0.505438 -0.4562 -0.618977 
3455 2 285.621 553.067 -797.214 0.270657 0.0504613 -0.593212 -0.756504 
3405 2 84.9051 606.586 -681.05 0.0906559 -0.879455 -0.450483 -0.124123 
3406 2 85.9853 609.772 -690.408 0.0120465 -0.887328 0.454795 -0.0752656 
3407 2 87.3067 609.843 -700.245 0.0913553 -0.342628 0.93107 0.0858424 
3408 2 88.7338 611.735 -709.84 -0.0148977 0.487616 0.868961 0.0831654 
3409 2 89.1875 613.311 -719.602 -0.0460632 0.968845 0.239059 -0.0454816 
3410 2 88.1487 613.619 -729.38 0.0348622 0.787396 -0.601116 -0.132104 
3411 2 85.5488 614.449 -738.811 0.12783 0.126381 -0.978882 -0.0973562 
3419 2 80.2332 635.853 -813.512 0.127493 -0.74326 -0.656462 -0.0192016 
3418 2 81.9683 632.978 -804.233 0.0700276 0.0131477 -0.988327 -0.134662 
3412 2 82.5396 616.061 -748.019 0.0778136 -0.738486 -0.669755 -0.00338597 
3417 2 83.2928 629.65 -795.082 -0.0880953 0.778518 -0.601099 -0.157569 
3413 2 81.6541 617.29 -757.754 0.112475 -0.991064 0.066057 -0.0278885 
3416 2 82.5306 625.342 -786.19 -0.188155 0.928852 0.302473 0.1017 
3415 2 82.8854 621.436 -777.095 -0.119304 0.366481 0.905201 0.17908 
3404 2 81.879 603.848 -672.016 -0.131954 -0.237162 -0.949348 -0.158369 
3414 2 82.1404 619.099 -767.502 0.084708 -0.528802 0.840823 0.0788038 
3497 2 193.323 633.591 -816.894 -0.501358 -0.561114 0.656942 -0.0471032 
3496 2 200.864 638.734 -813.096 -0.301019 -0.845434 0.0180182 0.440798 
3495 2 209.441 643.153 -810.794 0.212297 -0.548508 -0.556117 0.587199 
3494 2 215.732 650.177 -807.571 0.471862 0.224502 -0.793603 0.311671 
3444 2 205.888 559.724 -756.686 0.576445 0.395171 -0.234716 0.675618 
3389 2 137.093 562.45 -690.852 0.664499 0.733213 0.0880359 -0.114407 
3425 3 115.573 661.428 -816.896 -0.791821 -0.324214 -0.302055 0.420319 
3428 2 147.668 691.026 -808.403 0.467697 0.201277 0.57039 -0.644517 
3429 2 150.933 682.039 -805.894 0.743108 0.611935 0.228096 0.145938 
3430 2 156.195 673.713 -804.647 0.348141 0.595771 -0.360394 0.627671 
3443 2 202.675 567.971 -761.153 0.856877 0.444245 0.253319 -0.0650914 
3431 2 161.194 665.153 -804.483 -0.223461 0.0652238 -0.637272 0.73464 
3432 2 165.041 656.203 -803.137 -0.775579 -0.390106 -0.428623 0.250152 
3433 2 169.814 648.089 -800.079 -0.613873 -0.673561 -0.0309388 -0.410509 
3434 2 175.669 640.22 -798.618 -0.142254 -0.318572 0.546267 -0.761491 
3435 2 178.587 630.955 -796.409 0.494614 0.233402 0.601818 -0.581975 
3493 2 222.605 656.68 -804.606 0.556671 0.746023 -0.298611 -0.210709 
3436 2 181.346 621.6 -794.811 0.804546 0.577772 0.134733 -0.0270528 
3437 2 182.525 612.125 -792.166 0.464561 0.429004 -0.354871 0.688626 
3438 2 185.479 603.616 -788.119 -0.350869 0.188192 -0.362021 0.842861 
3439 2 190.767 598.189 -781.725 -0.808442 -0.183809 -0.424158 0.364316 
3440 2 196.067 593.168 -775.146 -0.818134 -0.498165 0.00906081 -0.287066 
3441 2 198.333 585.154 -769.677 -0.258729 -0.287689 0.497076 -0.776666 
3442 2 200.062 576.086 -766.25 0.478913 0.107223 0.461309 -0.739148 
3470 2 231.115 673.225 -733.644 0.834651 -0.226588 -0.22578 -0.448375 
3492 2 229.333 663.105 -801.481 0.135717 0.632842 0.473567 -0.597349 
3471 2 229.844 679.154 -725.756 0.836873 -0.399885 -0.0545539 0.36981 
3472 2 226.123 685.469 -719.198 0.349571 -0.208987 0.326718 0.852866 
3473 2 225.003 692.745 -712.668 -0.440306 0.217614 0.439385 0.752141 
3491 2 236.798 668.916 -798.56 -0.430972 0.0530672 0.807158 -0.399928 
3388 2 137.983 571.86 -687.985 0.223831 0.329536 0.730391 -0.554829 
3387 2 139.383 580.692 -683.839 -0.283355 -0.374221 0.737225 -0.485971 
3490 2 243.277 675.851 -795.85 -0.607598 -0.651912 0.446855 0.0784632 
3469 2 233.992 665.723 -739.426 0.159919 0.0605809 -0.473823 -0.863856 
3468 2 236.48 658.449 -745.623 -0.531987 0.352 -0.208653 -0.741316 
3467 2 240.158 650.304 -750.075 -0.851839 0.490488 0.167664 -0.0753709 
3386 2 139.898 588.475 -677.777 -0.431497 -0.886078 0.154889 -0.0684482 
3427 2 144.72 699.266 -813.063 -0.238549 -0.304297 0.384874 -0.838075 
3385 2 140.661 597.353 -673.556 -0.361212 -0.618723 -0.570419 0.40166 
3474 2 223.757 701.414 -707.998 -0.805205 0.550711 0.165544 0.144764 
3519 2 248.067 560.572 -798.811 -0.874033 -0.412789 0.218502 -0.133895 
3398 3 96.2146 559.238 -670.916 -0.396339 0.283536 -0.830878 -0.268632 
3384 2 140.055 605.945 -668.547 -0.0153942 0.0229653 -0.872053 0.488631 
3466 2 244.947 642.397 -753.691 -0.532974 0.0893547 0.560481 0.627547 
3489 2 248.503 683.599 -792.752 -0.321073 -0.760636 -0.284162 0.487439 
3518 2 252.141 568.327 -803.573 -0.624675 -0.470347 -0.158183 0.602937 
3465 2 250.439 634.752 -756.699 0.128466 -0.413458 0.419255 0.797981 
3464 2 255.977 627.538 -760.673 0.721607 -0.531943 -0.0772126 0.4363 
3517 2 255.335 574.284 -810.828 0.00930975 -0.166946 -0.310138 0.935872 
3516 2 257.646 580.379 -818.268 0.728299 0.195696 -0.278189 0.594891 
3488 2 253.713 691.282 -789.557 0.167007 -0.234377 -0.768778 0.571102 
3463 2 259.538 618.924 -764.047 0.757613 -0.475701 -0.379536 -0.235974 
3487 2 258.117 698.998 -785.096 0.49085 0.508821 -0.666988 0.235148 
3462 2 262.468 610.822 -769.084 0.326692 -0.0296044 -0.489594 -0.807894 
3456 2 282.07 561.995 -794.534 0.752831 -0.45446 -0.397347 -0.26235 
3461 2 263.814 602.484 -774.275 -0.382013 0.278688 -0.371828 -0.798839 
3460 2 265.847 593.699 -778.489 -0.820343 0.550903 0.0129471 -0.152892 
3457 2 278.198 570.753 -791.824 0.61576 -0.616643 0.0182033 0.490163 
3459 2 268.896 585.985 -783.857 -0.678822 0.218019 0.413682 0.566159 
3458 2 272.628 578.358 -788.985 0.0969008 -0.239257 0.410468 0.874575 
3426 2 140.073 707.283 -816.552 -0.745651 -0.559337 -0.063657 -0.356503 
3475 2 223.046 710.671 -704.365 -0.578112 0.54044 -0.348453 -0.502286 
3477 2 222.046 729.678 -699.006 0.595907 -0.398026 -0.397254 -0.573287 
3476 2 222.495 720.437 -702.463 -0.0246663 0.025766 -0.562382 -0.826108 
3486 2 263.278 706.41 -781.138 0.436654 0.848202 -0.00712296 -0.299726 
3479 3 253.916 715.442 -737.396 0.023492 0.313834 0.83373 -0.453708 
3485 2 270.642 712.082 -777.77 -0.105141 0.5454 0.624117 -0.549511 
3478 1 262.663 743.565 -718.581 0.0231532 0.32617 0.798418 -0.505575 
3484 2 278.46 717.261 -774.353 -0.505352 -0.159091 0.819179 -0.219672 
3483 2 284.151 723.379 -769.103 -0.455186 -0.79746 0.378232 0.117487 
3482 2 288.423 728.41 -761.806 -0.166024 -0.828756 -0.409812 0.343008 
3481 2 293.51 732.9 -754.54 0.235811 -0.185058 -0.909003 0.289586 
3480 2 298.599 739.205 -748.856 0.448668 0.517583 -0.718677 0.119617 
28 2 542.133 -105.822 -597.364 0.591373 0.233044 -0.0246574 0.771596 
29 2 546.013 -109.147 -588.881 -0.307016 0.0581799 -0.055367 0.948309 
30 2 547.745 -110.326 -579.273 -0.902433 -0.0329131 -0.0413289 0.427579 
31 2 548.504 -111.11 -569.508 -0.907323 -0.0573525 -0.0566945 -0.412627 
27 2 541.605 -100.94 -606.019 0.96129 0.247411 0.0561901 -0.10748 
26 2 541.885 -95.8208 -614.411 0.49987 0.139457 0.21241 -0.827988 
2 2 530.36 -191.149 -539.747 -0.358919 -0.222727 -0.7109 -0.562309 
3 2 538.175 -185.078 -541.037 0.146984 -0.752574 -0.233922 -0.597754 
25 2 542.607 -88.9397 -621.471 -0.273188 -0.0784558 0.369289 -0.884782 
24 2 543.285 -82.1253 -628.719 -0.838299 -0.332502 0.194358 -0.385904 
4 2 546.546 -180.532 -543.641 0.544285 -0.601688 0.517543 -0.2718 
1 2 526.201 -200.044 -538.705 -0.638363 0.509155 -0.534835 -0.217268 
32 2 549.975 -111.965 -559.722 -0.243261 -0.179536 -0.0477543 -0.952003 
33 2 553.351 -111.32 -550.425 0.625194 -0.183584 0.0376159 -0.757637 
34 2 556.953 -110.507 -541.295 0.96552 -0.196798 0.159583 -0.0597876 
5 2 555.227 -176.691 -546.55 0.460781 0.0169548 0.814832 0.351345 
35 2 559.931 -106.834 -532.479 0.601712 -0.0959217 0.4484 0.653972 
6 2 562.868 -171.471 -550.315 -0.0648085 0.663377 0.470287 0.578413 
36 2 563.557 -99.999 -526.376 -0.0929345 0.344691 0.38128 0.852747 
7 2 569.917 -165.441 -553.571 -0.4231 0.842215 -0.144602 0.301249 
8 2 576.337 -159.511 -558.161 -0.579345 0.396718 -0.703288 -0.111177 
9 2 583.588 -153.468 -560.957 -0.265286 -0.322364 -0.699691 -0.579774 
10 2 590.772 -146.941 -562.59 0.309213 -0.760906 -0.207671 -0.531303 
11 2 597.644 -140.281 -565.061 0.693442 -0.583461 0.420029 0.04782 
12 2 602.916 -131.796 -565.272 0.355068 -0.140681 0.701484 0.601711 
13 2 606.208 -122.409 -566.076 -0.326429 0.533439 0.488641 0.608373 
14 2 609.888 -113.22 -566.58 -0.612565 0.750286 -0.0136199 0.248294 
15 2 613.766 -104.167 -567.56 -0.536459 0.538731 -0.616319 -0.205261 
16 2 617.816 -95.7167 -570.736 -0.0773734 -0.0978241 -0.813231 -0.568418 
23 3 582.492 -85.2004 -594.788 -0.575745 -0.276969 0.353027 -0.683504 
17 2 620.114 -86.6435 -574.103 0.324674 -0.667932 -0.505233 -0.439538 
37 2 568.269 -93.084 -521.218 -0.646398 0.560596 -0.0572688 0.514414 
18 2 622.46 -77.8392 -577.945 0.520084 -0.845715 0.107431 0.0523211 
19 2 622.88 -69.1098 -582.599 0.249022 -0.398846 0.792619 0.388155 
38 2 574.253 -86.4751 -517.038 -0.806591 0.245093 -0.490205 -0.22145 
20 2 623.606 -61.2698 -588.645 -0.15951 0.245431 0.839067 0.458571 
22 1 583.352 -59.393 -618.449 -0.589701 -0.277678 0.355387 -0.669961 
55 2 562.426 4.9815 -524.577 -0.894891 -0.308366 0.0999824 0.30673 
54 2 567.079 8.89401 -532.388 -0.231395 -0.317389 -0.144254 0.908246 
21 2 623.242 -53.0463 -594.138 -0.430544 0.807361 0.365796 0.170272 
53 2 573.532 12.4538 -538.923 0.661903 -0.0919326 -0.413686 0.618301 
52 2 580.73 16.462 -544.303 0.882615 0.252345 -0.383693 -0.100462 
51 2 587.722 21.1518 -549.582 0.489708 0.494712 -0.0109782 -0.717862 
49 1 626.099 1.61711 -530.365 0.752688 0.163309 -0.522189 0.36621 
50 3 599.921 -16.6632 -516.312 0.743933 0.12225 -0.52569 0.394041 
56 2 558.803 0.228321 -516.676 -0.831707 -0.199269 0.230194 -0.46429 
3640 1 350.635 199.693 -573.827 0.590766 -0.588954 -0.175506 -0.522806 
3638 2 326.25 224.722 -537.605 -0.708593 -0.658851 0.223691 -0.117366 
3639 2 324.583 215.001 -537.543 -0.428199 -0.304413 0.621871 -0.580737 
3642 2 384.571 204.432 -606.261 0.0853144 -0.430764 -0.370922 -0.818279 
3641 3 366.307 229.783 -564.678 0.556099 -0.607712 -0.201213 -0.53005 
3637 2 327.777 234.5 -537.879 -0.578683 -0.617285 -0.334062 0.415315 
3636 2 330.699 243.571 -540.759 0.0170367 -0.146202 -0.555878 0.818129 
3643 2 390.804 210.976 -602.145 0.701277 -0.588993 0.0332399 -0.400242 
3644 2 396.397 218.512 -598.965 0.781747 -0.248279 0.49279 0.290494 
3645 2 402.234 224.769 -594.139 0.16201 0.0390829 0.42648 0.889011 
3646 2 404.819 232.021 -587.895 -0.595755 0.370351 0.29305 0.649644 
3647 2 406.106 240.266 -582.436 -0.936629 0.333699 -0.0645808 -0.0848517 
3648 2 406.862 246.421 -574.639 -0.613127 0.183553 -0.148852 -0.753808 
3612 2 491.597 245.558 -536.62 -0.903991 -0.000497686 -0.188547 -0.383732 
3610 2 484.174 244.375 -554.903 -0.0392321 0.193487 0.00967769 0.98027 
3609 2 478.569 246.162 -562.888 0.690368 0.270496 0.163177 0.650844 
3611 2 488.1 244.508 -545.856 -0.878937 0.133311 -0.136741 0.437035 
3289 1 169.271 369.913 -576.082 0.772657 -0.523195 0.236071 0.27118 
3288 2 211.181 369.198 -554.413 -0.293389 -0.366109 -0.733715 0.491477 
3287 2 210.701 378.227 -550.385 0.260763 0.4064 -0.712635 0.508914 
3286 2 210.931 386.861 -545.591 0.500389 0.838016 -0.187235 0.110831 
3285 2 209.662 395.785 -541.468 0.42066 0.6181 0.568087 -0.343911 
3561 2 230.392 356.724 -644.864 -0.238669 -0.469503 -0.653368 -0.543797 
3562 2 238.589 361.226 -647.795 0.151917 -0.805129 -0.0619881 -0.569953 
3291 2 129.938 391.045 -591.293 0.515784 -0.287263 0.458619 0.664165 
3214 2 138.734 390.048 -529.442 -0.535208 0.173662 0.600653 0.567988 
3210 2 152.22 353.171 -527.039 0.321098 -0.0752791 -0.712415 -0.619431 
3213 2 141.855 380.656 -530.232 0.0977528 -0.284232 0.619017 0.725586 
3212 2 145.319 371.628 -528.726 0.504195 -0.73806 0.20193 0.400349 
3211 2 149.173 362.616 -527.232 0.63718 -0.607781 -0.460399 -0.112412 
3215 2 134.255 398.602 -527.289 -0.781623 0.516958 0.332424 -0.106371 
3559 1 231.535 396.782 -619.888 -0.0523617 0.957262 0.0806965 0.272756 
3563 2 247.545 364.781 -650.192 0.664831 -0.485486 0.495745 -0.276658 
3292 2 131.393 400.038 -587.465 -0.0966226 0.178853 0.573495 0.793586 
3635 2 333.958 252.632 -543.095 0.635321 0.330204 -0.504206 0.482814 
3564 2 256.781 368.413 -649.993 0.721187 0.103989 0.617331 0.296613 
3634 2 338.797 260.975 -545.286 0.724581 0.622342 -0.110532 -0.274693 
3633 2 345.712 267.105 -548.965 0.173145 0.503659 0.238022 -0.812215 
3632 2 353.63 272.023 -552.495 -0.548706 0.179269 0.543269 -0.609626 
3631 2 361.78 276.825 -555.156 -0.800295 -0.382051 0.459608 0.0482216 
3630 2 370.858 279.941 -557.461 -0.324148 -0.607707 0.0330402 0.724244 
3629 2 379.165 284.417 -560.206 0.224392 -0.412025 -0.486183 0.737231 
3628 2 386.713 290.445 -562.425 0.657628 0.0434359 -0.618576 0.427788 
3593 2 353.164 316.481 -579.299 0.422599 -0.43629 0.756233 -0.243256 
3594 2 361.622 316.224 -584.387 0.484858 0.276008 0.800706 0.218178 
3595 2 370.628 316.971 -588.492 0.345182 0.752873 0.153108 0.539063 
3596 2 380.061 314.428 -590.384 -0.206468 0.55436 -0.600357 0.538171 
3597 2 388.504 310.444 -593.305 -0.687626 -0.146009 -0.677806 0.21548 
3587 3 357.439 350.405 -547.946 0.16493 -0.976047 0.131974 -0.0520968 
3592 2 345.804 315.525 -572.803 0.0653619 -0.91176 0.0597919 -0.401056 
3591 2 339.379 314.464 -565.387 -0.210145 -0.65149 -0.67052 -0.286011 
3565 2 266.084 371.126 -647.986 0.229044 0.507892 0.379006 0.738876 
3566 2 275.281 374.236 -645.823 -0.415044 0.536765 -0.188722 0.709934 
3567 2 284.353 376.277 -642.451 -0.767918 0.210921 -0.60009 0.0755442 
3568 2 293.948 378.544 -641.194 -0.562877 -0.409573 -0.435291 -0.570913 
3569 2 303.51 378.858 -638.425 0.188364 -0.488308 -0.0309827 -0.851537 
3590 2 333.94 313.457 -557.203 -0.317318 0.158855 -0.934187 -0.0370058 
3589 2 329 312.612 -548.655 -0.167768 0.882936 -0.39081 0.198858 
3588 2 325.35 310.419 -539.703 0.0279975 0.878071 0.41231 0.241264 
3570 2 311.616 380.758 -633.159 0.76998 -0.274824 0.385979 -0.427344 
3571 2 319.608 381.782 -627.345 0.845573 0.133671 0.338694 0.390417 
3572 2 326.533 382.512 -620.34 0.0914263 0.28813 0.0871027 0.949229 
3573 2 331.939 383.738 -612.147 -0.598119 0.203316 -0.103321 0.768272 
3574 2 336.141 384.257 -603.211 -0.950297 0.094946 -0.282156 -0.0911553 
3575 2 340.802 386.633 -594.834 -0.553846 -0.151207 -0.333971 -0.747566 
3576 2 346.99 389.843 -587.79 0.134675 -0.360061 0.0164055 -0.923011 
3580 2 369.886 391.689 -555.81 -0.638894 0.0414085 -0.0885818 0.763055 
3577 2 353.789 390.477 -580.651 0.882862 -0.17408 0.263233 -0.347792 
3578 2 359.614 391.324 -572.654 0.84277 0.135023 0.30123 0.425169 
3579 2 365.451 391.545 -564.644 0.20837 0.23437 0.0519876 0.94813 
3581 2 371.665 391.391 -545.977 -0.973579 -0.106788 -0.201783 0.0049547 
3582 2 375.356 389.272 -537.065 -0.623099 -0.218284 0.0933274 -0.745245 
3583 2 377.326 384.934 -528.321 0.244283 -0.0213943 0.21414 -0.945522 
3627 2 394.403 296.352 -564.383 0.720914 0.526213 -0.377707 -0.246415 
3598 2 397.24 305.784 -593.745 -0.653901 -0.618737 -0.318438 -0.296943 
3654 2 394.44 265.96 -520.972 -0.990905 -0.119144 0.0474767 -0.0407154 
3584 2 379.24 380.884 -519.57 0.922952 0.118272 0.105212 -0.35086 
3586 1 352.443 339.99 -514.915 0.130962 -0.981368 0.128559 -0.0569113 
3653 2 395.712 265.553 -530.781 -0.671308 0.00119462 0.0803218 0.736813 
3652 2 397.616 262.597 -539.971 0.162697 -0.0945085 0.155769 0.969708 
3651 2 400.912 259.048 -548.673 0.825318 -0.247481 -0.02856 0.506741 
3649 2 406.379 250.868 -565.762 0.277614 0.0584243 -0.275858 -0.918379 
3626 2 402.784 301.584 -564.532 0.190896 0.692633 0.152351 -0.67868 
3599 2 404.884 299.672 -593.238 -0.1908 -0.571729 0.288527 -0.743958 
3650 2 404.192 255.041 -557.083 0.909979 -0.149929 -0.237186 -0.30529 
3600 2 412.513 293.427 -591.832 0.398488 -0.0648809 0.663129 -0.630284 
3608 2 471.056 248.807 -568.756 0.901733 0.100678 0.416499 -0.0571828 
3607 2 464.103 252.883 -574.648 0.494063 -0.224777 0.384731 -0.746565 
3601 2 418.846 286.044 -590.239 0.723445 0.483172 0.485235 0.0878591 
3606 2 456.107 255.736 -579.786 -0.281284 -0.501915 0.0276939 -0.817431 
3605 2 448.3 261.001 -582.829 -0.751508 -0.484295 -0.333991 -0.29857 
3625 2 411.304 306.608 -564.177 -0.440924 0.239681 0.662036 -0.55664 
3624 2 420.21 310.897 -564.285 -0.695112 -0.291163 0.656936 0.0218925 
3602 2 426.669 279.863 -589.466 0.500203 0.667885 -0.0428318 0.549448 
3603 2 433.723 272.948 -589.199 -0.0927779 0.407164 -0.398511 0.816577 
3623 2 429.125 315.136 -563.297 -0.391828 -0.737817 0.140576 0.531352 
3622 2 437.096 321.001 -562.704 0.139884 -0.490318 -0.530771 0.67698 
3604 2 441.116 267.034 -586.094 -0.649581 -0.0808875 -0.596383 0.464573 
3621 2 445.892 325.358 -562.259 0.646147 0.0786578 -0.721239 0.2369 
3620 2 454.767 329.628 -561.13 0.553914 0.648334 -0.332855 -0.402555 
3619 2 463.847 333.748 -561.196 0.0425707 0.676421 0.25269 -0.6905 
3613 1 506.392 290.172 -541.063 -0.521417 -0.0417092 0.849728 0.0659275 
3614 3 475.113 290.386 -556.788 -0.559164 -0.0587694 0.824428 0.0647997 
3615 2 502.556 334.585 -556.273 0.380147 -0.67213 -0.454383 0.444146 
3616 2 493.149 335.145 -559.457 -0.117332 -0.755723 0.255073 0.591653 
3617 2 483.547 335.786 -561.849 -0.675735 -0.322498 0.618435 0.238572 
3618 2 473.71 334.994 -562.098 -0.620386 0.296151 0.613582 -0.388501 
3696 2 483.959 349.909 -515.814 0.721713 0.114327 -0.640663 0.235819 
3397 1 79.0701 536.846 -650.056 -0.374245 0.280657 -0.828681 -0.307342 
3233 2 94.5313 547.576 -566.453 0.495431 -0.757931 -0.00133273 0.424366 
3232 2 100.424 539.851 -564.55 0.611153 -0.491447 -0.602364 -0.148759 
3231 2 102.613 531.117 -560.434 0.0629936 0.112604 -0.833422 -0.537364 
3216 2 128.085 405.788 -524.339 -0.491944 0.500206 -0.243958 -0.669529 
3230 2 105.016 523.411 -554.652 -0.307424 0.751258 -0.466651 -0.351197 
3229 2 108.851 516.794 -548.446 -0.400948 0.851343 0.332657 -0.0615989 
3290 3 172.627 402.486 -564.071 0.754174 -0.51713 0.23687 0.328162 
3284 2 208.422 405.263 -539.022 -0.00758404 -0.106249 0.7903 -0.603391 
3228 2 112.158 511.408 -540.769 -0.260419 0.354557 0.873377 0.209007 
3283 2 206.824 414.722 -536.648 -0.465525 -0.65671 0.442875 -0.394818 
3282 2 204.309 423.672 -533.186 -0.570095 -0.758229 -0.305411 0.0824922 
3227 2 113.314 504.746 -533.68 0.116308 -0.435223 0.814141 0.366371 
3226 2 111.72 496.719 -528.127 0.46218 -0.867411 0.184155 -0.00857347 
3293 2 132.733 409.694 -585.471 -0.705094 0.547154 0.209917 0.399249 
3294 2 134.028 419.032 -582.649 -0.80211 0.408638 -0.37626 -0.219233 
3295 2 138.171 427.072 -578.54 -0.386752 -0.0323118 -0.604023 -0.696085 
3296 2 143.472 434.806 -575.255 0.294182 -0.446907 -0.21916 -0.815904 
3297 2 149.397 440.708 -569.881 0.807717 -0.39236 0.299762 -0.322164 
3298 2 156.756 444.923 -564.882 0.815179 0.0061518 0.457101 0.355675 
3299 2 164.265 447.615 -558.963 0.217861 0.482673 0.333321 0.780039 
3300 2 173.02 450.399 -555.533 -0.469185 0.682678 -0.174151 0.532436 
3301 2 181.626 455.24 -555.452 -0.647214 0.321239 -0.689423 0.051154 
3302 2 190.838 458.243 -557.256 -0.526762 -0.327151 -0.671552 -0.405602 
3303 2 200.496 460.112 -558.077 0.0365791 -0.696645 -0.0603106 -0.71394 
3304 2 210.278 461.49 -558.501 0.634754 -0.540703 0.441053 -0.331965 
3305 2 219.549 464.91 -557.833 0.70012 0.0817293 0.658724 0.263126 
3306 2 229.258 466.987 -557.423 0.263863 0.531189 0.386379 0.706347 
3330 2 238.864 518.897 -603.468 0.533114 0.097192 -0.473832 -0.694137 
3329 2 246.379 515.268 -608.968 -0.0803581 0.463307 -0.161196 -0.867701 
3225 2 111.036 487.752 -523.967 0.341747 -0.60354 -0.594149 -0.407351 
3224 2 109.045 478.832 -520.101 -0.111879 -0.0381122 -0.812315 -0.571117 
3223 2 108.006 469.392 -517.176 -0.527036 0.648075 -0.472111 -0.28168 
3331 2 232.542 524.237 -597.831 0.899358 -0.272004 -0.342171 -0.00937037 
3332 2 226.592 528.888 -591.337 0.610182 -0.199096 -0.0650961 0.764069 
3281 2 205.233 433.021 -529.849 -0.217764 -0.367924 -0.759427 0.490389 
3280 2 206.942 441.793 -525.568 0.298448 0.351136 -0.780008 0.423345 
3333 2 222.555 530.775 -582.505 -0.263449 -0.12019 0.1692 0.942083 
3334 2 219.849 533.177 -573.256 -0.934745 0.0184107 -0.0169968 0.354434 
3335 2 219.722 533.423 -563.307 -0.847883 -0.0195556 0.0683536 -0.525395 
3338 2 217.482 530.683 -533.932 0.985215 0.0640955 0.13084 -0.0901316 
3336 2 218.615 532.732 -553.487 -0.20511 0.0777742 0.0447831 -0.974616 
3337 2 217.087 531.815 -543.776 0.607594 0.0383345 0.0580131 -0.791198 
3279 2 210.533 450.267 -521.817 0.526197 0.809804 -0.257077 -0.0353006 
3307 2 238.864 469.246 -556.392 -0.421872 0.671916 -0.145112 0.591181 
3339 2 220.005 529.35 -524.457 0.685801 0.0963931 0.153981 0.704751 
3217 2 123.92 414.216 -521.31 0.200299 0.138248 -0.586575 -0.772462 
3219 2 116.487 431.759 -516.371 0.7286 -0.635825 -0.0131978 0.254352 
3218 2 119.557 422.582 -518.195 0.659128 -0.44298 -0.458237 -0.399171 
3278 2 214.017 458.379 -517.265 0.329108 0.70448 0.472161 -0.415282 
3558 2 242.306 442.21 -613.546 -0.516811 0.0399269 0.136602 -0.844187 
3340 2 223.097 529.561 -515.047 0.0163562 0.155801 0.0104788 0.987597 
3308 2 248.041 472.863 -555.295 -0.782721 0.303132 -0.529063 0.124701 
3557 2 243.686 444.057 -623.253 -0.978203 -0.0749075 0.0886757 -0.172178 
3556 2 246.572 445.948 -632.581 -0.622657 -0.18158 0.0164396 0.760958 
3222 2 107.321 459.637 -515.708 -0.620171 0.709905 0.23708 0.234982 
3221 2 110.524 450.386 -514.129 -0.332147 0.13817 0.753339 0.550515 
3220 2 113.331 440.926 -514.446 0.274183 -0.426214 0.555299 0.6594 
3560 3 247.419 405.505 -649.779 -0.0573297 0.964377 0.0587043 0.251482 
3236 3 114.924 553.314 -523.179 -0.750796 -0.548595 -0.366741 0.0291606 
3555 2 248.794 448.389 -641.927 0.151761 -0.0930632 -0.130153 0.975381 
3328 2 253.013 509.378 -613.386 -0.738662 0.503538 0.160059 -0.418579 
3327 2 258.06 501.878 -617.392 -0.754271 0.240773 0.478617 0.379512 
3554 2 250.082 449.162 -651.716 0.883808 0.0232366 -0.0426269 0.465324 
3553 2 250.573 449.994 -661.618 0.920842 0.0530319 0.00396691 -0.386292 
3326 2 263.514 494.747 -621.615 -0.126131 -0.282961 0.439846 0.842947 
3325 2 266.319 485.624 -623.821 0.599256 -0.59192 0.230998 0.486994 
3324 2 268.754 476.044 -624.461 0.694049 -0.630298 -0.296468 -0.182008 
3323 2 273.26 467.318 -623.239 0.292271 -0.0108759 -0.771984 -0.564358 
3309 2 257.255 475.712 -553.146 -0.622231 -0.233094 -0.575402 -0.476874 
3310 2 266.449 477.781 -550.41 -0.0689674 -0.61713 -0.244413 -0.744752 
3318 2 307.038 432.874 -621.19 0.185865 -0.686776 0.217915 0.668061 
3319 2 298.385 437.72 -621.484 -0.32927 -0.288851 0.651125 0.619825 
3320 2 290.586 443.805 -621.772 -0.678806 0.324128 0.604845 0.261392 
3321 2 283.847 450.918 -621.439 -0.567577 0.751373 0.108527 -0.318617 
3322 2 277.811 458.647 -622.485 -0.267944 0.587111 -0.475267 -0.59802 
3317 3 286.565 455.43 -579.166 -0.475557 0.540126 0.431781 -0.543759 
3316 1 321.419 454.314 -581.631 -0.504 0.536064 0.396085 -0.549305 
3311 2 275.86 480.359 -548.792 0.479626 -0.607289 0.369578 -0.514365 
3314 2 304.817 481.173 -545.128 -0.282917 0.539128 -0.302092 0.733511 
3312 2 285.609 482.153 -548.932 0.752066 0.00615123 0.658872 0.0156643 
3313 2 295.306 482.678 -547.553 0.454926 0.566452 0.273329 0.630449 
3315 2 314.264 479.692 -542.501 -0.763148 0.0709699 -0.614716 0.186258 
3344 3 256.646 550.336 -536.968 -0.32166 0.416689 0.850221 -0.00535865 
3403 2 78.5197 599.741 -663.627 -0.307368 0.595255 -0.740697 -0.0506447 
3234 2 88.1524 555.187 -567.68 -0.0286029 -0.451154 0.599602 0.660393 
3399 2 68.3983 578.947 -631.597 0.383621 -0.804383 0.453225 0.0197622 
3402 2 76.8097 595.293 -654.959 -0.230284 0.968459 0.012085 0.0943932 
3401 2 74.369 590.521 -646.592 -0.048226 0.631251 0.730835 0.255103 
3400 2 71.8038 584.762 -638.99 0.198565 -0.174504 0.929501 0.257192 
3235 1 96.6369 582.333 -529.986 -0.759316 -0.475444 -0.434035 0.0948985 
3383 2 141.145 614.679 -664.072 0.455248 0.676018 -0.509716 0.275571 
3382 2 142.648 623.619 -660.131 0.510329 0.825481 0.147109 -0.19106 
3369 2 104.644 622.426 -556.445 -0.891915 0.304752 0.321704 0.090111 
3368 2 110.265 616.65 -562.179 -0.614275 -0.00320895 0.450622 0.647762 
3370 1 118.522 665.852 -568.646 -0.236891 0.00427459 -0.91563 0.324787 
3373 2 141.568 690.689 -604.492 -0.0453851 -0.422916 0.840203 -0.336365 
3381 2 143.665 632.401 -655.673 0.170816 0.387277 0.752341 -0.504798 
3380 2 142.565 641.133 -651.147 -0.236498 -0.490768 0.682645 -0.487044 
3379 2 142.429 649.872 -646.499 -0.502245 -0.856666 0.102215 -0.0585272 
3356 2 220.169 591.917 -576.862 -0.106384 0.762193 0.0163584 -0.63834 
3378 2 142.618 658.401 -641.521 -0.341027 -0.607614 -0.634672 0.334212 
3357 2 210.729 593.461 -579.373 0.302419 0.609667 -0.541269 -0.493839 