ITEM: TIMESTEP
10000000
ITEM: NUMBER OF ATOMS
4067
ITEM: BOX BOUNDS pp pp pp
-4.6310929470000001e+03 4.6704658980000004e+03
-4.6310929470000001e+03 4.6704658980000004e+03
-4.6310929470000001e+03 4.6704658980000004e+03
ITEM: ATOMS id type x y z c_q[1] c_q[2] c_q[3] c_q[4] 
2754 2 -526.108 520.026 -690.114 -0.520312 -0.110086 0.668984 0.519247 
2755 2 -533.615 526.398 -689.064 -0.870952 0.386265 0.284487 -0.106345 
2756 2 -539.85 532.235 -684.112 -0.409427 0.539781 -0.0633285 -0.7328 
2757 2 -547.388 537.445 -680.121 0.38868 0.230217 -0.551989 -0.700882 
2758 2 -554.654 543.703 -677.624 0.786587 -0.215331 -0.55768 -0.154617 
2759 2 -562.728 548.725 -674.826 0.480726 -0.690891 -0.179612 0.509227 
2753 2 -517.51 515.147 -689.337 0.0844009 -0.666058 0.330748 0.663211 
2752 2 -508.429 511.21 -689.286 0.552602 -0.652492 -0.296399 0.42548 
2751 2 -499.731 506.364 -689.256 0.67496 -0.138673 -0.67351 -0.26755 
2760 2 -571.135 553.883 -675.253 0.0024556 -0.567056 0.395188 0.722681 
2771 2 -646.115 631.438 -670.809 0.312648 0.150649 -0.622798 -0.701198 
2769 2 -632.9 616.753 -670.495 -0.659601 0.655236 0.331245 -0.160836 
2770 2 -639.498 624.153 -670.82 -0.290733 0.629556 -0.273185 -0.666711 
2799 2 -547.263 673.469 -747.762 0.351425 -0.931108 -0.0198021 0.0956378 
2791 2 -564.392 643.564 -678.153 -0.0944266 -0.618537 -0.740577 -0.245033 
2792 2 -560.113 646.008 -686.801 0.213323 -0.960972 0.0167629 -0.175341 
2793 2 -557.629 649.765 -695.569 0.224229 -0.564646 0.794185 0.0128746 
2794 2 -554.016 652.88 -704.209 0.0176479 0.189045 0.959395 0.208594 
2795 2 -552.052 656.823 -713.092 -0.0802827 0.886304 0.400126 0.218906 
2796 2 -548.858 659.638 -722.026 -0.251631 0.866581 -0.430463 -0.0205088 
2797 2 -546.939 663.613 -730.848 -0.114071 0.25165 -0.933679 -0.227822 
2798 2 -545.96 667.974 -739.617 0.194248 -0.519837 -0.81306 -0.175983 
2800 2 -549.908 679.704 -755.013 0.199604 -0.552217 0.702796 0.401611 
2801 2 -552.105 687.537 -760.658 -0.218328 0.149803 0.866892 0.422362 
2763 2 -593.078 573.793 -673.535 -0.314005 0.593273 -0.26602 -0.691854 
2762 2 -586.076 566.811 -674.517 -0.712574 0.583348 0.355066 -0.160848 
2761 2 -578.973 559.977 -675.138 -0.557945 0.069809 0.681988 0.46767 
2814 2 -521.824 691.742 -685.052 0.480949 -0.136233 0.834602 -0.231448 
2813 2 -528.584 697.352 -680.411 -0.00602645 -0.665574 0.54762 -0.507038 
2802 2 -554.397 695.442 -766.079 -0.462089 0.737572 0.470404 0.145539 
2804 3 -557.86 702.473 -714.805 -0.881131 -0.388632 -0.243432 -0.11539 
2764 2 -599.221 581.311 -671.739 0.301112 0.124749 -0.662737 -0.674202 
2765 2 -605.266 589.033 -670.807 0.743606 -0.402388 -0.50736 -0.166492 
2767 2 -618.631 603.309 -668.139 -0.0704277 -0.423106 0.600502 0.674847 
2766 2 -611.892 596.302 -670.184 0.559868 -0.61861 0.0260557 0.550627 
2812 2 -534.653 703.626 -675.86 -0.448832 -0.832762 -0.151594 -0.286488 
2768 2 -625.618 610.35 -668.246 -0.572223 0.177497 0.744237 0.295241 
2772 2 -652.154 638.982 -669.075 0.845027 -0.378616 -0.351086 -0.138989 
2790 2 -566.337 641.492 -668.647 -0.113796 0.148545 -0.97719 -0.10042 
2815 2 -513.168 689.441 -689.346 0.574229 0.502552 0.53292 0.365648 
2816 2 -503.413 687.688 -690.073 0.131605 0.724431 -0.144785 0.660997 
2818 2 -485.712 680.058 -694.344 -0.590625 -0.460942 -0.647231 -0.140664 
2819 2 -476.932 676.628 -697.268 -0.343305 -0.81439 -0.152438 -0.44235 
2820 2 -468.585 672.843 -701.103 0.0514554 -0.697829 0.519258 -0.490671 
2828 2 -442.501 630.536 -759.473 0.273552 0.220801 0.89068 -0.288279 
2827 2 -447.607 635.471 -752.642 0.0555524 -0.625562 0.681746 -0.375245 
2829 2 -438.828 624.469 -766.515 0.36245 0.845906 0.389254 0.0394171 
2826 2 -449.779 639.302 -743.742 -0.249201 -0.959528 -0.0827731 -0.101754 
2825 2 -452.627 644.367 -735.817 -0.302338 -0.562814 -0.759531 0.122252 
2824 2 -453.581 649.277 -727.257 0.00524257 0.1864 -0.94172 0.279984 
2823 2 -453.983 655.577 -719.64 0.25731 0.865368 -0.39735 0.164448 
2822 2 -457.093 661.844 -712.656 0.403677 0.78178 0.471744 -0.0576435 
2830 1 -414.693 660.453 -785.242 0.903457 -0.0655504 -0.189242 -0.379019 
2821 2 -461.765 667.884 -706.297 0.274244 0.110661 0.901705 -0.315392 
2831 3 -420.654 671.2 -752.487 0.926156 -0.0758641 -0.148476 -0.338281 
2817 2 -494.45 683.898 -691.593 -0.440523 0.301748 -0.744087 0.401526 
2832 2 -393.044 702.315 -783.414 -0.94966 0.218082 0.0927848 -0.204883 
2811 2 -541.784 709.445 -672.104 -0.541657 -0.348561 -0.747016 0.164559 
2803 1 -575.488 724.526 -735.532 -0.869008 -0.422475 -0.215062 -0.14173 
2810 2 -549.486 715.569 -672.753 -0.21069 0.368684 -0.573506 0.700552 
2805 2 -586.588 739.459 -692.174 -0.632502 -0.520988 -0.142732 -0.555104 
2806 2 -579.086 734.736 -687.744 0.0649224 -0.451222 0.208291 -0.865332 
2807 2 -571.582 731.526 -682.211 0.696705 -0.0947072 0.533282 -0.470364 
2808 2 -563.275 728.427 -677.774 0.800499 0.379578 0.450799 0.109096 
2809 2 -555.297 723.154 -675.136 0.471748 0.586002 -0.139531 0.643884 
2833 2 -395.57 706.657 -774.828 -0.41713 0.216949 -0.134978 -0.872191 
2834 2 -398.369 710.514 -766.08 0.499043 0.0812897 -0.134051 -0.852278 
2836 2 -405.022 712.722 -747.698 0.714027 -0.0782761 -0.147308 0.679955 
2837 2 -407.629 711.545 -738.255 -0.00314227 -0.134266 -0.00633911 0.99092 
2839 2 -408.884 711.276 -718.721 -0.986458 0.113643 -0.0890174 -0.0778629 
2838 2 -409.322 710.762 -728.588 -0.678174 0.0324009 0.0225641 0.73384 
2840 2 -407.09 713.519 -709.151 -0.558959 -0.095199 -0.143106 -0.811186 
2841 2 -404.569 715.164 -699.661 0.352615 -0.166491 -0.054203 -0.919242 
2842 2 -401.87 716.555 -690.261 0.943023 -0.074268 0.0137448 -0.324041 
2843 2 -400.642 717.775 -680.543 0.836386 -0.0212524 0.182416 0.51646 
2835 2 -400.646 711.788 -756.559 0.952133 -0.0198923 -0.26089 -0.158064 
2844 2 -398.163 719.877 -671.222 0.188131 0.0522954 0.0636487 0.978683 
2880 2 -265.684 784.71 -690.421 -0.251849 0.95093 0.0874897 0.157002 
2881 2 -263.402 789.921 -698.602 -0.266599 0.617217 -0.721224 -0.166746 
2882 2 -261.321 795.723 -706.371 0.0334688 -0.280729 -0.934566 -0.216004 
2883 2 -260.594 799.91 -715.402 0.2116 -0.924759 -0.296463 -0.11025 
2884 1 -300.236 825.507 -715.315 -0.919284 -0.202295 0.0317284 -0.336136 
2879 2 -267.395 780.065 -681.866 -0.0512953 0.535247 0.803753 0.254676 
2885 3 -299.235 812.325 -682.939 -0.915075 -0.208882 0.0770435 -0.33626 
2887 2 -338.918 838.673 -686.657 0.250669 0.120837 -0.103723 0.954885 
2886 2 -340.414 841.113 -696.196 0.908178 0.139679 0.0209303 0.394036 
2888 2 -336.458 836.636 -677.265 -0.688671 0.0846418 -0.139547 0.706466 
2878 2 -270.907 778.716 -672.746 0.223301 -0.217082 0.950217 0.00999962 
2889 2 -333.562 835.728 -667.826 -0.97584 -0.049418 -0.198783 -0.0760215 
3126 2 -52.2669 1304.4 -682.703 -0.312742 -0.527045 0.755486 0.231637 
3125 2 -44.9908 1304.05 -676.135 -0.0699727 -0.894004 0.181324 0.40371 
3124 2 -38.1731 1305.73 -669.085 0.218137 -0.649878 -0.652752 0.322473 
3127 1 -82.9147 1336.89 -667.525 0.811273 -0.0826665 0.5587 0.151187 
3154 1 53.1244 1427.12 -767.451 -0.995105 0.0592927 -0.00466136 -0.0789216 
3146 2 50.5982 1402.77 -690.205 0.213543 0.917381 0.291262 0.167265 
3147 2 54.7708 1400.16 -698.754 0.175167 0.845269 -0.448367 0.231956 
3148 2 57.4429 1395.67 -707.143 -0.2165 0.213918 -0.918173 0.253623 
3149 2 62.438 1392.13 -714.943 -0.256907 -0.617209 -0.742829 -0.0354556 
3150 2 66.7572 1389.22 -723.38 -0.07403 -0.981141 -0.0308282 -0.175875 
3151 2 70.4533 1388.38 -732.516 0.0767958 -0.737399 0.670156 -0.035167 
3152 2 72.1491 1389.28 -742.172 0.127235 0.0719374 0.987775 -0.0541971 
3153 2 74.3586 1387.97 -751.7 0.128192 0.797446 0.587951 0.0442664 
3155 3 54.598 1432.11 -732.855 -0.994057 0.0891886 -0.0266368 -0.056442 
3145 2 44.6296 1401.7 -682.387 0.271919 0.241336 0.924208 0.116863 
3144 2 38.2708 1399.25 -675.183 0.342409 -0.573592 0.733293 -0.126608 
3156 2 30.3879 1468.01 -761.514 -0.720022 -0.016534 -0.206555 -0.662291 
3143 2 31.6106 1395.81 -668.726 0.19482 -0.892235 -0.03038 -0.40625 
3157 2 33.8215 1469.39 -752.47 0.0761558 -0.133048 -0.0375689 -0.987465 
3158 2 36.9015 1470.34 -743.109 0.814053 -0.124554 0.0859474 -0.560729 
3159 2 39.8137 1471.6 -733.72 0.89502 -0.0445049 0.177496 0.406761 
3160 2 42.8393 1474.42 -724.726 0.208143 0.152117 0.0931511 0.961696 
3161 2 46.1471 1475.59 -715.491 -0.685425 0.149905 -0.0236537 0.712153 
3162 2 48.3652 1477.82 -706.132 -0.96434 0.235397 -0.0353285 -0.115708 
3163 2 48.5386 1482.04 -697.233 -0.51627 0.10995 -0.236459 -0.815759 
3164 2 49.4677 1487.18 -688.883 0.225334 -0.231124 -0.239007 -0.915796 
3165 2 52.0321 1492.62 -680.982 0.841511 -0.340665 -0.0531031 -0.415916 
3166 2 53.8854 1498.94 -673.712 0.844008 -0.29658 0.256288 0.366069 
3193 2 30.6168 1582.99 -692.198 0.345011 -0.736989 -0.0506557 0.579007 
3192 2 40.1107 1580.59 -693.607 0.755727 -0.264798 -0.592021 0.0909368 
3191 2 49.9221 1580.16 -694.872 0.562185 0.428415 -0.52583 -0.473193 
3190 2 59.683 1580.18 -696.725 -0.0535463 0.610107 0.0571102 -0.788442 
3194 2 21.7817 1587.4 -692.875 -0.147917 -0.269462 0.627597 0.715285 
3195 2 16.0433 1595.49 -692.099 -0.659029 0.170599 0.563872 0.467573 
3189 2 69.413 1582 -697.435 -0.562519 0.334041 0.575583 -0.490605 
3188 2 79.1104 1583.11 -698.777 -0.725339 -0.216735 0.629515 0.174987 
3196 2 10.266 1602.9 -689.025 -0.793055 0.541734 0.179953 -0.212616 
3187 2 89.0586 1583.28 -698.861 -0.268286 -0.668661 0.21328 0.659868 
3197 2 4.93151 1610.47 -685.612 -0.273075 0.488345 -0.363825 -0.744702 
3198 2 -0.283012 1618.18 -682.189 0.519542 -0.0513374 -0.504073 -0.688005 
3167 2 56.3712 1505.88 -667.119 0.123355 0.0743753 0.427629 0.892404 
3186 2 98.8503 1584.5 -699.642 0.353459 -0.551906 -0.393192 0.644877 
3183 2 127.234 1588.17 -692.41 0.0939336 0.78533 0.102524 -0.60326 
3184 2 117.944 1586.1 -695.173 0.456517 0.585885 -0.54116 -0.394305 
3185 2 108.564 1585.28 -698.053 0.596166 -0.150573 -0.77515 0.145107 
3199 2 -4.61447 1625.88 -677.726 0.870891 -0.383055 -0.284379 0.118099 
3223 2 49.2927 1683.01 -692.279 0.177531 -0.0801433 0.933236 0.301879 
3224 2 52.1098 1688.73 -699.808 -0.0363815 0.690191 0.664292 0.284655 
3225 2 55.4231 1693.73 -707.645 -0.248051 0.961948 -0.0992925 0.0571603 
3226 2 57.9713 1698.26 -716.104 -0.264281 0.53423 -0.802941 -0.00621846 
3227 2 62.065 1700.98 -724.637 -0.131431 -0.36514 -0.921498 -0.0154836 
3228 2 65.6129 1700.69 -733.975 -0.0862233 -0.972052 -0.1873 -0.112247 
3229 2 68.4537 1699.61 -743.405 -0.0287103 -0.836112 0.543143 0.071332 
3230 2 67.1289 1700.22 -753.214 -0.0918186 -0.0927514 0.977203 0.167457 
3231 2 65.4537 1702.57 -762.665 -0.218076 0.675464 0.694181 0.119602 
3232 2 63.993 1706.61 -771.643 -0.27949 0.941566 -0.102722 -0.157441 
3233 2 61.4434 1712.06 -779.543 -0.0744013 0.532772 -0.779588 -0.320721 
3234 2 58.8476 1717.43 -787.383 0.191297 -0.200115 -0.925637 -0.257985 
3236 3 38.1983 1732.83 -742.35 0.89236 0.13016 0.237872 0.360789 
3222 2 49.4921 1677.96 -683.724 0.205887 -0.823982 0.502793 0.160819 
3221 2 49.9112 1672.72 -675.234 0.240941 -0.875237 -0.405229 -0.108154 
3235 1 18.3437 1735.13 -771.117 0.887473 0.164814 0.237797 0.35872 
3238 2 -3.92316 1749.76 -729.421 -0.614455 0.268022 -0.284684 0.685247 
3237 2 -10.4042 1750.42 -736.92 0.0818009 0.337025 0.0522714 0.936478 
3239 2 2.85775 1749.9 -722.241 -0.848817 0.0101354 -0.493607 -0.189101 
3240 2 10.8204 1751.37 -716.441 -0.49497 -0.321348 -0.280642 -0.756955 
3241 2 18.6147 1752.42 -710.39 0.31252 -0.484242 0.0907698 -0.812158 
3242 2 27.0804 1753.62 -705.482 0.796534 -0.253741 0.503472 -0.218325 
3243 2 36.192 1755.35 -702.119 0.68473 0.293436 0.451831 0.490805 
3244 2 45.0233 1756.11 -697.719 -0.060839 0.542372 0.0749414 0.834575 
3245 2 53.9204 1758.12 -693.731 -0.690268 0.460369 -0.32267 0.455493 
3200 2 -10.4904 1631.81 -672.468 0.327937 -0.524644 0.107413 0.778247 
3220 2 48.3314 1666.58 -667.624 0.00159698 -0.216852 -0.911575 -0.349289 
3246 2 62.647 1761.69 -690.465 -0.790106 0.0520149 -0.558069 -0.248166 
3247 2 71.0642 1765.48 -686.853 -0.242438 -0.31801 -0.431436 -0.808676 
3248 2 78.8119 1769.96 -682.638 0.413849 -0.554468 -0.0445532 -0.720631 
3201 2 -17.3579 1637.33 -667.881 -0.43295 -0.215967 0.369238 0.793458 
3249 2 86.444 1774.85 -678.714 0.821856 -0.33703 0.446412 -0.108076 
3250 2 94.2122 1779.42 -674.684 0.553116 0.1666 0.45813 0.675592 
3251 2 101.415 1783.48 -669.282 -0.13587 0.442026 0.0407092 0.885717 
2535 2 -545.612 224.01 -539.614 -0.667631 -0.107601 -0.48636 -0.553304 
2536 2 -538.23 228.136 -534.545 0.0336215 -0.391199 -0.266436 -0.880253 
2537 2 -531.416 232.566 -528.952 0.816676 -0.394788 0.198581 -0.371144 
2533 1 -532.36 179.334 -532.239 0.924102 -0.277433 0.258415 -0.0478296 
2538 2 -525.69 237.156 -522.368 0.816072 0.0451936 0.378078 0.434789 
2539 2 -519.859 239.884 -514.865 0.0752096 0.198086 0.0587608 0.975527 
2587 1 -582.302 345.834 -518.201 0.25989 0.336206 -0.0297755 0.90473 
2589 2 -588.808 299.225 -514.706 0.576414 0.228423 -0.0691367 0.781531 
2721 2 -732.759 533.379 -555.8 0.406366 0.0127729 -0.879157 -0.248568 
2720 2 -725.813 529.577 -549.803 0.0241467 0.750625 -0.469769 -0.464 
2719 2 -718.767 525.61 -544.134 -0.303251 0.885118 0.155493 -0.316903 
2718 2 -711.519 521.217 -539.055 -0.500439 0.366495 0.782434 0.0551257 
2717 2 -703.667 517.659 -534.251 -0.316748 -0.407145 0.746502 0.420284 
2716 2 -696.789 514.175 -527.985 0.134666 -0.889903 0.110282 0.421635 
2715 2 -690.897 510.042 -521.309 0.393764 -0.607341 -0.686995 0.064229 
2714 2 -684.213 508.201 -514.216 0.357366 0.179118 -0.903555 -0.154253 
2744 2 -547.135 512.075 -600.775 0.473861 0.628881 0.297715 0.53975 
2745 2 -537.562 509.505 -600.534 -0.0799863 0.562185 -0.414115 0.711378 
2743 2 -556.484 513.275 -597.694 0.613538 0.10083 0.783201 0.000537054 
2742 2 -565.886 513.596 -594.546 0.39924 -0.526836 0.596554 -0.455165 
2741 2 -574.925 514.715 -590.782 -0.0896471 -0.816402 -0.0384041 -0.56919 
2746 2 -528.791 504.963 -600.052 -0.677004 0.116893 -0.67363 0.272442 
2740 2 -583.625 514.693 -585.916 -0.374152 -0.555575 -0.665667 -0.328989 
2739 2 -591.906 516.426 -580.847 -0.446875 0.120152 -0.862109 0.206481 
2750 3 -526.984 512.503 -645.581 -0.594327 0.555965 0.52699 -0.244867 
2738 2 -599.905 518.594 -575.475 -0.123616 0.741906 -0.437685 0.492672 
2737 2 -608.157 522.562 -571.895 0.402728 0.787782 0.241684 0.398496 
2736 2 -615.143 528.271 -567.63 0.552986 0.45441 0.698348 -0.0054219 
2735 2 -619.643 535.353 -562.394 0.197545 -0.184155 0.847628 -0.456717 
2734 2 -624.187 543.076 -558.148 -0.287956 -0.773436 0.365793 -0.430201 
2747 2 -519.287 502.45 -599.188 -0.695453 -0.464971 -0.457745 -0.301024 
2733 2 -630.293 550.583 -556.653 -0.660292 -0.609272 -0.430719 -0.0853411 
2748 2 -510.04 498.887 -598.308 -0.197749 -0.665656 0.0819173 -0.714903 
2749 1 -494.587 499.439 -642.896 -0.623165 0.498115 0.558989 -0.226005 
2723 3 -690.189 560.673 -544.297 -0.707762 -0.115325 -0.632024 0.293802 
2722 1 -719.873 578.413 -549.995 -0.704826 -0.128727 -0.639003 0.279867 
2724 2 -688.392 612.671 -542.309 0.0910375 0.522445 -0.3901 0.752719 
2725 2 -681.088 606.06 -540.854 -0.50822 -0.00694517 -0.759758 0.405502 
2726 2 -673.364 600.344 -542.903 -0.671307 -0.534938 -0.468132 -0.20986 
2775 2 -664.736 662.175 -655.741 -0.668305 0.284168 0.421499 0.543098 
2732 2 -635.618 558.625 -554.745 -0.460254 -0.161459 -0.768407 0.414304 
2774 2 -661.384 654.09 -660.37 -0.0876308 -0.135391 0.506218 0.847192 
2773 2 -657.098 646.149 -664.277 0.627232 -0.526165 0.133036 0.558598 
2727 2 -664.966 595.133 -543.27 -0.219678 -0.741969 0.17027 -0.610108 
2789 2 -568.834 638.354 -659.552 -0.170502 0.84234 -0.509845 0.0380776 
2728 2 -656.764 589.789 -544.646 0.272393 -0.235647 0.731136 -0.579408 
2788 2 -569.904 636.441 -649.857 -0.0497848 0.975277 0.206076 0.06236 
2787 2 -573.155 635.228 -640.61 0.167273 0.322122 0.925798 0.105618 
2731 2 -641.291 565.82 -550.94 0.0853786 0.557694 -0.597577 0.569728 
2776 1 -656.12 649.479 -611.148 -0.490829 -0.692181 -0.49669 -0.182403 
2729 2 -650.155 582.58 -546.345 0.540063 0.567517 0.576395 -0.232432 
2786 2 -577.227 634.022 -631.81 0.205299 -0.440252 0.872944 -0.0447146 
2730 2 -646.601 574.024 -549.453 0.548032 0.750117 0.0341976 0.368532 
2785 2 -581.649 632.43 -623.104 0.111223 -0.957015 0.133781 -0.232065 
2777 3 -630.251 634.117 -628.883 -0.471942 -0.683338 -0.535718 -0.152726 
2784 2 -587.066 631.847 -614.819 -0.187264 -0.678312 -0.67286 -0.228221 
2778 2 -630.572 628.929 -577.281 0.0890618 -0.767826 0.2835 -0.567574 
2779 2 -621.547 627.378 -581.012 0.44726 -0.389642 0.771037 -0.231601 
2780 2 -613.061 626.769 -585.913 0.346742 0.313482 0.875094 0.125336 
2781 2 -606.001 626.41 -592.843 0.0574128 0.85757 0.317974 0.400214 
2783 2 -592.858 629.94 -607.038 -0.316753 0.147818 -0.935884 -0.0440207 
2782 2 -598.615 627.696 -599.377 -0.238781 0.796186 -0.515186 0.208939 
2845 2 -396.581 720.977 -661.552 -0.691782 0.12231 -0.0140443 0.711534 
2846 2 -395.266 722.139 -651.717 -0.994167 0.0525075 -0.0320579 -0.0885887 
2847 2 -394.51 723.767 -642.005 -0.437902 0.0386837 -0.154983 -0.884718 
2848 2 -394.124 727.36 -632.752 0.357773 -0.0202137 -0.170653 -0.91786 
2849 2 -395.243 730.576 -623.383 0.899339 -0.243933 -0.146465 -0.332016 
2850 2 -396.559 736.199 -615.376 0.776931 -0.375419 0.0295364 0.504545 
2851 2 -399.593 742.313 -608.256 0.0284581 -0.218828 0.390123 0.893929 
2852 2 -403.201 749.319 -602.178 -0.70882 0.173883 0.417714 0.54116 
2853 2 -407.103 756.438 -596.553 -0.870364 0.411723 0.038031 -0.267402 
2857 1 -394.571 765.526 -539.68 -0.354864 -0.700309 -0.618233 -0.0377695 
2854 2 -410.428 763.236 -590.359 -0.257424 0.349433 -0.208952 -0.876338 
2855 2 -415.116 769.04 -583.861 0.463349 0.127085 -0.411057 -0.774719 
2856 2 -420.893 774.283 -577.83 0.883461 -0.240879 -0.372735 -0.150142 
2858 3 -376.347 750.767 -565.583 -0.371393 -0.711938 -0.589023 -0.090897 
2877 2 -276.203 775.781 -664.962 0.299527 -0.793241 0.509983 -0.144808 
2876 2 -280.555 771.91 -656.902 0.0621157 -0.88537 -0.354695 -0.29403 
2863 2 -334.453 746.325 -549.054 0.0518216 -0.77673 0.573715 -0.254667 
2862 2 -339.512 744.464 -540.745 -0.00668052 -0.926318 -0.262131 -0.270515 
2861 2 -346.864 744.116 -534.124 -0.39029 -0.336808 -0.836079 -0.187634 
2864 2 -330.326 744.339 -557.914 0.136009 0.0262904 0.988024 -0.067958 
2865 2 -327.378 743.236 -567.343 0.169603 0.744121 0.638468 0.0993902 
2860 2 -352.109 746.631 -526.065 -0.202892 0.426178 -0.837728 0.274627 
2866 2 -323.416 741.767 -576.202 -0.0173196 0.959116 -0.0894779 0.267936 
2867 2 -318.351 741.473 -584.574 -0.328008 0.561256 -0.75505 0.0854504 
2868 2 -312.592 743.983 -592.21 -0.344543 -0.225431 -0.879273 -0.239478 
2869 2 -305.743 747.124 -598.65 0.0268947 -0.868749 -0.331753 -0.366732 
2870 2 -299.436 750.03 -605.626 0.217459 -0.86681 0.417586 -0.164238 
2871 2 -294.595 752.554 -613.886 0.232331 -0.247199 0.93134 0.132365 
2872 2 -290.763 756.683 -622.076 -0.0240555 0.520891 0.808651 0.272356 
2875 2 -283.764 768.54 -648.173 -0.135151 -0.130609 -0.96164 -0.19981 
2874 2 -286.465 765.813 -639.142 -0.199342 0.681651 -0.703959 0.00751507 
2890 2 -329.879 835.41 -658.663 -0.583611 -0.34776 -0.0848497 -0.728877 
2891 2 -323.879 833.055 -651.15 0.233157 -0.366778 0.295119 -0.850892 
2892 2 -316.853 829.612 -645.018 0.84086 -0.0029774 0.412195 -0.350772 
2873 2 -288.844 761.09 -630.756 -0.238403 0.961995 0.0709303 0.112686 
2893 2 -310.398 826.989 -638.014 0.772162 0.250604 0.223452 0.539475 
2894 2 -304.346 825.451 -630.355 -0.00646164 0.320789 -0.101329 0.941693 
2895 2 -297.74 823.468 -623.333 -0.757071 0.194444 -0.377807 0.496283 
2896 2 -290.409 823.272 -616.62 -0.883837 -0.223657 -0.318717 -0.259284 
2897 2 -283.36 821.623 -609.821 -0.309062 -0.48181 -0.0554661 -0.818086 
2898 2 -275.159 819.581 -604.52 0.442506 -0.330222 0.380114 -0.742062 
2899 2 -267.273 817.016 -599.058 0.819807 0.0819865 0.529084 -0.203138 
2900 2 -259.181 813.575 -594.542 0.739202 0.456055 0.257991 0.423126 
2901 2 -251.62 809.017 -590.107 0.0581393 0.526305 -0.208159 0.82237 
2902 2 -243.764 804.163 -586.436 -0.488696 0.124082 -0.589218 0.63135 
2903 2 -236.235 798.5 -583.358 -0.821529 -0.236981 -0.516684 -0.0443525 
2904 2 -227.99 794.594 -579.507 -0.412845 -0.600579 -0.0348358 -0.68385 
2905 2 -219.921 789.71 -576.513 0.225881 -0.498983 0.445753 -0.708024 
2906 2 -210.903 785.736 -575.333 0.517606 0.0815806 0.79497 -0.305697 
2859 2 -356.95 747.659 -517.504 0.02044 0.962805 -0.15778 0.218388 
2907 2 -203.608 779.756 -578.025 0.595409 0.667486 0.332131 0.299399 
2908 2 -195.703 773.903 -578.903 0.0326799 0.619382 -0.336737 0.708454 
2910 2 -179.605 762.261 -579.07 -0.695179 -0.540763 -0.459358 -0.115287 
2909 2 -187.308 768.567 -578.756 -0.516271 0.0187826 -0.708107 0.481347 
2911 1 -150.368 796.156 -594.05 -0.813953 0.146774 0.461381 0.321039 
2912 3 -174.861 813.954 -576.463 -0.795919 0.100732 0.472864 0.364369 
2913 2 -137.897 841.074 -600.875 0.835661 -0.225578 -0.0171008 0.500493 
2914 2 -140.025 844.491 -591.893 0.0906046 -0.132104 0.0879601 0.983159 
2915 2 -142.934 847.154 -582.753 -0.676876 -0.0900559 0.23105 0.69307 
2916 2 -147.766 848.926 -574.377 -0.918919 0.189007 0.3373 -0.0780585 
2917 2 -154.255 851.348 -567.181 -0.554249 0.28907 0.041288 -0.77945 
2918 2 -158.958 853.276 -558.636 0.366186 0.291793 -0.0873884 -0.879277 
2919 2 -164.356 853.062 -550.452 0.939585 0.135184 -0.249715 -0.191175 
2920 2 -169.317 852.17 -541.895 0.812729 -0.00228125 -0.215824 0.54119 
2921 2 -173.026 850.168 -532.958 0.141234 -0.176917 -0.0757579 0.971089 
2922 2 -176.472 849.141 -523.838 -0.722044 -0.190423 -0.114396 0.655214 
2923 2 -177.553 844.941 -514.961 -0.939649 -0.257029 0.0660219 -0.215958 
2992 1 -222.178 1084.11 -540.083 0.827605 0.0657716 0.554346 0.0586962 
2994 2 -217.678 1123.92 -515.182 -0.64039 -0.421191 -0.466072 -0.441899 
2991 2 -205.421 1044.87 -560.286 -0.329961 0.705702 0.565561 -0.270649 
2990 2 -197.722 1043.13 -554.393 -0.437915 0.102039 0.891828 0.049606 
3010 2 -64.0756 1140.43 -526.918 0.531103 -0.50581 0.490772 -0.470349 
2989 2 -190.967 1041.25 -547.322 -0.173429 -0.66025 0.648304 0.337188 
2988 2 -184.593 1041.42 -539.848 0.0492407 -0.920366 -0.138813 0.36226 
2987 2 -179.479 1040.93 -531.421 0.287734 -0.438089 -0.846067 0.097253 
2986 2 -172.706 1039.68 -524.326 0.326004 0.337712 -0.854303 -0.223246 
3022 2 -61.7315 1138.73 -613.479 0.378134 -0.020772 -0.464551 -0.800485 
3023 2 -65.4455 1145.96 -607.947 0.849797 -0.341135 -0.357725 -0.183045 
2993 3 -189.407 1082.46 -528.228 0.845282 0.0474812 0.524778 0.0886169 
3024 2 -70.0713 1153.04 -602.808 0.759968 -0.451879 0.0417143 0.465311 
3025 2 -74.092 1160.07 -597.177 0.195723 -0.273088 0.22906 0.91359 
3009 2 -73.7776 1138.93 -525.537 -0.0120309 -0.739233 -0.137746 -0.659102 
3008 2 -83.614 1137.62 -526.055 -0.592238 -0.344658 -0.585087 -0.433749 
3007 2 -92.746 1136.69 -522.512 -0.533183 0.288517 -0.781691 0.146397 
3006 2 -101.829 1133.8 -519.91 -0.335145 0.781286 -0.21012 0.482824 
3005 2 -110.884 1130.32 -517.921 0.204513 0.625548 0.496144 0.566309 
3021 2 -58.066 1132.23 -620.01 -0.365073 0.319927 -0.226275 -0.844493 
2985 2 -165.079 1037.74 -518.423 0.0525976 0.840891 -0.24468 -0.479862 
3004 2 -120.235 1128.29 -515.47 0.608089 0.0508548 0.780034 0.138518 
3011 2 -54.2319 1141.36 -527.32 0.70428 0.129285 0.68941 0.109491 
3012 2 -44.2554 1141.23 -526.897 0.37256 0.632079 0.358856 0.576973 
3020 3 -42.2146 1144.17 -571.999 -0.766427 0.378038 0.237167 -0.461984 
3013 2 -34.5181 1140.78 -527.652 -0.244234 0.738433 -0.314882 0.543981 
3014 2 -24.98 1140.84 -530.288 -0.523336 0.169959 -0.818764 0.163888 
3015 2 -15.9435 1140.13 -534.37 -0.33875 -0.666811 -0.641542 -0.170399 
3017 2 -1.87944 1137.21 -547.895 0.28131 -0.598697 0.685545 -0.304064 
3016 2 -9.45343 1138.06 -541.539 -0.031894 -0.903982 -0.00925098 -0.42628 
3018 2 5.76769 1136.08 -554.066 0.421607 0.209218 0.879873 0.065562 
3019 1 -18.6512 1130.92 -594.08 -0.778451 0.374136 0.228009 -0.449497 
3026 2 -78.4104 1165.39 -590.028 -0.715419 0.00117065 0.420737 0.557812 
3028 2 -91.2814 1175.04 -578.601 -0.287684 0.36269 -0.29577 -0.835592 
3029 2 -95.6915 1182.05 -573.187 0.434716 -0.00596718 -0.508178 -0.743466 
3030 2 -99.9384 1189.42 -568.102 0.884762 -0.341689 -0.275758 -0.156213 
3031 2 -103.113 1196.53 -562.033 0.69839 -0.408355 0.186347 0.55747 
3032 2 -105.179 1203.73 -555.435 0.0158695 -0.127234 0.463927 0.876545 
3033 2 -107.63 1211.63 -550.026 -0.654927 0.273981 0.460577 0.532797 
3034 2 -111.013 1219.84 -545.589 -0.868912 0.463745 0.152183 -0.082303 
3035 2 -114.459 1227.7 -540.672 -0.437753 0.387119 -0.340136 -0.736762 
3027 2 -84.4897 1169.97 -583.719 -0.801591 0.415344 0.307066 -0.301084 
3036 2 -117.262 1235.84 -535.697 0.412401 -0.0351907 -0.456352 -0.787674 
3037 2 -119.759 1243.63 -530.109 0.894029 -0.320345 -0.236305 -0.205552 
3038 2 -122.73 1250.3 -523.327 0.646974 -0.361449 -0.0506246 0.669489 
3039 2 -127.807 1254.61 -515.88 -0.0738555 -0.135236 0.240804 0.958264 
3123 2 -31.3942 1308.5 -662.251 0.384221 0.164672 -0.905834 0.0687211 
3084 2 34.19 1294.42 -554.156 -0.137799 0.138223 -0.690293 -0.696708 
3085 2 34.6366 1304.28 -553.646 0.436013 -0.385579 -0.541983 -0.606198 
3083 2 35.1048 1284.71 -556.158 -0.688928 0.610275 -0.225409 -0.319584 
3082 2 36.5391 1275.02 -557.688 -0.687821 0.557771 0.364301 0.288234 
3081 2 40.0056 1266.05 -560.156 -0.238834 -0.0251164 0.619373 0.747465 
3080 2 45.5302 1258.06 -562.044 0.323069 -0.544178 0.326023 0.702286 
3079 2 49.0307 1249.12 -564.251 0.775725 -0.602036 -0.131472 0.136085 
3078 2 54.5608 1240.93 -563.67 0.586512 -0.280926 -0.665429 -0.366454 
3077 2 59.3906 1232.47 -562.043 0.0117598 0.36648 -0.67022 -0.645259 
3076 2 65.1986 1224.59 -560.582 -0.454966 0.759159 -0.101455 -0.454302 
3075 2 70.8526 1217.15 -557.392 -0.596108 0.610943 0.520405 0.0241527 
3074 3 56.7464 1249.62 -519.441 0.504785 -0.682473 -0.364891 0.382462 
3073 1 88.421 1235.03 -517.413 0.543158 -0.613367 -0.366812 0.440692 
3122 2 -24.6402 1312.6 -656.208 0.369533 0.807702 -0.406305 -0.214428 
3086 2 34.3171 1314.04 -551.971 0.762988 -0.628151 -0.150601 0.0243835 
3129 2 -94.7117 1376.4 -644.49 0.304692 -0.509544 0.0528185 -0.802956 
3130 2 -86.253 1379.05 -640.228 0.735457 -0.367862 0.513373 -0.245415 
3131 2 -77.3819 1382.64 -637.959 0.633605 0.172497 0.658051 0.368455 
3132 2 -67.7681 1384.66 -636.956 0.131113 0.590146 0.318383 0.730184 
3133 2 -58.1531 1387.07 -636.593 -0.409803 0.640384 -0.369928 0.53397 
3142 2 23.4584 1394.59 -663.26 -0.29191 -0.587885 -0.672247 -0.342439 
3128 3 -52.5433 1347.71 -654.113 0.793326 -0.11862 0.554399 0.221824 
3121 2 -19.598 1318.21 -649.788 0.188588 0.815459 0.431554 -0.336485 
3134 2 -48.3634 1388.17 -636.952 -0.635762 0.0803655 -0.767686 -0.00252965 
3141 2 15.5271 1390.62 -658.839 -0.541029 0.295292 -0.783502 -0.0788353 
3140 2 7.09038 1387.36 -654.806 -0.322437 0.811629 -0.245739 0.4206 
3135 2 -38.6786 1389.03 -638.681 -0.423736 -0.569387 -0.546115 -0.444977 
3139 2 -1.2395 1384.92 -650.119 0.175132 0.744294 0.412356 0.495296 
3136 2 -29.0445 1388.84 -641.301 0.0321062 -0.767322 0.0826766 -0.635099 
3138 2 -10.1937 1386.02 -646.204 0.522557 0.145292 0.837374 0.0680329 
3137 2 -19.4822 1388.14 -643.377 0.416608 -0.409255 0.681484 -0.441052 
3087 2 31.4269 1323.37 -550.09 0.45657 -0.464513 0.343596 0.676545 
3088 2 27.4714 1331.81 -546.757 -0.250721 -0.017753 0.497582 0.830202 
3120 2 -15.8985 1325.2 -643.848 -0.136981 0.124937 0.907144 -0.377779 
3119 2 -15.3428 1331.76 -636.452 -0.266117 -0.709847 0.610731 -0.228709 
3118 2 -16.2415 1339.87 -630.876 -0.435001 -0.865926 -0.226972 0.0971039 
3117 2 -15.0568 1347.78 -625.104 -0.121351 -0.434257 -0.784871 0.425056 
3116 2 -12.923 1355.06 -618.822 0.267835 0.346798 -0.825141 0.356565 
3115 2 -9.56674 1362.47 -613.214 0.479938 0.823914 -0.298939 -0.0382128 
3114 2 -6.73357 1371.32 -609.691 0.335192 0.705878 0.455935 -0.426036 
3113 2 -2.48585 1380.01 -607.739 -0.168457 0.165573 0.760015 -0.605462 
3112 2 2.41298 1387.76 -604.384 -0.527486 -0.479279 0.676574 -0.185198 
3111 2 8.82934 1393.33 -599.171 -0.388782 -0.866597 0.140913 0.279289 
3110 2 13.47 1400.38 -593.928 -0.127185 -0.666235 -0.565797 0.468859 
3108 2 25.2121 1412.59 -583.882 0.548705 0.622719 -0.557606 -0.0148387 
3107 2 33.1641 1417.13 -580.128 0.208882 0.82216 0.082297 -0.523114 
3109 2 19.1063 1405.98 -587.991 0.299219 -0.0100918 -0.910647 0.284759 
3106 2 39.5164 1423.7 -576.254 -0.192545 0.332681 0.757685 -0.527412 
3105 2 44.3987 1430.79 -571.552 -0.445793 -0.403638 0.760691 -0.244324 
3103 2 48.2856 1444.91 -558.099 -0.199074 -0.62996 -0.655597 0.365667 
3104 2 46.4825 1437.73 -564.701 -0.362061 -0.919917 0.0368028 0.145981 
3101 3 18.9803 1415.42 -538.385 0.11273 0.162703 0.84803 -0.491594 
3102 2 50.0027 1453.8 -554.214 0.114017 0.0539084 -0.841027 0.526087 
3089 2 25.1303 1339.8 -541.4 -0.822762 0.401202 0.297549 0.271228 
3090 2 22.0054 1347.85 -536.554 -0.738677 0.424015 -0.174657 -0.494026 
3091 2 20.6301 1355.75 -530.737 -0.167184 0.160969 -0.406555 -0.883658 
3092 2 18.9541 1363.32 -524.686 0.642552 -0.121724 -0.522922 -0.546683 
3093 2 14.3277 1370.72 -519.974 0.867783 -0.422742 -0.206421 0.1601 
3100 1 17.3508 1445.75 -521.061 0.12287 0.167759 0.852355 -0.479845 
3094 2 9.17268 1377.36 -514.869 0.421355 -0.431683 0.218087 0.767169 
3168 2 59.3314 1512.96 -660.943 -0.581905 0.340853 0.0781614 0.734232 
3169 2 63.2697 1518.55 -653.703 -0.899797 0.322519 -0.285078 -0.0712641 
3170 2 67.8377 1524.77 -647.471 -0.399058 -0.0302922 -0.431299 -0.808589 
3171 2 71.5186 1531.77 -641.488 0.320852 -0.324416 -0.34116 -0.821838 
3172 2 74.7839 1539.32 -635.925 0.880991 -0.41884 -0.0947338 -0.198629 
3210 2 36.2687 1612.09 -592.581 0.157849 0.423453 0.875141 0.172915 
3211 2 40.1346 1614.22 -601.387 -0.106196 0.944476 0.182893 0.25147 
3173 2 75.2753 1546.98 -629.775 0.713755 -0.338221 0.259598 0.55567 
3174 2 75.5118 1554.88 -623.848 0.0915785 -0.0166731 0.470357 0.877553 
3175 2 76.8736 1562.91 -618.14 -0.497976 0.46068 0.338055 0.652314 