ITEM: TIMESTEP
10000000
ITEM: NUMBER OF ATOMS
4067
ITEM: BOX BOUNDS pp pp pp
-4.6310929470000001e+03 4.6704658980000004e+03
-4.6310929470000001e+03 4.6704658980000004e+03
-4.6310929470000001e+03 4.6704658980000004e+03
ITEM: ATOMS id type x y z c_q[1] c_q[2] c_q[3] c_q[4] 
1696 1 178.711 -590.298 -527.298 -0.0668438 0.452823 0.21214 -0.863412 
1749 2 122.154 -540.711 -521.571 0.23111 -0.609261 -0.751136 -0.105753 
1698 2 181.373 -637.335 -524.72 -0.343104 0.361387 0.3432 -0.796174 
1699 2 173.297 -640.14 -519.811 0.468674 0.479751 -0.21091 -0.711126 
1700 2 164.421 -641.552 -515.601 0.804583 0.214678 -0.541178 -0.116991 
1695 2 159.479 -548.479 -517.042 0.239635 0.375158 0.825105 0.347898 
1777 1 168.216 -667.043 -419.688 -0.724563 0.663607 0.00524084 0.186032 
1710 2 78.2874 -627.14 -476.593 -0.411603 -0.222835 0.508622 0.722656 
1711 2 70.968 -621.663 -472.999 -0.783377 0.282901 0.499769 0.237735 
1720 2 30.7539 -554.961 -433.2 -0.327433 0.28326 -0.286082 -0.854815 
1719 2 36.3798 -560.896 -438.82 -0.764123 0.475493 0.14092 -0.412509 
1721 2 27.3774 -548.374 -426.645 0.385882 0.00180441 -0.356678 -0.850807 
1718 2 40.6216 -567.618 -444.78 -0.795838 0.246392 0.360923 0.419128 
1722 2 24.5057 -542.11 -419.452 0.901409 -0.310239 -0.215647 -0.211446 
1717 2 45.8215 -573.681 -450.75 -0.171005 -0.220595 0.380047 0.88185 
1716 2 49.9298 -581.767 -454.913 0.578434 -0.508548 0.185573 0.61021 
1715 2 53.4447 -589.531 -459.85 0.84894 -0.440024 -0.266105 -0.121931 
1713 2 59.4546 -606.688 -467.363 -0.222505 0.323531 -0.407403 -0.824525 
1712 2 64.6724 -614.808 -469.572 -0.700222 0.622908 0.0977403 -0.334846 
1714 2 55.8503 -598.608 -462.818 0.472441 -0.192341 -0.573456 -0.641056 
1724 3 29.0214 -592.929 -409.574 -0.263127 -0.926228 -0.126712 -0.23835 
1735 2 71.0486 -620.213 -433.277 0.14189 -0.882428 -0.105559 -0.435942 
1728 2 23.6519 -633.219 -387.409 -0.175177 -0.863235 -0.17961 -0.43804 
1729 2 31.8921 -634.342 -392.773 0.319781 -0.640508 0.612426 -0.335297 
1730 2 39.7336 -634.428 -398.751 0.450525 0.0585382 0.889421 0.0503013 
1731 2 47.4565 -633.617 -404.916 0.0895066 0.69553 0.571553 0.426091 
1732 2 54.5535 -630.085 -410.889 -0.146912 0.90758 -0.287835 0.268079 
1733 2 60.2207 -627.791 -418.634 -0.390599 0.37615 -0.839867 -0.0238216 
1734 2 65.9618 -623.975 -425.637 -0.149118 -0.418067 -0.837289 -0.319265 
1727 2 17.4885 -627.699 -381.816 -0.458621 -0.554683 -0.692719 0.0461901 
1726 2 11.9928 -621.679 -376.269 -0.226497 0.232105 -0.851241 0.412572 
1725 2 6.62628 -617.075 -369.466 0.105879 0.869728 -0.304503 0.373686 
1723 1 11.3657 -573.381 -386.617 -0.29755 -0.905309 -0.133732 -0.27202 
1709 2 86.1945 -632.212 -479.812 0.229393 -0.566581 0.146507 0.777753 
1659 2 73.4233 -589.06 -364.559 -0.715772 -0.0350284 0.681894 0.146507 
1658 2 83.0735 -590.843 -365.509 -0.415444 -0.488263 0.482859 0.596533 
1736 2 78.0723 -616.723 -439.393 0.508328 -0.607745 0.582861 -0.180338 
1737 2 86.156 -612.384 -443.265 0.389896 0.0245099 0.887215 0.24542 
1657 2 92.1268 -594.824 -365.254 0.251711 -0.711305 -0.026953 0.655714 
1738 2 93.0155 -608.369 -449.173 -0.0586237 0.688599 0.549214 0.469849 
1708 2 95.3012 -635.472 -482.346 0.755923 -0.38323 -0.441372 0.294799 
1660 2 63.6376 -587.965 -363.648 -0.680153 0.373325 0.349902 -0.524965 
1748 2 124.094 -545.311 -513.087 0.0693603 0.15718 -0.95636 -0.236345 
1701 2 155.348 -643.354 -512.007 0.747686 -0.267261 -0.329322 0.510964 
1656 2 100.89 -599.187 -363.836 0.646777 -0.473136 -0.581087 0.141986 
1747 2 124.838 -550.825 -504.917 -0.208904 0.766913 -0.572036 -0.20243 
1694 2 152.701 -551.94 -510.772 0.411123 -0.41708 0.810371 0.0179313 
1739 2 98.4853 -601.878 -454.268 -0.320962 0.900882 -0.153988 0.248361 
1740 2 103.979 -596.765 -460.712 -0.422451 0.487888 -0.754133 -0.121586 
1746 2 124.33 -558.122 -498.167 -0.415468 0.905813 0.0740529 0.037476 
1745 2 123.734 -565.906 -492.011 -0.192788 0.476154 0.773121 0.372015 
1707 2 104.588 -638.153 -484.252 0.695999 0.0875314 -0.639702 -0.314173 
1751 3 120.427 -523.4 -472.706 0.88199 0.273922 0.343964 0.169557 
1760 2 145.758 -522.878 -430.438 0.0238355 0.360003 -0.448631 0.817655 
1703 2 140.291 -642.229 -499.128 -0.711085 -0.265734 0.358857 0.543107 
1704 2 132.43 -642.011 -493.118 -0.851805 0.141477 0.484931 -0.138759 
1705 2 123.532 -640.929 -488.841 -0.416725 0.539278 0.191454 -0.706304 
1702 2 147.775 -643.058 -505.626 -0.00867758 -0.428329 0.0391869 0.902731 
1744 2 122.722 -574.121 -486.718 0.194904 -0.226208 0.836482 0.459501 
1706 2 114.153 -639.547 -486.085 0.226878 0.573582 -0.33412 -0.712667 
1743 2 118.875 -580.912 -480.624 0.450221 -0.804944 0.385706 -0.0244343 
1741 2 109.219 -591.016 -466.833 -0.206232 -0.265775 -0.87988 -0.335625 
1687 2 131.944 -567.518 -447.232 0.292078 -0.584641 0.756371 -0.028083 
1688 2 136.888 -565.166 -455.547 0.154794 0.337969 0.917169 0.143586 
1684 2 123.916 -565.346 -418.818 -0.0734431 0.377788 -0.92281 0.0174411 
1683 2 125.546 -564.922 -409.093 0.0212975 0.96915 -0.234845 -0.0717097 
1685 2 125.681 -565.812 -428.52 -0.145309 -0.520265 -0.838033 -0.076879 
1686 2 128.727 -567.055 -437.883 -0.0246865 -0.990647 -0.0400636 -0.128081 
1682 2 127.468 -565.914 -399.431 -0.107442 0.824512 0.552061 -0.0621701 
1689 2 140.012 -563.71 -464.81 -0.0462085 0.938589 0.338869 0.0456372 
1681 2 126.427 -568.857 -390.024 0.051934 -0.00181648 0.989631 0.133901 
1742 2 114.558 -586.213 -473.553 0.186306 -0.83949 -0.396679 -0.321237 
1690 2 140.836 -561.454 -474.422 -0.140805 0.806371 -0.574083 0.0191988 
1691 2 142.638 -559.49 -483.923 -0.114774 0.100819 -0.980864 -0.120698 
1779 2 169.329 -653.631 -464.859 0.78452 -0.559806 0.261661 -0.0517525 
1780 2 174.17 -645.105 -463.019 0.445677 -0.18494 0.627334 0.611246 
1692 2 144.899 -556.76 -493.13 -0.0204801 -0.737203 -0.644922 -0.200469 
1693 2 148.626 -554.636 -502.103 0.164091 -0.945574 0.206783 -0.190277 
1697 3 150.413 -598.971 -508.652 0.00890564 0.506701 0.132886 -0.851772 
1763 2 158.651 -546.897 -419.356 -0.547061 -0.419167 0.28246 -0.667263 
1764 2 161.13 -555.448 -414.795 0.153044 -0.0515723 0.536352 -0.828399 
1781 2 177.643 -635.914 -461.718 -0.305254 0.458479 0.502174 0.666662 
1765 2 163.774 -563.874 -410.294 0.813536 0.253981 0.285678 -0.438225 
1778 3 176.649 -633.13 -417.73 -0.723518 0.6664 -0.0402776 0.175527 
1766 2 166.209 -570.485 -403.24 0.809981 0.38866 -0.146837 0.4139 
1767 2 167.508 -577.879 -396.74 0.097007 0.176983 -0.465167 0.861909 
1768 2 169.731 -586.103 -391.553 -0.592119 -0.327003 -0.397259 0.620201 
1769 2 170.599 -594.766 -386.936 -0.838363 -0.538509 0.041382 -0.0737768 
1770 2 171.027 -603.763 -382.96 -0.577601 -0.369216 0.340433 -0.643554 
1771 2 172.261 -612.271 -378.121 0.261667 0.000227929 0.55041 -0.79283 
1772 2 175.187 -620.9 -374.309 0.701487 0.552069 0.341556 -0.294067 
1784 2 191.961 -612.872 -452.876 -0.106683 -0.175524 -0.413822 -0.886883 
1783 2 186.468 -618.614 -458.809 -0.825613 0.185757 -0.392423 -0.360365 
1782 2 180.877 -626.538 -460.865 -0.759999 0.584732 -0.167929 0.228668 
1785 2 196.016 -606.383 -446.62 0.629106 -0.309759 -0.0310659 -0.712257 
1786 2 200.354 -601.936 -438.891 0.949097 -0.27144 0.155362 0.0374004 
1787 2 202.943 -596.962 -430.777 0.597341 -0.0643903 0.239237 0.76276 
1788 2 205.749 -592.657 -422.384 -0.296789 0.193821 0.207372 0.911782 
1789 2 207.619 -588.164 -413.69 -0.876423 0.402951 -0.0403694 0.260546 
1790 2 210.137 -581.456 -406.954 -0.655084 0.260758 -0.345994 -0.618998 
1791 2 211.442 -573.612 -401.052 0.0871417 -0.0905642 -0.435543 -0.891351 
1775 2 175.254 -650.308 -375.165 -0.316709 -0.416214 -0.492391 0.69571 
1776 2 172.392 -659.637 -373.245 -0.735966 -0.644776 0.00159051 0.206434 
1773 2 176.155 -630.664 -373.233 0.577364 0.718596 -0.283039 0.264877 
1774 2 176.557 -640.471 -374.612 0.257094 0.192908 -0.696871 0.64114 
1762 2 155.349 -538.317 -423.064 -0.823178 -0.526981 -0.203464 -0.0571991 
1761 2 151.553 -530.067 -426.833 -0.596164 -0.227529 -0.51851 0.56918 
1792 2 212.383 -565.428 -395.63 0.671027 -0.486204 -0.239433 -0.505964 
1793 2 214.642 -556.632 -391.675 0.887749 -0.400842 0.209891 0.0846993 
1794 2 217.604 -549.014 -386.105 0.384471 -0.0372173 0.507835 0.77 
1795 2 220.736 -540.87 -381.422 -0.467583 0.253607 0.213574 0.819412 
1680 2 124.165 -569.273 -380.421 0.0887582 -0.778755 0.614507 -0.0896927 
1679 2 123.789 -568.308 -370.552 -0.0604262 -0.968861 -0.240115 -0.00155709 
1796 2 222.987 -534.67 -374.073 -0.918728 0.363927 -0.031124 0.150094 
1809 2 142.992 -537.89 -375.799 0.678604 0.658297 0.0833242 0.31496 
1810 2 147.857 -546.292 -374.103 0.0880475 0.482033 -0.357557 0.795013 
1811 2 155.332 -552.2 -371.455 -0.644888 0.0232689 -0.49988 0.577666 
1797 2 224.857 -528.594 -366.555 -0.577223 0.385976 -0.409153 -0.591972 
1759 2 140.89 -514.555 -432.417 0.63008 0.633769 -0.0751376 0.442369 
1808 2 139.51 -529.364 -379.488 0.727595 0.345463 0.415342 -0.422792 
1807 2 135.224 -521.383 -383.55 0.108995 -0.17889 0.486816 -0.848014 
1812 2 162.353 -557.308 -366.82 -0.851732 -0.280246 -0.354834 -0.264778 
1805 3 180.701 -515.746 -371.299 -0.419275 -0.527516 0.336054 -0.65803 
1798 2 225.07 -519.774 -362.07 0.126114 0.0164449 -0.587519 -0.799153 
1655 2 110.324 -601.733 -362.349 0.547473 0.246698 -0.685694 -0.411385 
1752 2 89.1801 -485.269 -456.114 0.420533 0.521629 0.319386 0.67011 
1806 2 131.672 -513.419 -388.261 -0.565574 -0.47991 0.198548 -0.640618 
1758 2 136.213 -505.863 -433.083 0.693452 0.450526 0.517547 -0.219763 
1753 2 98.6935 -485.198 -453.156 -0.282659 0.486535 -0.242171 0.790406 
1754 2 107.834 -485.917 -449.349 -0.797084 0.0229737 -0.452356 0.399378 
1757 2 131.332 -498.031 -436.534 0.367449 -0.0847747 0.550767 -0.744614 
1750 1 98.2428 -509.282 -495.719 0.891542 0.265488 0.331084 0.158276 
1755 2 115.148 -489.527 -443.752 -0.790804 -0.36983 -0.396543 -0.283915 
1756 2 123.03 -493.318 -439.155 -0.22955 -0.590142 0.152813 -0.758741 
1804 1 167.234 -484.136 -378.031 -0.420754 -0.515362 0.319111 -0.674934 
1803 2 211.261 -474.417 -364.019 -0.538486 0.696223 0.434374 0.191378 
3939 2 -310.959 170.869 -366.649 -0.082194 -0.327372 -0.511345 0.790315 
3940 2 -315.644 162.752 -363.609 -0.625653 -0.615134 0.048305 0.477321 
1858 1 142.139 -702.394 -258.529 0.422521 -0.256179 -0.386053 -0.778981 
1860 2 188.272 -702.398 -248.821 -0.384479 0.143973 0.342896 0.844908 
1861 2 188.565 -695.798 -241.505 -0.899113 0.380408 0.0703376 0.204786 
1857 2 98.6662 -684.188 -257.208 0.218657 0.33672 -0.877072 0.263729 
1856 2 100.493 -678.407 -249.353 0.349286 0.89028 -0.292182 -0.00546196 
1862 2 188.852 -688.552 -234.741 -0.596879 0.338342 -0.332329 -0.647161 
1859 3 146.207 -673.504 -239.317 0.49205 -0.284113 -0.381095 -0.729338 
1863 2 188.526 -680.604 -228.799 0.113633 0.0447745 -0.477365 -0.870176 
1864 2 186.732 -672.653 -223.135 0.795281 -0.388545 -0.300273 -0.355524 
1855 2 102.145 -670.603 -243.416 0.286669 0.73251 0.511578 -0.345744 
1661 2 54.9015 -586.745 -359.28 -0.111986 0.445847 0.0251628 -0.88772 
1662 2 46.6474 -585.89 -353.76 0.545932 0.179842 -0.416746 -0.704229 
1663 2 39.5107 -582.023 -348.044 0.898883 -0.350494 -0.251474 -0.0769649 
1664 2 35.4271 -575.89 -341.506 0.537694 -0.357703 0.0972144 0.757287 
1665 2 30.9105 -570.584 -334.343 -0.211381 -0.0890497 0.354511 0.906482 
1666 2 27.5745 -564.127 -327.465 -0.825475 0.270953 0.231839 0.437523 
1667 2 25.666 -557.935 -320.151 -0.881461 0.312117 -0.109914 -0.33694 
1668 2 25.5889 -551.676 -312.453 -0.32493 0.140524 -0.300721 -0.885573 
1669 1 67.9805 -556.493 -292.212 0.140323 0.611258 0.778882 0.00389021 
1670 3 74.5333 -562.522 -326.068 0.179757 0.598034 0.780775 0.0208179 
1654 2 119.334 -605.635 -361.355 -0.0610406 0.733037 -0.225582 -0.638782 
1865 2 184.665 -664.567 -217.779 0.817131 -0.439202 0.123081 0.352492 
1653 2 128.111 -609.776 -359.39 -0.571415 0.625741 0.441872 -0.294419 
1813 2 169.357 -559.941 -360.332 -0.263357 -0.295449 0.0165452 -0.918193 
1678 2 122.397 -567.949 -360.736 -0.0852914 -0.436418 -0.895679 0.00485314 
1814 2 174.728 -561.752 -352.212 0.661857 -0.0281233 0.321325 -0.676686 
1652 2 136.322 -614.22 -356.26 -0.53446 0.101742 0.816535 0.193058 
1651 2 144.128 -618.053 -351.563 -0.108181 -0.647251 0.544214 0.522679 
1854 2 104.983 -661.789 -239.957 -0.0465284 0.143914 0.810904 -0.565295 
1650 2 152.015 -621.236 -346.441 0.31391 -0.844448 -0.204052 0.383054 
1815 2 179.08 -565.944 -344.379 0.926385 0.298372 0.181183 0.141273 
1649 2 159.891 -623.649 -340.986 0.46346 -0.317363 -0.824993 0.0622222 
1648 2 165.505 -623.999 -332.781 0.260451 0.462108 -0.833476 -0.15472 
1853 2 107.411 -652.422 -237.744 -0.550858 -0.492295 0.592326 -0.321482 
1816 2 183.516 -570.29 -336.693 0.456799 0.355694 -0.0466256 0.814028 
1817 2 188.562 -574.721 -329.452 -0.303974 0.0788489 -0.352418 0.88158 
1677 2 120.685 -565.831 -351.279 -0.0440795 0.48984 -0.861461 0.126484 
1676 2 119.288 -563.527 -341.759 0.0820801 0.964564 -0.225463 0.109754 
1818 2 192.522 -580.429 -322.397 -0.817645 -0.357532 -0.314609 0.323494 
1647 2 170.598 -623.765 -324.292 0.0597991 0.950179 -0.172064 -0.25294 
1675 2 118.419 -563.502 -331.893 0.017629 0.766371 0.64085 0.0409403 
1646 2 174.682 -623.845 -315.228 -0.12126 0.666483 0.728103 -0.104699 
1819 2 195.764 -587.908 -316.822 -0.813583 -0.286685 0.0911778 -0.497576 
1820 2 197.09 -593.616 -308.899 -0.082014 -0.168772 0.21522 -0.958369 
1645 2 179.438 -624.818 -306.593 -0.215274 -0.207941 0.945147 0.130823 
1644 2 184.367 -627.826 -298.576 0.0563465 -0.855857 0.419537 0.29719 
1674 2 118.019 -564.147 -321.956 -0.0122592 0.0410132 0.998703 0.0275564 
1673 2 116.472 -564.208 -312.155 0.0498997 -0.772516 0.630421 -0.0574253 
1821 2 199.893 -598.514 -300.77 0.674081 0.0776188 0.320402 -0.661009 
1822 2 203.601 -603.332 -292.952 0.946685 0.227472 0.186661 0.131157 
1823 2 207.67 -607.311 -284.926 0.460735 0.304149 -0.00426269 0.833785 
1824 2 212.569 -610.744 -276.898 -0.364962 0.239692 -0.376419 0.817104 
1672 2 115.231 -565.971 -302.56 0.0892222 -0.961856 -0.248409 -0.0718713 
1671 2 114.012 -566.84 -292.72 -0.0480336 -0.409229 -0.909152 -0.0605539 
1635 2 142.298 -521.597 -273.711 -0.783251 -0.593323 0.182431 0.0346988 
1636 2 139.007 -530.538 -271.124 -0.534398 -0.197491 0.614046 -0.546227 
1637 2 134.237 -539.094 -269.946 0.0765546 0.434234 0.553739 -0.706366 
1638 2 129.331 -547.667 -270.144 0.700361 0.617048 0.0760256 -0.350666 
1639 2 126.897 -556.921 -267.769 0.663998 0.450744 -0.440934 0.401889 
1640 2 124.293 -566.169 -265.289 0.148937 -0.178424 -0.528586 0.816443 
1641 2 119.544 -574.153 -261.872 -0.53846 -0.541396 -0.190576 0.616954 
1642 1 149.064 -609.079 -273.452 0.298269 -0.771856 -0.490538 -0.273215 
1643 3 154.021 -585.579 -298.848 0.256816 -0.796744 -0.48291 -0.256987 
1843 2 164.208 -578.151 -257.02 0.698144 0.193375 -0.485522 0.489356 
1842 2 167.796 -569.766 -260.828 0.795812 0.562753 -0.0959068 -0.201975 
1841 2 172.969 -561.456 -261.717 0.307656 0.569176 0.410354 -0.642648 
1840 2 180.063 -554.615 -262.184 -0.33661 0.215089 0.654305 -0.642118 
1839 2 187.167 -547.719 -261.599 -0.675882 -0.425395 0.599899 -0.0484177 
1838 2 194.388 -541.348 -259.681 -0.427562 -0.767475 0.0325183 0.476566 
1837 2 201.785 -534.819 -258.27 0.13399 -0.433052 -0.62555 0.63498 
1844 2 159.305 -585.594 -252.69 -0.0238312 -0.292664 -0.40425 0.866234 
1845 2 154.485 -592.509 -247.49 -0.706079 -0.49895 0.0381553 0.501044 
1846 2 148.996 -599.04 -242.44 -0.783462 -0.346672 0.460391 -0.232477 
1847 2 143.558 -606.625 -239.095 -0.340387 0.178741 0.631248 -0.673583 
1848 2 136.759 -613.69 -237.81 0.351799 0.600658 0.317853 -0.643752 
1849 2 131.138 -621.785 -236.878 0.752282 0.606299 -0.164047 -0.198902 
1850 2 126.377 -630.335 -235.467 0.615193 0.147212 -0.632581 0.446886 
1851 2 119.755 -637.731 -234.762 0.0896573 -0.509016 -0.507374 0.689518 
1852 2 112.404 -644.267 -235.126 -0.529676 -0.800999 0.0369261 0.276551 
1825 2 218.907 -614.392 -270.33 -0.846228 -0.00296306 -0.51593 0.133061 
1836 2 210.195 -529.572 -258.322 0.639404 0.125855 -0.716787 0.24807 
1835 2 219.713 -527.382 -259.25 0.49995 0.564262 -0.333735 -0.565932 
1832 3 227.658 -572.545 -260.536 -0.513161 -0.231448 0.825098 -0.0480794 
1826 2 227.473 -616.455 -265.788 -0.623906 -0.350212 -0.368168 -0.593755 
1834 2 229.332 -525.14 -259.044 -0.13532 0.647689 0.251584 -0.706324 
1827 2 235.944 -616.473 -260.726 0.15782 -0.398894 -0.0643597 -0.901018 
1833 2 238.599 -521.794 -257.768 -0.540858 0.204721 0.724437 -0.37517 
1828 2 242.972 -613.881 -254.207 0.79581 -0.325386 0.325354 -0.393643 
1866 2 183.34 -656.671 -211.997 0.209023 -0.241953 0.425846 0.846418 
1829 2 250.527 -611.241 -248.426 0.775607 0.136978 0.524406 0.323524 
1831 1 258.246 -563.153 -246.351 -0.524639 -0.198045 0.825476 -0.0641992 
1830 2 259.26 -610.266 -243.92 0.283329 0.470873 0.225565 0.80444 
1615 1 81.5514 -463.443 -309.045 -0.815723 0.41677 -0.210215 0.341626 
1614 2 82.8589 -485.698 -267.428 -0.266302 -0.790594 -0.239752 0.496552 
1613 2 89.3585 -479.062 -264.121 0.212078 -0.315004 -0.752541 0.538031 
1617 2 91.6816 -427.769 -338.138 0.859079 -0.0739476 0.500811 0.0755187 
1612 2 94.4729 -471.64 -260.003 0.479352 0.437994 -0.718001 0.250713 
1611 2 98.4574 -464.96 -253.868 0.420966 0.88672 -0.15486 -0.111956 
1799 2 223.164 -510.582 -358.776 0.615709 -0.438381 -0.555615 -0.346434 
1800 2 218.96 -501.68 -358.25 0.670307 -0.696039 -0.0720068 0.24705 
1801 2 215.149 -492.66 -357.302 0.291178 -0.546021 0.605905 0.499956 
1802 2 212.97 -483.536 -360.684 -0.135465 0.0480332 0.820844 0.552772 
1634 2 146.264 -512.749 -275.712 -0.450475 -0.507398 -0.313309 0.664422 
1610 2 101.345 -457.567 -247.975 0.208052 0.730178 0.531078 -0.376179 
1609 2 103.231 -448.92 -243.629 -0.0898149 0.0836102 0.855696 -0.50272 
1633 2 149.839 -503.524 -276.363 0.227805 -0.0436441 -0.705045 0.670157 
1608 2 106.995 -440.435 -240.197 -0.563224 -0.538703 0.582593 -0.230571 
1607 2 110.274 -431.779 -236.743 -0.502526 -0.808436 -0.087972 0.293529 
1606 2 111.993 -423.01 -232.506 -0.128965 -0.364088 -0.740498 0.549973 
1605 2 112.139 -413.474 -229.756 0.318383 0.433679 -0.675675 0.504002 
1604 2 113.973 -404.414 -226.29 0.583422 0.796437 -0.159022 0.00427978 
1616 3 102.899 -443.369 -289.909 -0.835838 0.399044 -0.202386 0.318086 
1618 2 100.321 -425.841 -333.564 0.536552 0.32642 0.454555 0.631618 
1619 2 109.518 -423.71 -330.093 -0.13952 0.485235 0.119325 0.854894 
1632 2 153.63 -494.643 -278.566 0.740285 0.458097 -0.416339 0.262273 
1631 2 156.891 -485.302 -279.564 0.663713 0.640681 0.115063 -0.368474 
1620 2 117.522 -420.556 -325.293 -0.76511 0.273308 -0.308247 0.494866 
1621 2 125.192 -419.47 -319.113 -0.848067 -0.0690957 -0.432628 -0.298062 
1622 2 132.403 -418.404 -312.515 -0.446165 -0.362114 -0.104642 -0.811702 
1623 2 138.984 -419.722 -305.252 0.443536 -0.142976 0.241672 -0.851133 
1624 2 143.698 -422.754 -297.086 0.867328 0.322207 0.313262 -0.21399 
1625 2 148.499 -429.647 -291.778 0.646809 0.618912 -0.073383 0.439546 
1626 2 152.253 -438.403 -289.236 0.134327 0.285564 -0.599368 0.735641 
1627 2 155.354 -447.766 -288.877 -0.555398 -0.256199 -0.533834 0.583881 
1628 2 158.088 -456.99 -286.515 -0.80107 -0.594261 -0.0481724 -0.0530984 
1629 2 159.335 -466.356 -283.605 -0.50144 -0.313421 0.535371 -0.603079 
1630 2 158.259 -475.519 -280.202 0.229541 0.291435 0.578151 -0.726718 
1603 2 114.519 -395.876 -221.255 0.332198 0.631678 0.584583 -0.385862 
1602 2 114.532 -386.914 -216.981 -0.101552 -0.163516 0.829078 -0.524957 
1601 2 115.854 -377.977 -212.928 -0.539723 -0.720314 0.377234 -0.218041 
3831 2 -557.443 60.1556 -223.247 -0.484417 0.573548 0.207952 0.627008 
3832 2 -552.386 68.2524 -220.798 -0.834378 0.441478 -0.32996 -0.00604072 
3726 2 -571.496 84.9229 -217.513 0.0738494 0.30597 0.883974 0.345714 
3727 2 -568.319 90.0926 -225.22 -0.153937 0.884846 0.394383 0.194454 
3704 2 -520.94 72.9655 -248.772 0.182418 -0.219729 0.495702 0.820197 
3705 2 -522.43 81.6206 -244.34 -0.504808 0.331212 0.551602 0.575502 
3703 2 -519.689 64.7884 -254.212 0.75204 -0.43812 0.19994 0.450012 
3706 2 -524.222 91.1462 -242.341 -0.739783 0.665568 0.0577718 -0.0800136 
3702 2 -519.703 57.5528 -261.022 0.820685 -0.418131 -0.164218 -0.353095 
3833 2 -547.329 75.8206 -216.807 -0.385161 0.0657075 -0.515783 -0.762431 
3728 2 -565.887 94.5007 -233.666 -0.205309 0.854929 -0.469402 -0.0812808 
3834 2 -544.415 83.9157 -212.098 0.380468 -0.44988 -0.308154 -0.746922 
3701 2 -519.084 50.3486 -267.81 0.262207 -0.0530241 -0.395192 -0.878783 
3725 2 -576.074 82.2716 -209.083 0.240633 -0.474436 0.846374 0.0256302 
3700 2 -515.337 45.5094 -275.514 -0.490651 0.30827 -0.103134 -0.808452 
3699 2 -510.517 40.6243 -282.7 -0.9306 0.280641 0.234527 0.0148499 
3696 2 -494.64 33.7396 -306.598 0.901836 -0.19454 -0.224157 0.314006 
3697 2 -499.321 35.4597 -297.983 0.281705 -0.300977 0.0615148 0.908995 
3698 2 -504.741 38.6641 -290.457 -0.572507 -0.175078 0.287678 0.747546 
3695 3 -486.6 78.9784 -282.586 0.364498 -0.251026 -0.0254071 0.896371 
3694 1 -470.832 73.9106 -313.406 0.386104 -0.250513 -0.0351019 0.887094 
3919 2 -400.656 92.2717 -256.707 0.689374 0.413414 0.564058 0.188924 
3920 2 -391.265 89.2545 -256.991 0.196084 0.764709 0.0823332 0.60827 
3921 2 -381.66 87.4266 -258.401 -0.331423 0.565318 -0.601844 0.456463 
3922 2 -372.614 85.5429 -262.252 -0.643015 0.0206074 -0.765448 0.0140431 
3923 2 -363.018 85.4826 -264.519 -0.317864 -0.619783 -0.544579 -0.467189 
3918 2 -410.068 94.538 -258.732 0.660943 -0.216797 0.579043 -0.425279 
3924 2 -353.935 86.601 -268.227 0.254244 -0.822252 0.0390248 -0.50768 
3925 2 -345.545 90.1265 -272.07 0.643516 -0.560714 0.516151 -0.0712429 
3729 2 -564.326 98.4809 -242.569 -0.0306264 0.0856899 -0.974937 -0.203022 
3730 2 -564.215 102.979 -251.375 0.215724 -0.598875 -0.746528 -0.193669 
3707 2 -526.22 100.712 -241.136 -0.29875 0.533972 -0.522127 -0.594144 
3731 2 -565.051 108.134 -259.781 0.464092 -0.882122 0.00552902 0.0803063 
3732 2 -565.914 115.88 -265.75 0.214077 -0.555827 0.68984 0.41152 
3733 2 -567.338 123.612 -271.813 -0.23272 0.108711 0.788106 0.559386 
3734 2 -569.612 132.845 -274.455 -0.661486 0.613234 0.350121 0.252579 
3760 2 -515.621 191.472 -311.263 -0.403533 0.162168 0.542081 0.719035 
3761 2 -517.512 200.712 -308.341 -0.809345 0.543693 0.197774 0.101209 
3744 2 -533.259 198.482 -242.412 0.0717094 -0.339079 0.196078 -0.917298 
3762 2 -519.478 209.785 -304.847 -0.581545 0.473162 -0.344528 -0.564998 
3735 2 -570.748 142.688 -274.795 -0.643333 0.623549 -0.383334 -0.224423 
3743 2 -539.937 199.49 -249.731 -0.675953 -0.252523 -0.226759 -0.654141 
3742 2 -546.833 199.075 -256.754 -0.92538 0.0388977 -0.370326 0.0708357 
3741 2 -553.153 195.094 -263.272 -0.589443 0.439857 -0.0581532 0.675056 
3740 2 -558.562 188.284 -268.005 0.0339677 0.308089 0.385158 0.869241 
3739 2 -564.15 180.704 -271.107 0.665185 -0.179074 0.556935 0.463987 
3738 2 -567.846 171.972 -274.015 0.767795 -0.603654 0.120861 -0.17744 
3713 2 -551.668 152.531 -239.794 -0.627027 0.580066 0.143678 -0.499717 
3714 2 -559.363 158.145 -237.35 -0.0384596 0.526408 -0.270385 -0.805175 
3715 2 -567.308 163.35 -234.465 0.660254 0.12727 -0.39307 -0.627187 
3716 2 -574.285 166.507 -228.116 0.899182 -0.129146 -0.400338 0.120509 
3717 2 -581.799 167.688 -221.782 0.460874 -0.347788 -0.139846 0.804414 
3736 2 -569.041 152.462 -275.259 -0.134488 0.141829 -0.706845 -0.679829 
3737 2 -569.207 162.344 -275.632 0.410694 -0.439866 -0.482586 -0.636364 
3712 2 -544.816 145.285 -239.734 -0.675287 0.380019 0.608068 0.172702 
3711 2 -538.752 137.653 -241.438 -0.241622 -0.237557 0.577794 0.742522 
3710 2 -535.959 128.52 -244.098 0.53581 -0.534546 0.259231 0.599973 
3718 2 -588.475 168.443 -214.536 -0.346808 -0.485545 0.157738 0.786822 
3745 2 -526.683 195.665 -235.58 0.788444 -0.196858 0.452288 -0.367476 
3749 3 -519.446 162.687 -263.541 0.250648 -0.888123 -0.331321 0.196572 
3709 2 -533.505 118.956 -243.701 0.694917 -0.678459 -0.225635 -0.0766355 
3708 2 -529.547 110.038 -241.99 0.395288 -0.145251 -0.755032 -0.50257 
3746 2 -518.396 195.535 -230.23 0.864144 0.183692 0.356558 0.30394 
3765 2 -525.615 237.005 -294.881 0.85557 -0.445347 0.208742 0.161533 
3766 2 -523.568 245.369 -289.987 0.461834 -0.0908567 0.527215 0.707459 
3763 2 -520.496 219.191 -301.859 0.071619 0.0801517 -0.557844 -0.822956 
3764 2 -522.835 228.126 -298.276 0.693239 -0.367844 -0.424033 -0.452002 
3781 2 -558.743 212.655 -212.641 0.689494 -0.299957 -0.571112 0.329324 
3782 2 -568.555 212.53 -211.807 0.125868 -0.587527 -0.215686 0.769707 
3780 2 -549.128 210.623 -211.404 0.520462 0.308369 -0.694887 -0.388793 
3719 2 -596.814 167.624 -209.418 -0.829636 -0.167754 0.472937 0.244731 
3722 3 -574.376 125.814 -209.499 -0.115626 -0.814788 -0.263005 -0.503566 
3783 2 -578.07 211.188 -209.553 -0.511717 -0.538978 0.323569 0.58562 
3759 2 -511.817 182.307 -312.593 0.330002 -0.49158 0.422357 0.686339 
3758 2 -509.53 172.655 -312.19 0.689015 -0.718678 -0.082446 0.0443165 
3757 2 -508.639 163.004 -309.972 0.364366 -0.458094 -0.624498 -0.517097 
3776 3 -512.668 239.315 -241.667 -0.167516 -0.951998 0.107705 0.232458 
3756 2 -507.157 153.944 -306.224 -0.0572281 0.308578 -0.767914 -0.558403 
3755 2 -505.217 145.297 -301.844 -0.465133 0.824159 -0.197066 -0.256082 
3917 2 -418.702 97.4262 -262.519 0.0398904 -0.507888 0.203972 -0.835975 
3754 2 -503.633 137.974 -295.403 -0.366342 0.720943 0.560381 0.178906 
3753 2 -503.259 130.536 -288.863 -0.0263305 -0.0201325 0.909898 0.413506 
3747 2 -511.16 194.784 -223.537 0.274757 0.419812 0.0846936 0.860868 
3916 2 -425.432 101.129 -268.691 -0.74926 -0.383984 -0.178759 -0.509127 
3684 2 -472.464 108.946 -215.76 -0.179365 0.307152 -0.933554 -0.0442965 
3685 2 -469.462 111.091 -224.984 0.0115041 -0.475737 -0.877401 -0.060908 
3752 2 -503.496 124.329 -281.193 0.307824 -0.803689 0.484437 0.157002 
3915 2 -431.698 105.674 -274.861 -0.875974 -0.163255 -0.407165 0.200583 
3751 2 -504.596 118.382 -273.309 0.296003 -0.905758 -0.27501 -0.127882 
3750 2 -503.918 113.115 -264.944 0.152986 -0.399837 -0.867213 -0.254299 
3914 2 -435.58 110.666 -282.435 -0.444459 0.0636578 -0.382504 0.807523 
3687 2 -467.887 112.049 -244.632 -0.00458988 -0.800624 0.598746 0.0219837 
3686 2 -469.014 112.431 -234.768 -0.0248434 -0.976858 -0.20761 -0.0450477 
3913 2 -438.046 114.537 -291.16 0.341844 0.190983 -0.126117 0.911462 
3912 2 -441.717 120.251 -298.353 0.875593 0.353609 0.059367 0.323688 
3688 2 -468.08 112.829 -254.498 0.0542382 -0.0842608 0.99469 0.0234459 
3689 2 -466.371 113.671 -264.201 -0.0071321 0.705454 0.703846 0.0829753 
3911 3 -391.96 127.107 -284.854 0.529504 0.58236 -0.126203 0.603784 
3910 1 -410.164 155.173 -295.056 0.503411 0.568469 -0.177343 0.626075 
3748 1 -501.975 150.201 -235.852 0.250683 -0.900208 -0.283773 0.215071 
3693 2 -459.342 118.427 -302.725 0.0139739 -0.899036 -0.404824 -0.166301 
3690 2 -465.012 114.732 -273.99 -0.0324222 0.986954 -0.151855 0.0425551 
3691 2 -463.711 115.101 -283.798 -0.12457 0.550817 -0.824296 -0.0402271 
3692 2 -462.03 117.197 -293.313 -0.11318 -0.217638 -0.963354 -0.108505 
4001 2 -369.978 205.056 -235.206 -0.195733 -0.328205 -0.333782 -0.861719 
4000 2 -377.108 202.086 -241.328 -0.787461 -0.0272513 -0.436667 -0.434147 
3999 2 -384.656 201.053 -247.599 -0.845395 0.205533 -0.368436 0.327596 
3998 2 -391.969 200.442 -254.36 -0.22584 0.393454 -0.0920519 0.886407 
3997 2 -398.405 200.324 -261.835 0.481843 0.302136 0.241558 0.786251 
3996 2 -403.934 201.439 -269.975 0.953682 0.0685463 0.292107 0.0215845 
3995 2 -407.511 203.574 -278.987 0.605617 -0.0845698 0.215617 -0.761305 
3994 2 -409.503 206.637 -288.143 -0.258155 -0.150769 0.131079 -0.945221 
3993 2 -413.589 209.697 -296.642 -0.874239 -0.232837 -0.107799 -0.412156 
3901 2 -371.016 112.585 -238.63 0.087411 -0.40788 -0.857358 -0.301547 
3902 2 -370.278 118.54 -246.445 0.392779 -0.900232 -0.151898 -0.110604 
3903 2 -369.884 126.103 -252.994 0.345919 -0.69177 0.592398 0.225519 
3900 2 -373.527 108.123 -230.211 -0.185507 0.361752 -0.898284 -0.16676 
3904 2 -369.127 133.167 -259.67 0.0916738 0.0125822 0.932421 0.349326 
3899 2 -378.671 107.13 -221.794 -0.106299 0.930177 -0.235745 0.260569 
3906 2 -365.245 147.838 -272.087 -0.512194 0.790904 -0.306176 -0.135592 
3991 1 -379.65 239.829 -309.501 -0.604828 -0.286725 0.0625977 -0.740306 
3992 3 -367.209 225.899 -279.988 -0.576767 -0.30945 0.0690163 -0.752873 
3775 1 -496.297 246.828 -211.721 -0.124376 -0.953328 0.0678596 0.266629 
4002 2 -363.131 209.541 -229.55 0.592665 -0.46419 -0.0886867 -0.652235 
3909 2 -366.96 172.478 -287.461 0.421255 -0.881294 -0.211313 0.0348091 
3908 2 -364.606 165.434 -280.772 0.292227 -0.409117 -0.818893 -0.276839 
3898 2 -381.362 108.798 -212.376 0.154372 0.83143 0.53037 0.0600113 
3975 2 -364.362 158.164 -222.501 -0.0116974 0.246505 0.874562 0.417419 
3974 2 -364.645 151.511 -215.134 0.257119 -0.608362 0.697613 0.277708 
3976 2 -362.431 165.734 -228.693 -0.318915 0.839942 0.375348 0.227826 
3907 2 -363.676 156.58 -276.445 -0.130495 0.298987 -0.772096 -0.545386 
3905 2 -367.49 139.607 -267.106 -0.281358 0.677029 0.551648 0.397685 
3926 2 -338.394 96.7912 -273.74 0.343215 0.0197011 0.75844 0.553699 
3977 2 -361.346 173.24 -235.111 -0.451508 0.807702 -0.378251 -0.0261577 
3946 2 -346.792 130.354 -330.014 0.100583 -0.0212285 -0.0473979 0.993572 
3947 2 -347.312 129.566 -320.18 -0.659648 0.0282988 0.0969517 0.744758 
4003 2 -357.373 215.864 -224.482 0.854419 -0.329415 0.397487 0.0588124 
3948 2 -347.935 131.292 -310.541 -0.993795 0.105313 -0.00912948 -0.0345987 
3949 2 -348.15 132.989 -300.72 -0.535243 0.0992909 -0.186778 -0.817784 
3978 2 -358.517 181.182 -240.399 -0.511078 0.152104 -0.773212 -0.34323 
3941 2 -321.906 155.431 -361.25 -0.826724 -0.307112 0.459392 -0.105683 
3942 2 -328.659 148.859 -358.195 -0.413364 0.190173 0.494478 -0.740579 
3927 2 -332.796 104.737 -275.587 -0.315179 0.526768 0.393646 0.684266 
4004 2 -351.091 222.14 -220.085 0.502235 0.119158 0.370518 0.772191 
3928 2 -328.137 113.452 -274.565 -0.691359 0.660435 -0.272096 0.108682 
3929 2 -323.534 122.171 -274.749 -0.499019 0.11468 -0.710448 -0.482797 