ITEM: TIMESTEP
10000000
ITEM: NUMBER OF ATOMS
4067
ITEM: BOX BOUNDS pp pp pp
-4.6310929470000001e+03 4.6704658980000004e+03
-4.6310929470000001e+03 4.6704658980000004e+03
-4.6310929470000001e+03 4.6704658980000004e+03
ITEM: ATOMS id type x y z c_q[1] c_q[2] c_q[3] c_q[4] 
1963 2 -598.835 -356.211 -827.098 0.0898576 -0.960638 0.242019 0.102598 
1964 2 -600.586 -354.091 -836.585 -0.100963 -0.408335 0.897201 0.134535 
1965 2 -603.349 -352.647 -846.005 -0.189044 0.463413 0.865742 0.000902335 
1966 1 -646.484 -335.086 -838.712 0.893401 0.0366784 0.241828 0.37684 
1996 2 -561.001 -221.555 -849.71 0.429151 0.302495 -0.128611 -0.8413 
1997 2 -567.169 -221.656 -841.97 0.929371 0.212776 -0.289753 -0.0839006 
1995 2 -556.635 -219.013 -858.295 -0.372631 0.152211 0.190713 -0.895325 
1998 2 -572.827 -225.526 -834.92 0.686243 -0.0164389 -0.220495 0.692952 
1999 2 -576.69 -228.567 -826.269 -0.278896 -0.0882995 -0.152761 0.943973 
1993 1 -513.79 -230.615 -842.273 0.804431 0.0261044 -0.414155 0.42507 
2046 2 -737.087 -202.981 -828.961 0.140236 -0.39648 -0.757542 0.499268 
2045 2 -730.853 -197.006 -823.994 0.450847 0.291299 -0.816309 0.213355 
2044 2 -722.336 -192.937 -820.933 0.475932 0.705957 -0.374602 -0.367134 
2188 2 -861.241 53.3188 -848.296 -0.564947 -0.145475 0.675303 0.451263 
2185 2 -840.373 35.3316 -858.471 0.832137 -0.221601 -0.473684 -0.184567 
2186 2 -846.84 41.3236 -854.011 0.681598 -0.518282 -0.152048 0.493649 
2187 2 -853.725 47.1177 -849.95 0.0117176 -0.531021 0.415297 0.738517 
2189 2 -869.765 58.2447 -848.446 -0.61644 0.438463 0.639787 -0.135738 
2190 2 -878.782 61.7671 -850.217 -0.31158 0.793875 0.112491 -0.509927 
2191 2 -887.522 65.7672 -852.329 0.245498 0.509279 -0.550421 -0.614331 
2192 2 -896.251 69.9222 -853.872 0.70273 -0.206471 -0.655028 -0.185683 
2184 2 -834.145 29.1678 -863.118 0.337559 0.153214 -0.478408 -0.796056 
2183 3 -831.193 80.9937 -861.562 -0.29409 0.443735 -0.117987 -0.838266 
2193 2 -904.715 74.9552 -852.969 0.575825 -0.675299 -0.187812 0.42086 
2194 2 -912.407 81.1617 -853.348 0.00656725 -0.592852 0.32913 0.734953 
2195 2 -920.828 86.3111 -853.022 -0.529855 -0.122057 0.703005 0.45841 
2196 2 -929.385 91.3556 -853.507 -0.624542 0.516756 0.526581 -0.256168 
2197 2 -938.412 95.1378 -854.405 -0.131973 0.768415 -0.0972152 -0.618604 
2182 1 -808.068 63.8839 -881.549 -0.299487 0.459697 -0.0991767 -0.830151 
2128 1 -746.02 48.5052 -849.427 0.27607 -0.00388142 -0.100523 0.955858 
2130 2 -756.454 2.95424 -842.754 -0.502496 -0.0945444 0.0266612 0.858981 
2131 2 -758.241 2.63316 -833.021 -0.989296 -0.0129195 0.0880195 0.115664 
2132 2 -760.024 2.73278 -823.204 -0.636625 0.074884 0.0401913 -0.766476 
2126 2 -732.385 89.0676 -826.113 -0.143972 0.962731 -0.108651 -0.201535 
2127 2 -736.49 92.2648 -834.584 0.088205 0.482659 -0.836334 -0.244552 
2216 2 -1005.51 110.304 -928.159 -0.131359 -0.54486 -0.0272167 -0.827727 
2215 2 -1015.37 111.064 -928.862 -0.648927 -0.377219 -0.559047 -0.352231 
2214 2 -1025.29 111.759 -928.757 -0.666197 0.188818 -0.649286 0.314573 
2217 2 -996.401 109.65 -924.211 0.537197 -0.373253 0.359465 -0.665498 
2218 2 -987.713 109.539 -919.558 0.913198 -0.0870946 0.393935 0.0574344 
2219 2 -980.661 111.703 -912.905 0.508198 0.127718 0.378133 0.763177 
2213 2 -1035.03 113.018 -927.697 -0.236762 0.660832 -0.299247 0.646294 
2212 2 -1044.38 116.005 -926.663 0.426446 0.674922 0.348042 0.491417 
2211 2 -1054.27 116.824 -926.346 0.684519 0.0916685 0.72317 0.00747853 
2202 2 -982.773 115.129 -853.463 -0.640672 -0.101733 0.576343 0.497009 
2220 2 -975.279 115.529 -905.55 -0.338943 0.202363 0.21639 0.89294 
2203 2 -991.38 119.425 -850.813 -0.825152 0.28015 0.476864 -0.115067 
2204 2 -999.855 123.305 -847.392 -0.439111 0.59606 0.049725 -0.670389 
2205 2 -1008.06 127.985 -844.559 0.163975 0.50916 -0.392021 -0.748457 
2208 2 -1034.32 140.936 -840.02 0.222464 -0.642958 0.104748 0.725356 
2209 1 -1054.86 129.7 -881.006 0.289348 -0.675247 0.371488 -0.567729 
2207 2 -1025.88 136.16 -841.81 0.705574 -0.507442 -0.412504 0.272963 
2206 2 -1016.93 131.939 -842.428 0.653384 -0.0408865 -0.713832 -0.24872 
2210 3 -1020.66 127.544 -888.275 0.287056 -0.693632 0.350515 -0.560011 
2235 2 -1061.16 200.206 -864.636 -0.755585 0.374968 0.520399 0.132946 
2234 2 -1054.09 193.588 -866.485 -0.405662 -0.129544 0.619839 0.659133 
2233 2 -1047.49 186.171 -866.431 0.234889 -0.599129 0.341759 0.684889 
2232 2 -1039.3 180.597 -866.458 0.654796 -0.613547 -0.348143 0.27129 
2231 2 -1031.98 174.089 -865.533 0.523202 -0.0125248 -0.727004 -0.444485 
2230 2 -1024 168.841 -862.81 0.0682791 0.62185 -0.480428 -0.614678 
2229 2 -1015.62 164.523 -860.019 -0.366629 0.78656 0.182007 -0.462363 
2224 2 -979.322 138.563 -875.064 0.74848 -0.0985468 -0.395547 -0.523077 
2225 2 -983.812 144 -868.053 0.816787 -0.414566 -0.216429 0.337865 
2226 2 -990.33 149.235 -862.95 0.192296 -0.58286 0.230448 0.75511 
2227 2 -998.498 154.622 -861.133 -0.5157 -0.219851 0.619265 0.549754 
2228 2 -1006.82 159.785 -859.915 -0.706555 0.32133 0.630448 0.00790715 
2223 2 -975.998 131.963 -881.733 0.00642214 0.1649 -0.372622 -0.913192 
2222 2 -973.199 126.262 -889.288 -0.728813 0.317945 -0.079407 -0.601197 
2221 2 -973.152 120.581 -897.339 -0.940308 0.264499 0.0788787 0.199094 
2237 3 -1027.92 192.644 -825.405 -0.591149 -0.60574 -0.507201 -0.162386 
2247 2 -976.083 177.128 -826.502 0.329197 0.11289 0.913337 -0.211425 
2201 2 -974.654 110.031 -855.84 0.0589351 -0.551738 0.289906 0.779786 
2246 2 -980.734 182.442 -819.659 0.00327982 -0.615622 0.687475 -0.385196 
2263 1 -962.011 197.046 -969.308 0.964197 0.0720382 0.0885468 -0.239363 
2248 2 -971.433 171.909 -833.604 0.276086 0.824586 0.471859 0.145545 
2249 2 -966.199 169.134 -841.526 0.0114171 0.940475 -0.302631 0.154245 
2262 2 -962.457 150.111 -964.588 -0.0782028 0.916828 0.391443 0.00913502 
2258 2 -964.479 148.466 -925.444 -0.0429515 -0.704871 -0.707815 -0.0176 
2257 2 -964.728 151.896 -916.186 0.0150868 0.106646 -0.974463 0.197031 
2256 2 -963.406 156.803 -907.701 0.260603 0.852564 -0.449623 0.0553217 
2259 2 -963.928 147.948 -935.293 -0.0273539 -0.996406 0.0640813 -0.0481715 
2260 2 -962.95 148.096 -945.123 0.116148 -0.602469 0.789509 -0.0147141 
2261 2 -961.52 148.938 -954.848 -0.0633038 0.304415 0.949586 0.0401218 
2198 2 -947.58 98.3104 -856.305 0.342637 0.474491 -0.587704 -0.558625 
2250 2 -963.273 168.237 -850.923 -0.0893348 0.315907 -0.942815 0.0576341 
2199 2 -956.859 101.525 -857.629 0.67811 -0.0975697 -0.694772 -0.218951 
2200 2 -966.22 104.854 -857.056 0.65626 -0.566826 -0.315011 0.385745 
2251 2 -960.913 167.598 -860.554 -0.123779 -0.659724 -0.741151 -0.01173 
2252 2 -958.791 166.511 -870.064 -0.112476 -0.95661 0.264513 -0.0477441 
2253 2 -958.529 164.014 -879.7 -0.0511375 -0.429167 0.899366 -0.0658896 
2255 2 -961.852 160.156 -898.55 0.126005 0.913717 0.367519 -0.119052 
2254 2 -958.809 162.821 -889.512 -0.105241 0.304537 0.930413 -0.174683 
2264 3 -955.531 192.527 -935.292 0.977288 0.0587945 0.0789307 -0.187674 
2269 2 -935.673 230.42 -920.456 0.491924 0.19784 -0.142511 0.8358 
2270 2 -933.686 225.777 -911.935 -0.322752 -0.138055 -0.247526 0.903052 
2271 2 -934.109 220.14 -903.805 -0.9488 -0.134133 -0.157366 0.238794 
2272 2 -932.336 216.801 -894.711 -0.792479 -0.0992251 -0.00556235 -0.601748 
2273 2 -930.976 215.219 -884.988 -0.024508 -0.109417 0.0790301 -0.990546 
2274 2 -929.227 213.508 -875.371 0.830469 0.00619219 -0.00703755 -0.556986 
2275 2 -929.777 213.174 -865.509 0.95983 0.0345224 -0.0974964 0.260825 
2276 2 -930.986 212.425 -855.758 0.489116 -0.0526075 -0.0387532 0.869768 
2277 2 -932.872 212.494 -846.068 -0.28131 -0.0747674 0.0642269 0.954542 
2278 2 -933.665 212.686 -836.226 -0.883619 -0.11761 0.0188348 0.452803 
2268 2 -939.967 233.71 -928.788 0.928675 0.23296 0.228881 0.175799 
2267 2 -944.654 237.119 -936.848 0.660772 -0.0542145 0.282686 -0.693202 
2266 2 -950.271 238.449 -944.829 -0.127682 -0.314058 -0.00509934 -0.940765 
2265 2 -953.967 240.891 -953.771 -0.866993 -0.211714 -0.0945543 -0.44109 
2292 2 -870.284 147.549 -848.905 0.511099 -0.543309 0.491621 0.449336 
2293 2 -870.009 157.559 -849.309 -0.151266 0.0323016 0.749375 0.643826 
2294 2 -872.014 167.202 -850.398 -0.659584 0.552435 0.385451 0.333455 
2295 2 -873.539 176.927 -849.695 -0.750513 0.575181 -0.106396 -0.307532 
2296 2 -875.219 186.138 -846.341 -0.0790933 0.280529 -0.517924 -0.80424 
2297 2 -879.101 194.654 -843.152 0.65229 -0.145817 -0.51206 -0.53949 
2298 2 -884.274 202.205 -839.421 0.839284 -0.498449 -0.142549 0.163799 
2299 2 -887.973 209.775 -834.323 0.381568 -0.354034 0.277549 0.807485 
2279 2 -934.546 210.621 -826.596 -0.906721 -0.108139 0.0889816 -0.397801 
2300 2 -891.357 217.047 -828.535 -0.335658 -0.0753415 0.408373 0.845511 
2301 2 -894.681 223.932 -822.21 -0.816868 0.285501 0.45503 0.210149 
2175 2 -815.807 121.755 -834.787 0.0513714 0.691427 0.719083 -0.0470006 
2176 2 -815.384 120.067 -844.452 0.0383691 0.979678 -0.069567 0.184171 
2177 2 -812.256 119.149 -853.916 -0.202486 0.615018 -0.74863 0.142499 
2174 2 -814.78 121.327 -824.926 -0.0460782 -0.199128 0.978326 0.0331987 
2178 2 -807.74 118.998 -862.687 -0.181505 -0.274071 -0.941441 0.0750383 
2179 2 -804.15 116.726 -871.664 -0.212267 -0.885993 -0.386012 -0.144756 
2180 2 -800.543 113.741 -880.374 -0.103142 -0.826978 0.461082 -0.30475 
2181 2 -796.792 109.222 -888.327 0.176522 -0.140827 0.932229 -0.282766 
2342 2 -848.277 335.863 -874.598 0.281606 -0.938311 -0.129343 0.153429 
2373 2 -875.131 365.679 -886.213 0.913532 0.139109 0.336695 0.180954 
2374 2 -868.78 364.635 -878.756 0.536334 0.244307 0.0855072 0.803336 
2375 2 -863.54 364.399 -870.424 -0.27046 0.158988 0.00883181 0.949472 
2343 2 -851.77 340.816 -882.533 0.0500402 -0.646737 0.689627 0.321933 
2341 2 -845.001 329.254 -868.11 0.355927 -0.582803 -0.711781 -0.16439 
2371 1 -912.968 342.547 -870.044 0.655987 -0.137903 0.483194 -0.563195 
2376 2 -860.105 364.954 -861.097 -0.905699 0.0985799 -0.0800486 0.404455 
2340 2 -841.619 322.232 -861.922 0.121572 0.204171 -0.879455 -0.412424 
2372 3 -886.303 326.838 -853.591 0.659896 -0.0967401 0.457025 -0.588478 
2339 2 -839.227 313.76 -857.436 -0.3995 0.754675 -0.380097 -0.355516 
2377 2 -857.976 365.368 -851.354 -0.852141 -0.107963 -0.0836844 -0.50517 
2378 2 -855.737 364.45 -841.696 -0.0632352 -0.16637 -0.109974 -0.977869 
2379 2 -852.253 366.045 -832.509 0.762072 -0.283712 0.0767614 -0.576942 
2370 2 -934.502 311.096 -842.231 0.090373 -0.90105 -0.0973431 0.412876 
2369 2 -926.866 310.448 -835.983 0.385297 -0.487791 -0.758944 0.193935 
2338 2 -837.01 306.185 -851.467 -0.448805 0.829433 0.329677 0.0439037 
2337 2 -834.869 298.682 -845.403 -0.223667 0.258244 0.865323 0.366742 
2336 2 -833.481 292.085 -838.172 0.134697 -0.527442 0.757206 0.360973 
2335 2 -833.987 286.402 -830.024 0.31926 -0.944383 0.0783961 0.00829439 
2368 2 -919.803 310.548 -829.028 0.346704 0.345304 -0.866758 -0.096398 
2380 2 -847.183 369.792 -824.874 0.884187 -0.159348 0.355487 0.25778 
2334 2 -834.852 279.796 -822.673 0.243801 -0.646549 -0.665169 -0.282995 
2367 2 -913.706 310.848 -821.287 0.140833 0.887742 -0.296853 -0.322426 
2345 3 -812.817 357.153 -852.246 0.679715 0.0738682 -0.0786165 -0.7255 
2344 1 -807.432 356.402 -886.81 0.697371 0.0653743 -0.0531176 -0.711744 
2346 2 -766.64 372.841 -869.838 0.530685 0.164417 0.164525 -0.815029 
2347 2 -767.773 368.614 -860.975 0.969279 0.210992 0.031303 -0.122475 
2348 2 -766.981 364.006 -852.229 0.684889 0.0965447 -0.186222 0.697802 
2349 2 -767.882 360.361 -843.091 -0.180508 -0.204848 -0.1282 0.953425 
2350 2 -770.966 356.84 -834.308 -0.793747 -0.316575 0.213707 0.473366 
2351 2 -777.094 353.967 -827.113 -0.838967 -0.0684808 0.441938 -0.310057 
2352 2 -783.79 350.192 -820.908 -0.272601 0.312347 0.342913 -0.842935 
2451 2 -845.359 404.946 -874.875 -0.203661 -0.941871 0.170102 -0.206074 
2450 2 -849.213 409.273 -866.864 -0.295118 -0.760139 -0.578527 -0.0200331 
2449 2 -853.192 413.392 -858.764 -0.204641 -0.0310464 -0.945376 0.251838 
2448 2 -858.103 416.92 -850.981 -0.00899992 0.745153 -0.586326 0.317629 
2447 2 -862.976 419.401 -842.726 0.169954 0.921744 0.271693 0.218371 
2446 2 -865.574 421.746 -833.489 0.190893 0.260187 0.941256 -0.0994962 
2445 2 -869.627 423.415 -824.652 0.138879 -0.619201 0.753791 -0.170593 
2453 3 -818.974 418.332 -832.082 -0.630191 -0.222876 0.22198 0.709866 
2452 1 -801.464 416.85 -862.384 -0.651277 -0.190614 0.239894 0.69423 
2454 2 -768.451 430.337 -831.549 0.937348 0.257422 -0.224355 -0.0691145 
2455 2 -773.07 426.21 -823.936 0.639006 0.00911921 -0.246797 0.728478 
1884 2 -502.276 -533.746 -791.052 0.376311 0.464414 -0.790967 0.130693 
1883 2 -497.815 -528.377 -784.053 0.381452 0.875857 -0.251209 -0.155768 
1882 2 -491.96 -523.265 -778.025 0.0854776 0.773207 0.479887 -0.405651 
1898 2 -500.686 -526.45 -694.161 0.840193 -0.42618 -0.315138 -0.114603 
1897 2 -495.944 -534.002 -698.565 0.397468 0.0492454 -0.514025 -0.758533 
1893 2 -481.236 -569.11 -707.014 0.0509639 -0.200213 0.52801 0.823725 
1891 2 -480.899 -587.047 -715.079 0.755371 -0.465884 -0.212716 -0.4088 
1892 2 -480.405 -578.145 -710.678 0.733405 -0.51203 0.183903 0.407581 
1890 2 -480.217 -593.863 -722.234 0.153767 -0.0201477 -0.35667 -0.921269 
1896 2 -491.584 -542.449 -701.256 -0.351426 0.466482 -0.345951 -0.734311 
1895 2 -487.376 -551.367 -700.969 -0.681321 0.692933 0.148471 -0.183306 
1894 2 -484.129 -560.298 -703.547 -0.643478 0.326699 0.495345 0.483567 
1885 1 -490.866 -577.499 -777.426 -0.0823326 -0.124736 -0.289981 -0.94529 
1881 2 -486.155 -519.396 -771.05 -0.312922 0.0490216 0.906379 -0.279562 
1889 2 -477.32 -598.248 -730.648 -0.567795 0.289463 -0.0898553 -0.76534 
1888 2 -474.863 -602.414 -739.308 -0.960811 0.219475 0.145699 -0.0862874 
1886 3 -480.586 -557.817 -750.409 -0.0926526 -0.116531 -0.336516 -0.929835 
1880 2 -481.152 -515.744 -763.331 -0.339996 -0.690682 0.630274 0.100579 
1887 2 -474.336 -609.15 -746.633 -0.627928 0.225196 0.275716 0.692079 
1869 2 -432.826 -565.105 -690.792 -0.358308 0.798728 -0.0376369 -0.481905 
1870 2 -440.059 -558.917 -693.318 0.163229 0.436238 -0.70941 -0.528951 
1871 2 -446.704 -552.786 -697.374 0.403219 -0.37495 -0.808568 -0.207471 
1872 2 -451.319 -546.141 -703.084 0.442657 -0.863871 -0.164915 0.174884 
1878 2 -472.218 -514.487 -745.945 0.214147 -0.536811 -0.809224 0.1055 
1877 2 -471.189 -515.921 -736.207 0.0130443 0.350501 -0.934918 -0.0539254 
1876 2 -468.31 -521.266 -728.456 -0.215852 0.90499 -0.279499 -0.237238 
1873 2 -455.834 -539.071 -708.456 0.134789 -0.656075 0.615205 0.415837 
1875 2 -464.459 -527.332 -721.672 -0.350686 0.7759 0.524401 0.00150796 
1874 2 -459.943 -532.17 -714.291 -0.295528 0.0648407 0.917392 0.258556 
1859 3 -379.233 -564.269 -685.591 0.0785844 -0.540343 0.243382 0.801636 
1868 2 -426.655 -571.458 -686.417 -0.522952 0.492807 0.690818 0.0802046 
1867 2 -422.149 -579.863 -683.743 -0.138375 -0.231058 0.767463 0.581777 
1866 2 -416.966 -587.954 -681.248 0.359987 -0.730957 0.260667 0.517845 
1854 2 -371.698 -523.973 -702.05 0.38952 0.00945546 0.903448 -0.178791 
1855 2 -364.688 -526.822 -708.342 0.478499 0.703997 0.509023 0.127757 
1849 2 -409.439 -519.656 -671.016 -0.113279 0.860084 -0.350749 0.352703 
1853 2 -378.785 -521.036 -695.729 0.140521 -0.678308 0.585717 -0.420817 
1850 2 -402.62 -520.147 -678.165 -0.402501 0.309456 -0.85412 0.112729 
1851 2 -395.277 -520.123 -684.81 -0.403762 -0.433401 -0.773265 -0.22628 
1852 2 -387.103 -520.1 -690.473 -0.155824 -0.836552 -0.188933 -0.490106 
1865 2 -410.934 -595.387 -678.653 0.631216 -0.600652 -0.490447 0.0156758 
1864 2 -403.114 -601.123 -676.546 0.480321 0.0751156 -0.780851 -0.392329 
1899 2 -505.281 -518.783 -689.879 0.605194 -0.594855 0.0888358 0.521532 
1863 2 -393.793 -603.571 -674.19 0.166301 0.709637 -0.370036 -0.57605 
1862 2 -384.734 -606.578 -671.895 -0.388922 0.7148 0.275535 -0.511743 
1861 2 -375.345 -608.35 -669.249 -0.578334 0.270869 0.765738 -0.0761856 
1860 2 -365.977 -611.378 -668.441 -0.484554 -0.329491 0.645962 0.489261 
1856 2 -358.209 -532.483 -713.203 0.0913365 0.876032 -0.202636 0.427977 
1857 2 -351.13 -536.209 -719.044 -0.260592 0.395748 -0.810762 0.343716 
1858 1 -348.672 -577.459 -696.278 0.060554 -0.533004 0.23414 0.810813 
1938 2 -648.544 -477.207 -749.291 -0.775155 0.0647399 0.518361 -0.35531 
1937 2 -640.169 -474.591 -753.715 -0.763933 -0.356601 0.368085 0.392117 
1936 2 -631.264 -471.998 -757.338 -0.194045 -0.532643 -0.0297857 0.823256 
1935 2 -622.348 -470.986 -761.403 0.602625 -0.341238 -0.433542 0.576577 
1934 2 -612.694 -470.435 -763.576 0.796989 0.173049 -0.552781 -0.17116 
1933 2 -603.373 -468.898 -766.293 0.346643 0.577809 -0.184238 -0.715564 
1932 2 -593.806 -467.659 -768.363 -0.376674 0.516828 0.355436 -0.681668 
1939 1 -637.562 -482.145 -703.675 0.258014 0.372012 0.768022 0.452966 
1931 2 -584.047 -467.855 -766.559 -0.645576 0.0486092 0.762124 0.00600205 
1930 2 -574.517 -467.925 -764.093 -0.414977 -0.581524 0.53372 0.452512 
1929 2 -565.073 -469.401 -761.77 0.119861 -0.793724 -0.0285231 0.595669 
1928 2 -555.682 -472.196 -760.757 0.641571 -0.454749 -0.584489 0.199907 
1927 2 -546.111 -474.744 -760.201 0.57666 0.267293 -0.653171 -0.411564 
1926 2 -536.744 -477.64 -759.087 0.0316863 0.706545 -0.229569 -0.668646 
1925 2 -527.529 -480.599 -756.824 -0.498824 0.643123 0.461351 -0.35316 
1940 3 -609.663 -465.676 -716.923 0.247075 0.386497 0.761324 0.458214 
1945 2 -587.228 -449.908 -682.394 -0.435675 0.847623 0.210894 0.217362 
1946 2 -585.248 -441.625 -687.524 -0.3675 0.69782 -0.563509 -0.245862 
1947 2 -584.609 -433.928 -693.741 -0.113657 -0.0343565 -0.888623 -0.443003 
1948 2 -582.705 -426.21 -699.664 0.303443 -0.717235 -0.607556 -0.156118 
1949 2 -583.845 -420.017 -707.293 0.304671 -0.936214 0.163924 0.0617046 
1950 2 -584.475 -414.119 -715.269 0.0303993 -0.551455 0.812324 0.187361 
1951 2 -585.6 -409.968 -724.159 -0.103593 0.192409 0.947603 0.233013 
1952 2 -587.19 -405.369 -732.783 -0.316899 0.829176 0.445912 0.114917 
1953 2 -588.324 -398.951 -740.198 -0.247001 0.871706 -0.394747 -0.152623 
1954 2 -589.132 -393.873 -748.616 0.0548288 0.213055 -0.920887 -0.321821 
1955 2 -590.985 -388.568 -756.725 0.213483 -0.698812 -0.6805 -0.0548351 
1956 2 -592.952 -384.818 -765.676 0.259794 -0.939556 0.188331 0.119468 
1957 2 -594.259 -379.825 -774.063 -0.0202511 -0.547396 0.795136 0.260205 
1958 2 -597.313 -376.136 -782.746 -0.178531 0.372184 0.893826 0.175159 
1944 2 -592.352 -457.222 -678.228 -0.0270509 0.489342 0.701507 0.517398 
1943 2 -599.237 -464.04 -676.537 0.504633 -0.171501 0.769501 0.351855 
1942 2 -605.223 -470.474 -671.962 0.485353 -0.754341 0.420136 -0.137435 
1924 2 -518.316 -482.757 -754.037 -0.591152 -0.0151247 0.791139 0.156237 
1959 2 -599.028 -371.907 -791.544 -0.334884 0.929477 0.12837 0.0862995 
1904 2 -516.252 -474.535 -676.41 0.0943141 -0.110611 -0.628205 -0.764349 
1960 2 -598.979 -365.806 -799.318 -0.159765 0.735579 -0.644721 -0.133164 
1903 2 -517.483 -484.239 -677.09 -0.486742 0.414849 -0.563151 -0.523301 
1902 2 -516.217 -493.698 -679.8 -0.806713 0.588345 0.0377819 -0.0404517 
1905 2 -515.242 -464.858 -674.485 0.63242 -0.593716 -0.293631 -0.401655 
1901 2 -514.43 -502.734 -683.428 -0.544607 0.272893 0.499709 0.615811 
1906 2 -513.843 -455.168 -673.343 0.684489 -0.543562 0.386953 0.29374 
1879 2 -476.491 -513.89 -754.816 -0.0744719 -0.960097 -0.101049 0.249912 
1907 2 -511.707 -445.547 -672.383 0.297318 0.0100264 0.716192 0.631324 
1900 2 -510.843 -511.122 -687.218 0.0502456 -0.275145 0.493582 0.823497 
1923 2 -509.045 -484.404 -751.068 -0.20484 -0.673762 0.48304 0.520344 
1922 2 -500.264 -484.453 -746.559 0.216571 -0.784031 -0.319164 0.48634 
1921 2 -491.853 -484.417 -741.324 0.487777 -0.209688 -0.842031 0.095333 
1920 2 -482.905 -484.152 -737.077 0.393471 0.554863 -0.66118 -0.316464 
1919 2 -473.644 -482.075 -734.22 0.158258 0.796933 0.0249785 -0.582433 
1914 2 -430.191 -472.838 -713.645 0.413196 -0.115191 -0.892682 0.138271 
1915 2 -438.048 -474.237 -719.66 0.224426 -0.727717 -0.445183 0.471034 
1917 2 -455.225 -478.052 -728.369 -0.581079 -0.260691 0.76566 0.0902891 
1918 2 -464.385 -479.824 -731.819 -0.446388 0.423246 0.657758 -0.43469 
1916 2 -446.769 -474.932 -724.367 -0.34449 -0.807427 0.235732 0.416916 
1912 1 -450.926 -437.599 -690.077 0.0594348 -0.592284 -0.552602 0.583351 
1913 3 -477.923 -457.625 -699.963 0.0614798 -0.584049 -0.544377 0.598967 
1908 2 -507.09 -436.732 -672.435 -0.225367 0.580911 0.378969 0.684204 
1909 2 -500.745 -429.141 -672.358 -0.609712 0.720137 -0.216317 0.250721 
1910 2 -494.431 -421.593 -673.387 -0.577451 0.221936 -0.689711 -0.376288 
1911 2 -488.376 -413.732 -674.242 0.0156998 -0.47554 -0.555987 -0.681537 
2049 2 -748.224 -229.563 -741.779 0.112174 0.101288 0.661494 0.734564 
2050 2 -745.633 -220.019 -741.027 -0.583523 0.475939 0.302151 0.584541 
1968 2 -679.651 -314.029 -812.534 -0.374503 -0.188274 -0.312234 -0.852532 
2047 1 -747.652 -225.17 -788.705 -0.362773 -0.0560187 -0.534604 -0.76122 
1969 2 -674.271 -310.115 -805.108 0.490773 -0.357544 0.0451349 -0.793263 
2051 2 -743.753 -211.017 -737.326 -0.809659 0.538034 -0.225333 -0.0647806 
1970 2 -668.661 -307.035 -797.598 0.937371 -0.123253 0.319878 -0.0618218 
1961 2 -598.481 -361.292 -808.105 -0.0714646 -0.1194 -0.978595 -0.151622 
1971 2 -662.409 -304.952 -790.235 0.565326 0.15951 0.355381 0.727095 
1962 2 -597.668 -359.006 -817.69 0.163123 -0.814968 -0.555825 -0.0166354 
2000 2 -577.397 -231.425 -816.801 -0.885522 -0.236326 0.0838126 0.391121 
2015 2 -630.235 -238.725 -682.78 -0.944776 0.0442015 0.144504 -0.290796 
1972 2 -655.741 -301.944 -783.633 -0.211915 0.557173 -0.0311959 0.802295 
1967 3 -630.567 -330.236 -807.95 0.89505 0.0640511 0.275863 0.344505 
2014 2 -628.307 -236.278 -692.229 -0.820548 -0.170281 -0.00954047 0.545541 
2013 2 -627.006 -235.745 -702.107 -0.109972 -0.0668939 -0.0215441 0.991447 
1994 3 -535.298 -244.724 -818.534 0.802014 0.0553154 -0.407846 0.432868 
2001 2 -580.064 -234.841 -807.986 -0.884683 0.00967108 0.199055 -0.42145 
1973 2 -646.683 -299.823 -780.231 -0.716109 0.299469 -0.528604 0.343634 
2002 2 -583.673 -235.866 -798.75 -0.26774 0.147363 0.0307288 -0.951659 
2003 2 -586.806 -235.912 -789.411 0.500656 0.150372 -0.0491952 -0.851065 
1974 2 -637.057 -299.619 -777.905 -0.760787 -0.165906 -0.530831 -0.334509 
1975 2 -627.83 -298.494 -774.627 -0.188091 -0.510102 -0.323985 -0.774242 
1976 2 -618.781 -295.799 -771.636 0.511224 -0.576317 0.15644 -0.61809 
1977 2 -610.383 -291.597 -768.539 0.797871 -0.244247 0.549172 0.0464259 
1978 2 -601.699 -287.391 -766.191 0.513789 0.408148 0.481652 0.580903 
2012 2 -627.974 -235.525 -711.936 0.707296 0.0468654 0.0217491 0.705027 
1979 2 -592.085 -285.821 -764.63 0.0495778 0.821958 -0.0527648 0.564927 
1980 2 -582.694 -286.72 -767.503 -0.462225 0.472708 -0.674751 0.328035 
1981 2 -573.474 -287.098 -771.217 -0.52275 -0.199818 -0.752281 -0.347676 
1982 2 -564.256 -283.998 -773.199 -0.0748704 -0.71336 -0.256749 -0.647759 
1983 2 -554.811 -281.315 -774.432 0.43855 -0.720506 0.394013 -0.365102 
1984 2 -546.241 -277.616 -777.489 0.562118 -0.117041 0.814524 0.0829234 
1985 2 -537.338 -274.466 -780.464 0.339513 0.429981 0.625561 0.555447 
2007 2 -604.835 -235.576 -754.595 -0.783892 -0.124243 0.300531 0.528921 
2006 2 -599.323 -236.341 -762.774 0.000436762 -0.291307 0.0172966 0.956473 
2004 2 -589.767 -236.76 -779.985 0.938164 0.0652176 -0.253643 -0.226408 
2005 2 -594.616 -236.692 -771.409 0.778971 -0.184991 -0.203805 0.563424 
2008 2 -610.783 -234.35 -746.706 -0.888316 0.129648 0.322769 -0.299843 
2009 2 -617.127 -233.396 -739.287 -0.328829 0.201376 0.0821847 -0.919002 
2011 2 -625.29 -233.581 -721.226 0.984919 0.117966 -0.0931569 -0.0856747 
2010 2 -621.468 -233.665 -730.425 0.567088 0.160711 -0.118589 -0.799074 
2016 2 -632.707 -238.716 -673.205 -0.329226 0.147447 0.0533591 -0.93114 
1986 2 -528.363 -270.784 -782.422 -0.0174009 0.851717 0.0277184 0.522979 
1987 2 -519.451 -270.203 -786.558 -0.428266 0.611854 -0.56015 0.358406 
1988 2 -510.334 -269.045 -790.242 -0.48568 0.00636109 -0.852452 -0.193392 
1989 2 -502.131 -266.139 -794.985 -0.0561711 -0.655131 -0.606198 -0.447406 
1990 2 -495.27 -261.614 -800.492 0.391724 -0.855421 0.0891256 -0.3269 
1991 2 -489.347 -255.506 -805.439 0.438534 -0.459752 0.756241 0.156254 
1992 2 -484.097 -248.868 -810.509 0.0758657 0.380077 0.799755 0.458451 
2043 2 -714.677 -187.466 -818.129 0.146356 0.728806 0.32025 -0.58725 
2052 2 -740.938 -202.005 -734.346 -0.434368 0.147138 -0.581203 -0.672218 
2053 2 -737.199 -193.14 -732.062 0.198008 -0.460463 -0.4876 -0.714852 
2054 2 -732.564 -184.402 -731.181 0.712277 -0.575944 0.0241119 -0.400461 
2048 3 -730.986 -196.381 -777.821 -0.343394 -0.0823728 -0.519982 -0.777762 
2055 2 -727.612 -176.361 -728.212 0.738702 -0.382317 0.449823 0.325289 
2056 2 -723.379 -167.864 -725.383 0.194633 0.0553295 0.61062 0.765637 
2057 2 -720.135 -158.663 -723.253 -0.327207 0.520307 0.369024 0.697165 
2058 2 -715.776 -150.117 -720.79 -0.784159 0.5371 -0.271201 0.151882 
2059 2 -710.231 -142.357 -718.135 -0.600673 0.151614 -0.617443 -0.484736 
2060 2 -704.214 -134.965 -715.626 -0.07753 -0.38826 -0.341934 -0.852246 
2061 2 -696.913 -129.689 -711.594 0.696186 -0.389494 0.0348614 -0.602 
2062 2 -691.332 -124.942 -704.884 0.96099 -0.127594 0.165755 0.180952 
2063 2 -688.885 -121.982 -695.773 0.439991 0.0837614 0.177252 0.876341 
2064 2 -686.142 -119.685 -686.516 -0.443649 0.206217 0.0863135 0.867871 
2042 2 -707.711 -182.31 -813.41 -0.347185 0.125317 0.852862 -0.369303 
2041 2 -701.483 -178.295 -806.834 -0.403005 -0.640683 0.647491 0.0887012 
2040 2 -697.138 -175.006 -798.615 -0.169635 -0.95149 -0.0729683 0.246101 
2039 2 -693.68 -172.324 -789.659 0.0986845 -0.532638 -0.819829 0.185576 
2038 2 -689.867 -170.595 -780.745 0.226989 0.315121 -0.921505 0.00180191 
2037 2 -685.515 -167.192 -772.531 0.242971 0.933289 -0.20197 -0.170721 
2084 2 -672.45 -71.92 -728.904 -0.499868 -0.312148 0.67182 0.448723 
2085 2 -682.073 -69.6482 -729.826 -0.603634 0.237069 0.73824 -0.18554 
2086 2 -691.681 -69.4725 -732.195 -0.272843 0.720709 0.200704 -0.604858 
2065 2 -683.049 -116.63 -677.663 -0.967965 0.114736 -0.181146 0.130639 
2087 2 -701.486 -68.3141 -733.307 0.295329 0.601243 -0.507353 -0.542108 
2036 2 -679.999 -163.256 -765.271 0.0110711 0.741329 0.559442 -0.370586 
2088 2 -710.987 -66.4486 -735.488 0.550454 -0.0506259 -0.806852 -0.208391 
2035 2 -674.651 -161.045 -757.157 -0.273975 0.0527389 0.948252 -0.151576 
2089 2 -719.324 -62.2249 -738.892 0.427503 -0.756024 -0.452261 0.202803 
2066 2 -679.394 -114.197 -668.815 -0.747378 -0.0459215 -0.237996 -0.618607 
2034 2 -667.937 -159.118 -750.088 -0.349603 -0.608334 0.691348 0.172466 
2090 2 -726.645 -57.457 -743.456 0.0411659 -0.840039 0.255227 0.476968 
2083 2 -662.693 -73.1255 -727.279 0.0257934 -0.77859 0.050653 0.624954 
2033 2 -661.994 -157.986 -742.335 -0.0558272 -0.959451 -0.0760949 0.265606 
2027 2 -630.515 -152.533 -692.892 -0.175326 -0.580866 0.792221 0.0651257 
2028 2 -634.331 -154.231 -701.765 -0.210621 0.247263 0.945592 -0.0188693 
2030 2 -643.494 -155.114 -719.349 0.192908 0.894872 -0.23529 -0.32654 
2029 2 -638.462 -154.7 -710.768 -0.0977623 0.823978 0.507461 -0.232351 
2031 2 -649.713 -156.601 -726.882 0.31224 0.368973 -0.873838 -0.0526626 
2032 2 -655.993 -158.006 -734.48 0.235784 -0.474577 -0.833569 0.156032 
2075 3 -640.046 -86.5759 -676.625 -0.416505 0.448955 0.710548 -0.346531 
2076 2 -598.025 -82.1457 -706.943 0.0364671 -0.872687 -0.0749916 0.481106 
2077 2 -606.712 -82.3451 -711.72 -0.311289 -0.607092 0.616719 0.392678 
2078 2 -615.238 -81.1392 -716.572 -0.647747 0.155217 0.745823 0.00891958 
2079 2 -624.628 -79.0015 -718.355 -0.337023 0.70218 0.358241 -0.514802 
2082 2 -652.916 -74.0481 -725.993 0.56244 -0.477121 -0.589563 0.32929 
2080 2 -634.093 -77.5314 -720.891 0.154427 0.704137 -0.362367 -0.590791 
2081 2 -643.585 -75.9315 -723.437 0.595694 0.147766 -0.752143 -0.239988 
2026 2 -626.183 -150.529 -684.153 -0.0705389 -0.976977 -0.0248186 0.19981 
2021 3 -628.674 -194.778 -672.268 -0.0824254 0.0815664 0.993251 -0.00236217 
2025 2 -622.744 -150.498 -674.873 0.120038 -0.653293 -0.736561 0.127584 
2024 2 -616.904 -151.172 -666.921 0.286394 0.195663 -0.932044 -0.104829 
2091 2 -733.735 -54.1564 -749.458 -0.401762 -0.292293 0.821944 0.278495 
2103 2 -759.611 -53.9067 -669.078 0.311267 -0.204828 0.835775 0.403284 
2101 1 -794.402 -54.1973 -700.923 0.251658 0.432933 0.758028 0.417888 
2095 2 -768.953 -48.7635 -763.494 0.73122 -0.104136 -0.670063 -0.0740936 
2094 2 -759.092 -50.1563 -763.605 0.414817 0.543253 -0.472394 -0.556458 
2096 2 -778.677 -47.0457 -762.987 0.52447 -0.424743 -0.31666 0.666521 
2093 2 -750.274 -49.5625 -759.281 -0.0711335 0.842301 0.202478 -0.494441 
2097 2 -787.469 -46.491 -758.611 -0.179058 -0.429541 0.0827181 0.881244 
2092 2 -741.744 -51.3401 -754.551 -0.46404 0.411464 0.76544 -0.171655 
2098 2 -794.954 -46.3647 -752.109 -0.760072 -0.171186 0.526954 0.339567 
2099 2 -803.572 -45.2801 -747.477 -0.723777 0.276745 0.484479 -0.406004 
2100 2 -812.67 -45.3579 -743.52 -0.13896 0.553758 0.103814 -0.814411 
2133 2 -761.937 3.07593 -813.496 0.237229 0.0986705 -0.14279 -0.955823 
2104 2 -755.437 -46.3089 -673.841 -0.108249 0.623859 0.557082 0.537348 
2105 2 -749.854 -38.8634 -677.053 -0.420545 0.876643 -0.0385605 0.230548 
2102 3 -766.969 -42.5603 -719.167 0.262974 0.428047 0.766201 0.400695 
2134 2 -764.317 5.311 -804.128 0.840066 -0.195791 -0.324223 -0.388375 
2129 3 -745.979 45.3789 -814.545 0.29261 -0.0171068 -0.0456328 0.954989 
2135 2 -767.611 11.3777 -797.117 0.828938 -0.379656 -0.0354359 0.409228 
2108 2 -739.397 -17.3111 -694.367 0.208992 -0.866616 -0.4419 -0.10012 
2144 2 -791.851 71.0438 -737.234 -0.642079 0.129855 0.315979 0.686316 
2143 2 -788.455 64.9623 -744.287 0.109136 -0.241731 0.280554 0.922467 
2142 2 -786.586 58.637 -751.65 0.765509 -0.340969 0.125552 0.531011 
2141 2 -785.395 51.4079 -758.295 0.875415 -0.380719 -0.147254 -0.258879 
2140 2 -783.653 43.9707 -764.713 0.336455 -0.0467218 -0.392102 -0.85491 
2112 2 -737.113 2.6942 -728.254 -0.313852 0.94171 0.0593634 0.105622 