ITEM: TIMESTEP
10000000
ITEM: NUMBER OF ATOMS
4067
ITEM: BOX BOUNDS pp pp pp
-4.6310929470000001e+03 4.6704658980000004e+03
-4.6310929470000001e+03 4.6704658980000004e+03
-4.6310929470000001e+03 4.6704658980000004e+03
ITEM: ATOMS id type x y z c_q[1] c_q[2] c_q[3] c_q[4] 
2934 2 235.58 -564.787 -529.184 0.185934 -0.910886 -0.0424673 -0.36594 
2933 2 229.352 -566.832 -521.888 -0.185764 -0.620598 -0.697932 -0.305352 
2939 3 226.677 -523.628 -515.655 -0.943151 -0.22812 0.240557 -0.0236511 
2935 2 242.002 -560.809 -535.614 0.487131 -0.679492 0.521384 -0.170741 
2936 2 249.587 -556.149 -539.917 0.52279 -0.033206 0.843853 0.116193 
2937 2 258.349 -553.619 -543.823 0.24021 0.626608 0.547772 0.499607 
2941 2 215.397 -477.484 -518.077 0.302528 0.0496541 0.191057 -0.932474 
2940 2 214.778 -474.424 -527.445 -0.499116 -0.117828 0.128289 -0.848847 
2938 1 240.296 -510.078 -544.985 -0.956191 -0.206313 0.207631 -0.00486786 
2373 2 12.5424 -256.714 -520.84 -0.944748 0.190256 -0.0854587 0.252883 
2287 2 -147.546 -91.567 -587.907 -0.288092 0.121668 -0.833364 0.455745 
2288 2 -142.118 -98.8024 -591.804 -0.538135 -0.613315 -0.566039 0.117708 
2289 2 -137.227 -106.678 -595.349 -0.45556 -0.817128 0.111124 -0.335289 
2290 1 -94.5972 -112.864 -576.081 0.425579 0.0214738 -0.388542 -0.81698 
2291 3 -109.827 -89.8261 -554.632 0.415453 0.0508134 -0.418574 -0.805986 
2286 2 -148.586 -83.5215 -582.14 0.352677 0.750457 -0.472935 0.297937 
2285 2 -149.575 -78.3198 -573.713 0.254335 0.872916 0.410583 -0.0689365 
2284 2 -150.094 -71.939 -566.165 0.106235 0.224369 0.909488 -0.333473 
2293 2 -66.9474 -101.483 -536.255 0.673482 -0.258209 -0.148422 0.676551 
2294 2 -72.3345 -99.6207 -528.163 -0.0402587 -0.302547 0.306506 0.901609 
2295 2 -78.1454 -94.4702 -522.008 -0.680561 0.01723 0.502715 0.532746 
2292 2 -61.2748 -104.637 -543.74 0.924087 -0.132239 -0.340161 -0.113431 
2283 2 -149.667 -67.1485 -557.427 -0.135309 -0.563558 0.79983 -0.156094 
2296 2 -84.7167 -88.55 -517.526 -0.741914 0.467198 0.350762 -0.329022 
2282 2 -151.971 -61.477 -549.503 -0.342232 -0.932936 -0.0982255 -0.0534767 
2209 1 -216.508 -19.2142 -520.764 0.56395 -0.157107 -0.0333643 0.81004 
2211 2 -254.021 -47.2568 -515.368 -0.621416 0.344153 -0.0705168 -0.700305 
2281 2 -152.978 -55.2213 -541.823 -0.231693 -0.545248 -0.773876 0.223919 
2280 2 -153.73 -48.2488 -534.921 0.114121 0.360795 -0.846671 0.3741 
2279 2 -154.22 -40.5982 -528.634 0.412457 0.875176 -0.219406 0.125728 
2278 2 -151.206 -33.4811 -522.389 0.245713 0.74471 0.49933 -0.368378 
2277 2 -148.582 -27.0827 -515.188 -0.0823261 0.0989322 0.908803 -0.396877 
2154 2 -383.119 219.26 -559.878 -0.0962624 0.722993 0.484122 -0.483364 
2153 2 -375.326 222.705 -554.758 -0.437335 0.0520856 0.870535 -0.219532 
2152 2 -367.456 226.847 -550.301 -0.475598 -0.653476 0.556533 0.192475 
2151 2 -359.432 230.792 -545.954 -0.107758 -0.839072 -0.15176 0.51119 
2155 1 -355.434 200.85 -593.353 0.37589 -0.281332 0.071554 -0.880022 
2157 2 -315.214 181.801 -609.11 -0.724866 -0.119576 -0.161729 -0.658874 
2158 2 -310.889 181.932 -600.168 0.151323 -0.244993 0.0741691 -0.954766 
2156 3 -333.774 204.253 -566.198 0.422752 -0.31823 0.0833164 -0.844434 
2159 2 -305.9 181.366 -591.636 0.849729 -0.0257557 0.265932 -0.454508 
2160 2 -301.155 179.738 -583.121 0.903761 0.110492 0.132498 0.39173 
2161 2 -297.379 178.527 -574.011 0.227706 0.070146 0.0351535 0.970564 
2162 2 -295.014 178.876 -564.318 -0.577359 0.0442913 0.00495271 0.815273 
2163 2 -294.613 179.886 -554.54 -0.99346 0.100365 -0.051363 0.0180592 
2164 2 -293.866 181.053 -544.67 -0.652766 -0.174338 -0.105484 -0.729641 
2165 2 -290.198 180.912 -535.445 0.168216 -0.202594 0.0277307 -0.964308 
2166 2 -286.376 181.84 -526.324 0.794289 -0.32322 0.205114 -0.471765 
2167 2 -280.5 185.313 -519.243 0.802993 -0.0438617 0.486455 0.341525 
2150 2 -352.584 236.844 -542.161 0.252424 -0.32029 -0.755818 0.512286 
2149 2 -344.356 239.906 -537.625 0.514796 0.293128 -0.80551 -0.0146244 
2148 2 -335.694 241.663 -533.317 0.256336 0.808238 -0.264753 -0.459292 
2147 2 -327.235 244.113 -528.853 -0.20981 0.651858 0.540567 -0.48872 
2146 2 -319.312 246.583 -523.367 -0.446247 0.00272226 0.889051 -0.102193 
2145 2 -310.901 249.69 -519.342 -0.432407 -0.68334 0.487512 0.329245 
2144 2 -302.435 253.415 -515.717 -0.0190211 -0.79436 -0.281538 0.537929 
2127 2 -159.464 326.605 -530.962 0.598096 0.498776 0.607042 0.158124 
2126 2 -168.236 330.554 -528.527 0.519701 -0.108054 0.783571 -0.32288 
2125 2 -177.195 333.505 -525.567 0.0954789 -0.747373 0.365788 -0.546367 
2124 2 -185.055 336.8 -520.49 -0.346446 -0.811453 -0.335685 -0.329902 
2123 2 -193.178 338.759 -515.276 -0.475493 -0.166949 -0.863376 0.0248263 
2074 1 -228.141 434.205 -533.68 -0.774276 0.084236 0.223521 0.586038 
2073 2 -267.623 412.283 -520.088 -0.417257 -0.903611 -0.00526655 -0.096727 
2076 2 -194.985 467.556 -529.835 0.995609 0.000850073 0.0279556 0.0893336 
2077 2 -194.266 467.063 -519.958 0.470584 -0.0209869 0.0821431 0.878273 
2913 2 77.6012 -606.545 -423.975 0.560396 -0.675167 0.389299 -0.280271 
2914 2 85.6058 -601.26 -426.643 0.496174 -0.231009 0.810688 0.20792 
2915 2 92.7026 -595.445 -430.383 0.17599 0.461882 0.715055 0.494357 
2932 2 223.514 -566.884 -513.997 -0.323902 0.243237 -0.905123 0.129133 
2911 1 104.585 -635.839 -398.692 -0.676022 0.603703 -0.422149 0.018084 
2916 2 99.6776 -589.858 -434.54 -0.316236 0.760536 0.0376947 0.565825 
2931 2 217.127 -564.896 -506.735 -0.065081 0.8126 -0.463998 0.346629 
2910 2 143.016 -646.601 -373.492 -0.656554 -0.675116 -0.0102191 0.336231 
2917 2 108.129 -584.947 -436.154 -0.568759 0.535197 -0.609665 0.135598 
2909 2 146.758 -637.56 -374.601 -0.0513671 -0.328214 -0.593928 0.732725 
2912 3 124.808 -607.583 -402.346 -0.627525 0.633143 -0.452946 0.0135001 
2918 2 116.465 -580.866 -439.356 -0.467847 -0.187249 -0.813938 -0.289071 
2919 2 124.879 -577.497 -443.482 -0.0615838 -0.702326 -0.374697 -0.60212 
2920 2 133.667 -573.843 -446.428 0.433538 -0.732222 0.32371 -0.413651 
2921 2 142.666 -570.745 -449.056 0.655178 -0.197311 0.725789 0.0709958 
2922 2 151.636 -566.851 -450.095 0.35812 0.505854 0.65341 0.434646 
2923 2 160.5 -564.587 -453.727 -0.023203 0.839553 0.0891347 0.535413 
2924 2 169.324 -562.818 -457.937 -0.304436 0.642268 -0.66067 0.241507 
2925 2 176.697 -561.242 -464.487 -0.375237 -0.0348739 -0.919756 -0.109679 
2926 2 183.807 -559.397 -471.053 -0.227727 -0.708408 -0.583739 -0.32488 
2927 2 191.138 -559.321 -477.602 0.0497032 -0.915764 0.19072 -0.350047 
2928 2 197.429 -559.963 -485.278 0.202374 -0.360964 0.886032 -0.209037 
2929 2 202.784 -561.545 -493.486 0.39358 0.306753 0.865987 0.032613 
2930 2 209.558 -563.497 -500.44 0.227569 0.863563 0.310934 0.325258 
2908 2 148.25 -627.711 -374.795 0.457995 0.396246 -0.613827 0.506405 
2907 2 150.259 -618.087 -374.018 0.671673 0.737493 -0.0426356 -0.0560498 
2906 2 155.055 -609.348 -374.624 0.271518 0.541247 0.425343 -0.672617 
2905 2 158.37 -600.168 -372.89 -0.308653 -0.107781 0.766377 -0.552976 
2904 2 160.696 -590.587 -372.732 -0.683204 -0.633904 0.327279 -0.155842 
2902 2 164.404 -571.413 -375.368 -0.070747 -0.251424 -0.638017 0.724372 
2901 2 166.997 -561.896 -376.322 0.541479 0.355254 -0.56682 0.509225 
2903 2 162.099 -580.952 -374.313 -0.64071 -0.59536 -0.281681 0.394581 
2900 2 170.911 -552.84 -375.559 0.642377 0.724541 -0.0562935 -0.243358 
2899 2 175.377 -544.548 -372.579 0.184847 0.547249 0.579636 -0.57478 
2898 2 181.017 -536.974 -369.606 -0.410764 -0.058762 0.81116 -0.412117 
2897 2 186.333 -528.735 -368.006 -0.653078 -0.644414 0.396749 0.028474 
2896 2 190.61 -520.446 -364.556 -0.396723 -0.762069 -0.26874 0.435477 
2990 2 84.9445 -397.218 -467.826 0.422554 0.701334 -0.386421 -0.424567 
2991 2 75.9448 -399.878 -470.915 0.591031 0.163179 -0.789384 0.0304667 
2992 1 54.8122 -397.381 -428.821 -0.524579 -0.11993 -0.667128 -0.515144 
2994 2 50.1175 -380.831 -384.868 -0.162074 0.692735 0.263779 0.651361 
2995 2 58.7116 -375.945 -385.275 -0.64341 0.60173 -0.355691 0.312135 
2993 3 82.9076 -376.712 -424.916 -0.526244 -0.0938748 -0.633725 -0.559149 
2996 2 66.9509 -370.48 -385.291 -0.606786 0.102337 -0.72437 -0.310847 
2997 2 75.0827 -364.854 -385.798 -0.053702 -0.434429 -0.527267 -0.728269 
2989 2 94.0014 -395.34 -464.409 -0.0697272 0.765363 0.287774 -0.571439 
2950 2 242.401 -507.556 -441.499 0.785258 0.180225 0.256913 0.533746 
2949 2 236.082 -506.74 -449.056 0.915279 -0.00844475 0.342309 -0.212174 
2948 2 231.977 -503.549 -457.443 0.425571 -0.112154 0.235761 -0.866445 
2942 2 216 -481.11 -508.875 0.907942 0.16637 0.0330188 -0.38324 
2943 2 215.932 -483.78 -499.319 0.805245 0.250404 -0.0469792 0.535418 
2988 2 103.454 -394.885 -461.626 -0.591067 0.16361 0.769551 -0.177944 
2944 2 217.886 -488.939 -491.061 0.0802367 0.132275 -0.269113 0.950602 
2987 2 111.692 -394.457 -456.192 -0.417131 -0.513187 0.711257 0.238231 
2945 2 220.369 -493.696 -482.731 -0.687338 -0.0180916 -0.252416 0.680826 
2986 2 119.754 -392.499 -450.853 -0.122711 -0.873891 0.0112354 0.470244 
2985 2 128.327 -391.969 -446.014 0.302614 -0.642649 -0.60249 0.363913 
2984 2 136.373 -390.564 -440.553 0.494994 0.0811436 -0.864608 0.0291357 
2983 2 144.818 -391.955 -435.633 0.250577 0.673224 -0.544139 -0.433467 
2982 2 152.208 -393.837 -429.296 -0.184485 0.878139 0.200317 -0.393331 
2981 2 158.402 -398.125 -422.995 -0.42092 0.496877 0.758151 0.0338569 
2980 2 163.738 -405.331 -418.721 -0.174655 -0.221334 0.806141 0.520234 
2979 2 168.846 -412.484 -414.141 0.290102 -0.812842 0.288359 0.414702 
2978 2 174.709 -419.223 -409.918 0.538324 -0.709746 -0.437896 0.121306 
2977 2 180.424 -426.237 -405.91 0.428788 -0.171944 -0.823184 -0.330068 
2976 2 186.002 -432.724 -400.843 -0.0103759 0.609002 -0.621256 -0.493001 
2975 2 189.702 -439.693 -394.907 -0.417349 0.882766 0.00586195 -0.215659 
2974 2 193.087 -445.926 -387.99 -0.362278 0.542126 0.737595 0.175524 
2973 2 195.49 -452.924 -381.41 -0.0645549 -0.251656 0.871544 0.415827 
2946 2 223.444 -497.385 -474.118 -0.948339 -0.2125 -0.207028 -0.112414 
2972 2 197.427 -458.153 -373.23 0.219856 -0.871684 0.382207 0.213888 
2971 2 196.177 -463.212 -364.807 0.220308 -0.901153 -0.33841 -0.157689 
2947 2 228.28 -500.456 -466.1 -0.524602 -0.250285 0.0109228 -0.813653 
2951 2 248.135 -507.804 -433.398 0.019302 0.20013 0.0821801 0.976126 
2895 2 194.619 -511.904 -361.706 0.166983 -0.170734 -0.773682 0.586841 
2952 2 251.645 -506.219 -424.31 -0.745852 0.201746 -0.145374 0.617956 
2953 2 255.865 -504.691 -415.523 -0.942329 0.0161019 -0.278038 -0.185614 
2958 2 270.4 -503.893 -369.066 0.0194361 0.187228 -0.13933 0.972191 
2957 2 268.496 -502.988 -378.662 0.822052 0.0860997 0.0430423 0.561217 
2956 2 267.531 -502.924 -388.593 0.951647 -0.0202318 0.0435059 -0.303424 
2954 2 260.952 -503.578 -407.077 -0.488358 -0.144974 -0.173573 -0.842829 
2955 2 264.881 -502.339 -398.061 0.30404 -0.138154 0.0619745 -0.940549 
2359 2 -68.1543 -235.525 -404.12 -0.471531 -0.857922 -0.0542866 -0.196678 
2358 2 -72.8567 -229.147 -398.146 -0.40686 -0.42625 -0.789289 0.172623 
2360 2 -64.1949 -243.171 -409.077 -0.189402 -0.580564 0.678766 -0.407858 
2357 2 -78.3073 -221.983 -393.955 -0.163294 0.307399 -0.793999 0.498404 
2361 2 -61.566 -250.846 -414.726 0.148709 0.106125 0.925888 -0.330687 
2356 2 -81.9179 -213.864 -389.648 0.347016 0.775918 -0.348559 0.395017 
2362 2 -58.7885 -257.493 -421.63 0.272351 0.842972 0.462424 -0.0372284 
2363 2 -57.35 -262.763 -429.92 0.30542 0.880016 -0.323017 0.167183 
2364 2 -56.772 -268.383 -438.114 -0.00830276 0.370573 -0.876509 0.307144 
2365 2 -55.0125 -273.513 -446.352 -0.344253 -0.513717 -0.762085 0.191863 
2366 2 -51.7676 -279.703 -453.355 -0.412093 -0.904634 -0.0992907 -0.0442378 
2368 2 -49.4873 -294.396 -466.222 0.0251359 0.0653064 0.910407 -0.407753 
2998 2 81.9065 -357.699 -385.076 0.404465 -0.780239 0.0356651 -0.475776 
2367 2 -49.9549 -287.46 -459.221 -0.216193 -0.648849 0.658758 -0.313516 
2370 2 -51.5228 -308.226 -480.008 0.339335 0.850948 -0.4007 0.0133648 
2369 2 -49.3319 -301.961 -472.642 0.208503 0.784866 0.509595 -0.284299 
2374 2 15.0722 -253.89 -511.614 -0.813453 -0.0561199 -0.145497 -0.560334 
2375 2 17.8919 -252.938 -502.165 -0.149698 -0.202572 0.00276054 -0.967754 
2999 2 89.7917 -351.983 -387.038 0.648303 -0.52216 0.542314 0.113789 
2371 1 -20.6294 -288.198 -509.516 -0.800381 0.266559 0.0520365 0.534442 
2372 3 -14.6815 -271.689 -479.3 -0.79521 0.25896 0.022037 0.547809 
2376 2 21.7932 -254.339 -493.228 0.735656 -0.0572452 0.0948628 -0.668232 
2377 2 24.6933 -254.23 -483.716 0.971855 0.107331 0.144353 0.152117 
2378 2 27.5492 -256.317 -474.467 0.421397 0.071653 -0.123943 0.895504 
2379 2 28.4402 -259.006 -464.963 -0.383054 -0.141248 -0.144928 0.901285 
2380 2 27.5877 -262.181 -455.697 -0.975574 -0.176339 0.0300625 0.127501 
2381 2 26.3376 -265.487 -446.398 -0.675358 -0.121941 0.183582 -0.703789 
2382 2 25.6076 -269.553 -437.415 0.0183974 -0.088042 0.18967 -0.97772 
2383 2 27.5398 -273.849 -428.744 0.789743 0.0525036 0.270726 -0.547958 
2384 2 30.9823 -278.233 -420.537 0.936901 0.24998 0.149047 0.193681 
2385 2 34.4736 -282.756 -412.388 0.339702 0.276938 -0.0680797 0.896255 
2386 2 38.0049 -286.45 -403.86 -0.565415 0.149831 -0.256148 0.769574 
2387 2 43.4743 -288.422 -395.893 -0.958391 -0.0733387 -0.275628 -0.0116786 
2388 2 48.8588 -289.813 -387.741 -0.65127 -0.173494 -0.20334 -0.710211 
2389 2 53.8979 -289.362 -379.222 0.141238 -0.23881 0.0153787 -0.960617 
2390 2 58.7507 -288.761 -370.548 0.759574 -0.200904 0.314706 -0.532584 
2391 2 65.5505 -289.241 -363.312 0.93242 0.164403 0.247255 0.205982 
3000 2 95.8912 -344.378 -388.514 0.337882 0.070015 0.77691 0.526635 
3001 2 101.865 -336.79 -390.793 -0.240414 0.667785 0.391928 0.585369 
3002 2 107.973 -329.335 -392.897 -0.530294 0.748496 -0.313555 0.245408 
3003 2 114.638 -322.882 -396.383 -0.482926 0.35599 -0.737238 -0.3107 
3004 2 119.387 -315.127 -400.272 0.0253235 -0.373909 -0.772608 -0.512473 
3009 2 136.73 -272.082 -412.84 -0.833836 0.535993 -0.0514914 0.121561 
3008 2 133.496 -281.324 -414.049 -0.345865 0.514306 0.447452 0.644712 
3005 2 123.175 -307.109 -404.748 0.389781 -0.857506 -0.161687 -0.2943 
3006 2 126.667 -299.141 -409.438 0.565015 -0.621387 0.526799 0.130837 
3007 2 130.389 -290.628 -412.866 0.18602 0.00369723 0.73196 0.655452 
3010 2 138.029 -263.175 -408.692 -0.475812 0.4887 -0.335908 -0.64957 
3011 2 135.203 -254.205 -405.579 0.12748 0.0354747 -0.585758 -0.799611 
3012 2 133.276 -245.081 -402.289 0.645991 -0.491478 -0.488851 -0.319639 
3032 2 198.274 -222.097 -421.587 -0.532909 -0.0348531 -0.327756 0.779339 
3033 2 201.232 -227.187 -413.696 -0.919744 -0.193254 -0.335262 0.0657483 
3034 2 207.145 -230.431 -406.464 -0.691078 -0.368736 -0.110443 -0.611757 
3035 2 213.347 -234.343 -399.801 0.087495 -0.279799 0.167646 -0.94125 
3036 2 218.57 -237.091 -391.816 0.787 -0.115836 0.285816 -0.534343 
3013 2 130.265 -235.653 -401.984 0.686545 -0.637065 0.000901593 0.350432 
3014 2 126.082 -226.781 -400.216 0.149381 -0.356647 0.551574 0.73909 
3037 2 224.435 -238.507 -383.836 0.926388 0.0883609 0.220216 0.292408 
3038 2 228.465 -238.747 -374.84 0.465622 0.243309 -0.0407231 0.849905 
3039 2 231.792 -241.579 -365.988 -0.440292 0.26131 -0.310953 0.80073 
3031 2 197.134 -219.302 -431.05 0.289842 0.112835 -0.117027 0.943167 
3015 2 122.416 -217.653 -398.912 -0.41974 0.336268 0.610377 0.581535 
3030 2 194.849 -216.085 -440.085 0.913338 0.214265 0.0412172 0.34381 
3029 2 191.322 -213.78 -449.102 0.81949 0.00126018 0.237046 -0.52177 
3028 2 186.407 -209.764 -456.633 0.0368139 -0.264408 0.262717 -0.927207 
2320 2 -220.076 -87.4692 -452.393 0.715777 0.0272716 0.666231 0.207499 
2319 2 -229.655 -89.0577 -450.803 0.562402 -0.485742 0.581947 -0.330298 
2238 2 -242.474 -106.852 -401.763 -0.493552 0.80998 -0.303328 -0.0912694 
2239 2 -241.135 -98.5504 -407.025 -0.209198 0.122598 -0.886802 -0.393431 
2240 2 -238.199 -91.0543 -412.811 0.119617 -0.669538 -0.537606 -0.498388 
2241 2 -232.935 -84.3175 -417.798 0.50291 -0.798713 0.192034 -0.268815 
2321 2 -210.451 -85.4857 -451.463 0.356213 0.578812 0.288206 0.674556 
2242 2 -226.635 -77.5494 -421.337 0.501831 -0.354554 0.76608 0.188623 
2243 2 -220.524 -71.1941 -425.85 0.189894 0.447712 0.705678 0.51528 
2237 3 -214.477 -68.1305 -381.551 0.430515 -0.891758 0.138099 -0.0187977 
2244 2 -213.8 -65.5194 -430.471 -0.252351 0.836331 0.22116 0.43354 
2297 2 -92.6744 -83.9447 -514.008 -0.229401 0.64224 -0.0881661 -0.726037 
2298 2 -101.568 -80.1248 -512.03 0.501714 0.284938 -0.535084 -0.617073 
2355 2 -83.4704 -205.696 -384.243 0.476134 0.79745 0.348793 -0.125349 
2322 2 -200.657 -85.5299 -450.08 -0.28738 0.59495 -0.268055 0.701138 
2299 2 -110.467 -76.3527 -509.886 0.746441 -0.251626 -0.616025 0.004879 
2323 2 -190.934 -85.7109 -448.112 -0.761551 0.214863 -0.584832 0.178454 
2300 2 -119.596 -72.6304 -508.672 0.456065 -0.657794 -0.133005 0.584484 
2301 2 -128.364 -68.2405 -507.388 -0.124983 -0.488292 0.465603 0.727437 
2302 2 -136.582 -62.7189 -506.493 -0.589365 0.13793 0.697483 0.38359 
2324 2 -181.285 -84.9337 -446.192 -0.724287 -0.352159 -0.386048 -0.449843 
2325 2 -172.628 -86.3708 -441.58 -0.187855 -0.51959 0.213187 -0.805784 
2326 2 -165.259 -91.6738 -437.51 0.531489 -0.116887 0.596101 -0.590357 
2335 2 -86.8844 -131.752 -435.57 0.278309 0.659115 0.296962 0.632396 
2336 2 -77.113 -131.422 -436.045 -0.338318 0.639911 -0.31996 0.611294 
2334 2 -95.9799 -127.932 -435.639 0.715221 0.308974 0.6265 0.0221924 
2333 2 -104.88 -123.576 -436.079 0.475436 -0.285076 0.61622 -0.559433 
2331 2 -123.028 -115.8 -435.508 -0.619026 -0.578903 -0.406085 -0.341721 
2329 2 -140.556 -107.01 -433.856 -0.256361 0.481411 -0.566013 0.618184 
2330 2 -131.64 -111.02 -434.785 -0.646251 -0.154135 -0.709487 0.235009 
2332 2 -114.212 -120.263 -435.591 -0.0951853 -0.70306 0.130433 -0.692556 
2328 2 -149.509 -102.783 -433.058 0.344509 0.737888 0.0968373 0.572239 
2327 2 -157.599 -97.1645 -434.342 0.731307 0.450967 0.509734 0.0446129 
2352 2 -88.6131 -178.678 -373.665 -0.563947 -0.825498 -0.0227414 0.000529358 
2353 2 -88.2031 -187.789 -377.445 -0.334067 -0.577052 0.541821 -0.511703 
2354 2 -85.209 -196.686 -380.574 0.201859 0.147897 0.804377 -0.538847 
2351 2 -88.5807 -170.449 -368.128 -0.298111 -0.490445 -0.717333 0.395003 
2345 3 -64.4593 -136.235 -391.134 -0.366218 -0.837739 0.355329 0.194471 
2337 2 -67.25 -131.026 -436.489 -0.720727 0.234784 -0.650554 0.0469991 
2245 2 -207.535 -59.3 -435.063 -0.464877 0.689543 -0.528601 0.170296 
2338 2 -57.7593 -128.436 -436.265 -0.616347 -0.251422 -0.524999 -0.530357 
2350 2 -85.8072 -162.463 -363.031 0.268046 0.192386 -0.869162 0.36837 
2339 2 -48.7399 -125.562 -433.316 -0.0445305 -0.425057 -0.104183 -0.898048 
2340 2 -40.859 -124.141 -427.563 0.634015 -0.326485 0.287685 -0.639274 
2341 2 -33.062 -123.515 -421.379 0.89173 -0.0373878 0.4317 0.130595 
2342 2 -25.4841 -121.249 -415.416 0.475862 0.317395 0.259473 0.778132 
2343 2 -18.3872 -119.855 -408.597 -0.243341 0.401389 -0.0297751 0.882488 
2344 1 -42.6836 -121.042 -368.202 -0.372054 -0.832642 0.367598 0.182087 
3027 2 182.104 -203.245 -462.635 -0.740222 -0.421544 0.0502433 -0.52139 
3018 2 115.023 -189.175 -398.183 0.142537 0.0882376 -0.64685 -0.743964 
3026 2 178.649 -198.276 -470.405 -0.936612 -0.190728 -0.241393 0.167661 
3025 2 174.585 -189.487 -472.433 -0.37956 -0.0576964 -0.638355 0.667165 
3024 2 171.882 -180.055 -472.779 0.293409 0.483075 -0.522511 0.638382 
3020 3 150.644 -191.407 -435.923 -0.318857 0.08899 -0.711183 0.620186 
3016 2 120.982 -207.791 -398.846 -0.671529 0.715533 0.184364 -0.0554252 
3017 2 118.404 -198.325 -399.925 -0.445879 0.555414 -0.359118 -0.60311 
3023 2 166.387 -171.94 -471.48 0.622082 0.736682 0.170478 0.203102 
3019 1 131.346 -162.272 -433.333 -0.305396 0.100645 -0.734719 0.59732 
3021 2 158.516 -153.939 -470.96 0.129602 -0.213419 0.686203 -0.683214 
3022 2 163.118 -162.659 -470.556 0.529063 0.448825 0.595 -0.405737 
2212 2 -257.336 -42.3044 -507.445 0.168074 0.120031 -0.35297 -0.912555 
2213 2 -260.405 -36.585 -500.022 0.848946 -0.104255 -0.329575 -0.399752 
2214 2 -265.023 -32.6258 -492.29 0.856213 -0.291173 -0.0963031 0.415743 
2215 2 -268.991 -29.0567 -483.957 0.268632 -0.100413 0.273582 0.9181 
2216 2 -270.066 -23.7364 -475.724 -0.515874 0.0452587 0.14431 0.843208 
2217 2 -270.442 -20.5329 -466.372 -0.972527 0.222602 0.0392331 0.0556838 
2218 2 -269.962 -16.3959 -457.307 -0.720508 -0.00885863 -0.207881 -0.661495 
2219 2 -267.549 -14.1068 -448.027 0.162715 -0.117291 -0.13562 -0.970244 
2220 2 -265.727 -11.4913 -438.692 0.810403 -0.161589 0.186924 -0.531221 
2317 1 -236.502 -43.5222 -440.563 -0.0700987 -0.822725 -0.0545846 -0.561453 
2221 2 -261.859 -10.8566 -429.607 0.911411 0.112585 0.182245 0.351343 
2222 2 -257.678 -11.7709 -420.7 0.275669 0.222714 0.0385114 0.934303 
2223 2 -253.017 -11.841 -411.961 -0.495187 0.194696 -0.1953 0.823858 
2224 2 -247.797 -13.3032 -403.614 -0.94297 -0.0796693 -0.301304 0.116943 
2210 3 -225.948 -13.6873 -487.48 0.543169 -0.153628 -0.0218188 0.82516 
2225 2 -242.429 -15.457 -395.625 -0.639659 -0.372745 -0.209978 -0.638597 
2316 2 -224.186 2.01918 -440.278 -0.652915 -0.346164 0.369645 0.563236 
2226 2 -235.232 -17.7518 -389.163 0.13933 -0.329227 0.0726394 -0.931086 
2227 2 -228.987 -18.3119 -381.488 0.764688 -0.114582 0.340607 -0.534893 
2228 2 -223.263 -20.5783 -373.75 0.89477 0.269504 0.306959 0.180361 
2229 2 -217.275 -23.7214 -366.488 0.470833 0.403463 -0.0708747 0.781351 
2198 2 -217.135 91.4247 -462.776 0.685009 0.67761 0.256605 -0.0758956 
2199 2 -215.079 81.747 -463.589 0.416456 0.730576 -0.330791 0.428252 
2200 2 -212.165 72.7678 -466.437 -0.0467611 0.150529 -0.787508 0.595807 
2315 2 -215.443 2.85657 -444.971 0.0132996 -0.513241 -0.0500162 0.856683 
2201 2 -209.701 63.5035 -469.299 -0.472557 -0.479467 -0.653483 0.346066 
2303 2 -143.572 -55.8417 -506.693 -0.65972 0.629476 0.313347 -0.265224 
2246 2 -200.582 -54.5216 -440.303 -0.356205 0.110049 -0.904401 -0.207523 
2202 2 -206.994 54.3381 -471.973 -0.549021 -0.821155 -0.0513633 -0.147114 
2203 2 -203.789 45.673 -475.406 -0.248959 -0.589267 0.633179 -0.43574 
2204 2 -201.492 37.646 -480.81 0.252532 0.112053 0.847354 -0.4535 
2304 2 -150.988 -49.2328 -506.119 -0.28444 0.526155 -0.220519 -0.770472 
2276 2 -146.282 -18.6981 -510.425 -0.444393 -0.623017 0.59269 -0.251163 
2208 2 -184.732 12.2233 -505.649 -0.344054 -0.491316 -0.787284 0.142895 
2275 2 -144.843 -11.5602 -503.729 -0.380007 -0.88957 -0.206632 0.146844 
2318 3 -204.599 -43.8075 -454.775 -0.0349315 -0.826897 -0.0660347 -0.557369 
2305 2 -157.172 -42.1891 -503.057 0.409068 0.0719396 -0.541141 -0.731201 
2207 2 -188.953 17.7104 -498.451 -0.132394 0.296006 -0.877131 0.35425 
2206 2 -193.386 23.4958 -491.877 0.231161 0.847061 -0.352653 0.323554 
2247 2 -194.561 -49.904 -446.606 -0.040824 -0.668631 -0.494541 -0.553801 
2248 2 -187.242 -44.8017 -450.924 0.384969 -0.778339 0.252258 -0.427027 
2306 2 -162.799 -35.1658 -499.108 0.837691 -0.352835 -0.4085 -0.0831234 
2274 2 -145.303 -3.16306 -498.452 -0.188 -0.329203 -0.794291 0.474745 
2273 2 -145.735 5.84455 -494.349 0.2458 0.392199 -0.736766 0.492888 
2314 2 -207.005 2.93998 -450.263 0.671737 -0.308063 -0.36367 0.567107 
2258 2 -95.7269 -31.196 -469.216 -0.419457 0.543459 -0.0920347 0.721275 
2257 2 -104.927 -33.6508 -472.053 0.31255 0.469128 0.392805 0.726591 
2256 2 -114.614 -33.8911 -473.781 0.75923 0.0646966 0.642662 0.0798113 
2307 2 -169.241 -28.7846 -495.297 0.632032 -0.525319 0.0150101 0.569518 
2255 2 -124.446 -33.673 -474.048 0.516185 -0.448616 0.511606 -0.520149 
2272 2 -146.687 14.4097 -489.479 0.481144 0.852468 -0.128561 0.158966 
2271 2 -145.495 23.7215 -486.407 0.416937 0.628104 0.49659 -0.430171 
2265 2 -110.604 63.1639 -463.406 0.506134 0.679647 -0.500321 -0.177728 
2266 2 -117.428 57.5488 -467.988 0.499434 0.113166 -0.820077 0.255407 
2254 2 -134.124 -34.9151 -472.332 -0.109715 -0.753903 -0.196445 -0.617253 
2264 3 -105.45 11.6151 -468.232 -0.484827 -0.273935 0.818924 -0.138799 
2313 2 -199.003 1.19193 -455.782 0.865745 0.0379483 -0.454471 -0.20616 
2267 2 -125.076 52.1547 -471.441 0.203419 -0.524789 -0.672445 0.48066 
2268 2 -132.991 47.5529 -475.342 -0.392845 -0.807324 -0.0396742 0.438551 
2269 2 -138.898 40.4777 -478.777 -0.503334 -0.618324 0.594987 -0.101592 
2270 2 -143.325 32.9115 -483.29 -0.127853 0.057599 0.810983 -0.568016 
2205 2 -198.055 29.7106 -485.661 0.429958 0.784184 0.44384 0.056547 
2253 2 -142.445 -36.705 -467.229 -0.412991 -0.319638 -0.802362 -0.288939 
2252 2 -150.625 -36.2787 -461.594 -0.429307 0.363079 -0.79735 0.219322 
2312 2 -192.526 -0.258086 -463.196 0.501355 0.247749 -0.235672 -0.79481 
2311 2 -186.957 -4.87369 -470.014 -0.382348 0.341322 -0.12492 -0.849532 
2249 2 -178.541 -41.0214 -453.762 0.635257 -0.218109 0.740288 0.0291545 
2250 2 -169.368 -37.7111 -455.488 0.408851 0.574452 0.561181 0.433499 
2251 2 -159.988 -36.7752 -458.668 -0.161504 0.813601 -0.119429 0.545626 
2308 2 -174.747 -22.1376 -490.562 -0.0535057 -0.248618 0.3847 0.887317 
2309 2 -179.255 -15.8034 -484.541 -0.80282 0.162335 0.318699 0.477031 
2310 2 -182.74 -10.3232 -477.088 -0.912615 0.324293 0.136572 -0.208126 
2259 2 -87.4108 -27.864 -465.052 -0.861275 0.260013 -0.436367 0.0135161 
2260 2 -80.2163 -23.2123 -460.185 -0.545888 -0.238226 -0.460378 -0.65826 
2261 2 -72.3561 -19.7744 -455.241 0.177494 -0.41346 -0.142814 -0.881562 
2263 1 -80.44 29.0785 -451.058 -0.505273 -0.325311 0.790268 -0.119786 
2262 2 -65.4491 -15.6552 -449.449 0.803161 -0.36992 0.276267 -0.376521 
2168 2 -273.021 188.978 -513.902 0.256402 0.340238 0.327374 0.843399 
2169 2 -265.538 192.42 -508.416 -0.497942 0.423296 -0.114215 0.748217 
2197 2 -218.976 100.905 -460.405 0.265366 0.246909 0.758591 -0.541439 
2170 2 -258.257 194.977 -502.175 -0.889 0.155864 -0.430051 -0.0210299 
2171 2 -251.108 198.182 -496.208 -0.592501 -0.175625 -0.349365 -0.704303 
2172 2 -244.713 201.158 -489.145 0.15361 -0.474956 -0.0248161 -0.866144 
2189 2 -228.954 156.611 -408.71 -0.202955 -0.643781 0.664221 -0.321193 
2188 2 -232.321 162.338 -401.285 -0.334178 -0.92563 -0.114795 -0.135488 
2187 2 -235.094 168.191 -393.705 -0.31735 -0.553296 -0.749274 0.178162 
2186 2 -239.267 174.046 -386.928 -0.112026 0.261933 -0.87131 0.399575 
2185 2 -242.813 181.504 -381.489 0.283467 0.826867 -0.34726 0.339628 
2184 2 -245.235 188.272 -374.606 0.378939 0.867251 0.322891 -0.00480128 
2183 3 -224.609 200.967 -420.456 0.29723 0.945859 -0.125034 0.0370487 
2182 1 -222.201 224.377 -394.486 0.337835 0.933876 -0.114306 0.0260335 
2190 2 -227.255 150.071 -415.947 0.0534418 0.136558 0.965919 -0.213301 
2191 2 -226.345 145.158 -424.47 0.266877 0.86307 0.418365 -0.0941145 
2192 2 -225.662 139.69 -432.656 0.244247 0.83269 -0.446006 0.219203 
2173 2 -236.705 203.034 -483.567 0.760506 -0.444638 0.270665 -0.388161 
2174 2 -229.328 207.686 -478.827 0.766249 -0.0823585 0.424181 0.475552 
2193 2 -224.473 133.568 -440.368 -0.0391356 0.190484 -0.912927 0.358815 
2194 2 -222.409 126.864 -447.399 -0.355725 -0.618368 -0.644242 0.275741 
2175 2 -223.284 212.673 -472.689 0.118625 0.298644 0.282237 0.903926 
2195 2 -221.667 119.021 -453.301 -0.486175 -0.858991 0.111909 -0.115086 
2196 2 -220.399 110.496 -458.115 -0.268394 -0.431072 0.669172 -0.54254 
2176 2 -216.902 217.42 -466.776 -0.654468 0.399371 0.0211325 0.641661 
2177 2 -211.804 222.362 -460.005 -0.913498 0.266892 -0.251789 -0.175764 
2178 2 -208.484 228.123 -452.801 -0.457973 -0.0772898 -0.327673 -0.82275 
2179 2 -204.815 233.595 -445.343 0.377729 -0.228367 -0.195821 -0.875685 
2180 2 -202.089 239.135 -437.544 0.835739 -0.381987 -0.118174 -0.37638 
2181 2 -201.196 246.149 -430.709 0.83577 -0.326299 0.196201 0.395629 
2143 2 -294.576 257.836 -511.704 0.401159 -0.225361 -0.805778 0.372834 
2142 2 -285.496 259.281 -508.156 0.540223 0.371089 -0.726615 -0.206111 
2141 2 -277.103 261.599 -503.382 0.185503 0.847492 -0.12102 -0.48239 
2140 2 -268.085 262.063 -499.215 -0.403783 0.553528 0.609917 -0.398204 
2139 2 -258.859 262.898 -495.751 -0.556258 -0.0906181 0.825553 0.0287775 
2138 2 -249.077 262.1 -494.525 -0.367254 -0.580542 0.439542 0.578704 
2137 2 -239.493 262.525 -491.858 0.205621 -0.770525 -0.3021 0.522252 
2136 2 -229.615 263.474 -490.86 0.633349 -0.197311 -0.705306 0.249962 
2107 2 -293.907 330.528 -400.79 -0.0739495 0.892702 0.0771641 0.43779 
2108 2 -286.182 332.648 -406.726 -0.511523 0.583382 -0.562752 0.285165 
2109 2 -277.363 335.44 -410.195 -0.431104 -0.0547107 -0.881765 -0.18343 
2110 2 -269.629 338.206 -415.558 -0.0812591 -0.743446 -0.565173 -0.34823 
2111 2 -263.908 341.654 -422.825 0.149187 -0.90911 0.219052 -0.32137 
2112 2 -257.331 342.954 -430.134 0.327695 -0.427056 0.836638 -0.101373 
2113 2 -251.241 344.573 -437.76 0.278597 0.385699 0.863117 0.169262 
2114 2 -245.16 345.285 -445.482 -0.0154176 0.939734 0.177141 0.292031 
2115 2 -239.68 345.789 -453.778 -0.206974 0.702159 -0.646589 0.21461 
2116 2 -234.04 345.828 -461.937 -0.259577 -0.112725 -0.95807 0.0448897 
2106 2 -300.706 328.365 -393.958 0.250865 0.542685 0.731317 0.328231 
2117 2 -229.461 344.264 -470.592 -0.202916 -0.886148 -0.379255 -0.172431 
2118 2 -225.238 342.275 -479.285 -0.0243439 -0.867512 0.411253 -0.27875 
2105 2 -307.348 327.923 -386.622 0.359697 -0.125514 0.924217 -0.0261958 
2104 2 -313.611 326.301 -379.132 0.217753 -0.840729 0.429443 -0.247662 
2103 2 -317.719 327.545 -370.25 -0.137212 -0.895555 -0.379749 -0.186934 
2102 3 -281.872 364.881 -374.919 0.133997 -0.959857 0.212855 -0.124147 
2119 2 -221.295 339.67 -487.964 0.278725 -0.15428 0.942082 -0.104842 
2135 2 -219.876 263.274 -489.979 0.583378 0.361772 -0.634238 -0.355715 
2120 2 -215.61 338.149 -495.926 0.313539 0.574394 0.725433 0.213335 
2134 2 -210.918 261.82 -486.047 0.0259322 0.828669 -0.178774 -0.529787 
2097 2 -255.402 397.614 -362.991 0.482071 0.047704 -0.260261 0.835222 
2096 2 -255.053 399.562 -372.703 0.992127 0.0962837 -0.0564123 0.0568405 
2122 2 -201.191 338.582 -509.557 -0.335977 0.603084 -0.662656 0.290338 
2121 2 -208.406 337.787 -502.725 -0.00676262 0.911499 0.0433129 0.408959 
2133 2 -203.009 259.985 -480.456 -0.343496 0.706782 0.534092 -0.311793 