ITEM: TIMESTEP
10000000
ITEM: NUMBER OF ATOMS
4067
ITEM: BOX BOUNDS pp pp pp
-4.6310929470000001e+03 4.6704658980000004e+03
-4.6310929470000001e+03 4.6704658980000004e+03
-4.6310929470000001e+03 4.6704658980000004e+03
ITEM: ATOMS id type x y z c_q[1] c_q[2] c_q[3] c_q[4] 
2418 2 -395.513 64.2795 -565.203 0.0340671 -0.447701 -0.629812 -0.633829 
2417 2 -400.373 56.3727 -561.738 -0.440883 0.245944 -0.784505 -0.360119 
2416 2 -405.994 50.0812 -556.538 -0.461762 0.805943 -0.313494 0.197365 
2419 2 -389.873 72.1558 -567.412 0.558104 -0.638718 0.0343349 -0.528564 
2420 2 -382.469 78.6066 -566.607 0.803878 -0.254844 0.526766 0.106549 
2421 2 -374.846 83.9065 -563.209 0.518577 0.400981 0.397158 0.642306 
2415 2 -409.228 43.3152 -550.166 -0.218623 0.805869 0.419673 0.355884 
2414 2 -410.598 36.1849 -543.489 0.0188672 0.12111 0.897274 0.424117 
2413 2 -410.656 27.7893 -538.223 0.356891 -0.569071 0.650697 0.354092 
2412 2 -407.83 20.1155 -532.488 0.45927 -0.867476 -0.154169 0.113086 
2426 3 -389.253 76.3131 -521.975 0.523149 0.730963 -0.377004 -0.22333 
2411 2 -404.048 13.704 -525.963 0.343356 -0.407471 -0.818522 -0.214699 
2410 2 -399.842 7.89075 -519.145 0.0724098 0.374998 -0.833132 -0.40003 
2422 2 -365.616 85.3459 -559.94 -0.190831 0.56198 -0.0855916 0.800272 
2423 2 -356.319 86.3615 -556.674 -0.747111 0.264927 -0.44389 0.417852 
2424 2 -347.794 86.5169 -551.629 -0.792429 -0.183397 -0.479148 -0.329909 
2211 2 -413.564 -259.047 -419.001 -0.811359 0.432191 0.327661 -0.218049 
2212 2 -420.807 -253.961 -414.651 -0.380452 0.466773 -0.0644162 -0.795757 
2210 3 -400.713 -231.04 -377.088 0.635135 -0.249872 -0.188672 0.706095 
2213 2 -427.154 -249.062 -408.844 0.373323 0.251466 -0.467447 -0.760847 
2214 2 -434.206 -243.916 -404.219 0.809688 -0.218136 -0.502161 -0.211322 
2215 2 -441.332 -238.629 -399.711 0.811454 -0.311406 -0.0809493 0.487869 
2209 1 -377.555 -232.889 -403.33 0.595544 -0.274521 -0.186355 0.731599 
2216 2 -445.614 -233.993 -392.087 0.0525906 -0.146121 0.177719 0.97175 
2217 2 -447.897 -230.086 -383.264 -0.575386 0.263262 0.207897 0.745924 
2218 2 -445.799 -224.479 -375.376 -0.943069 0.298321 -0.113425 0.0935937 
2219 2 -443.092 -219.305 -367.316 -0.723197 0.184287 -0.327129 -0.579665 
2262 2 -291.911 -212.211 -389.225 0.0909835 -0.767234 0.543437 -0.328252 
2261 2 -297.671 -209.871 -381.548 -0.195467 -0.905219 -0.288277 -0.24345 
2207 2 -359.482 -209.91 -363.014 0.109718 0.385184 0.877404 0.264116 
2451 2 -522.99 -88.1686 -443.45 0.0621639 0.329872 0.437443 -0.834244 
2450 2 -518.064 -80.6266 -447.621 -0.6325 -0.146882 0.532183 -0.543277 
2449 2 -513.651 -73.0817 -452.296 -0.828205 -0.484571 0.195501 0.202598 
2454 2 -439.228 -123.375 -430.137 -0.510241 0.24571 -0.620678 -0.542254 
2452 1 -485.368 -113.489 -430.371 0.144875 -0.614627 -0.580243 -0.514357 
2455 2 -435.564 -114.266 -428.459 0.0683821 -0.370763 -0.697964 -0.608856 
2456 2 -431.902 -105.404 -430.635 0.573111 -0.758802 -0.123783 -0.28362 
2453 3 -471.165 -86.016 -446.745 0.187285 -0.634824 -0.568063 -0.489109 
2457 2 -429.138 -96.1412 -432.623 0.50301 -0.612932 0.459188 0.400553 
2458 2 -429.031 -86.4198 -434.421 -0.028337 0.00803773 0.766962 0.641016 
2459 2 -429.263 -76.614 -435.811 -0.554959 0.603101 0.425575 0.383635 
2460 2 -429.378 -66.7469 -436.635 -0.609677 0.734888 -0.213151 -0.206884 
2448 2 -507.822 -65.821 -455.672 -0.260553 -0.48222 -0.284195 0.786644 
2398 1 -374.614 -63.2481 -472.948 -0.514221 0.057954 -0.716866 -0.467248 
2319 2 -369.39 -144.909 -366.194 -0.493953 0.199129 0.284127 0.797264 
2461 2 -429.744 -56.8838 -437.952 -0.315089 0.271483 -0.634524 -0.651456 
2447 2 -502.541 -58.6431 -460.071 0.459151 -0.0275354 -0.518622 0.720731 
2260 2 -304.711 -207.077 -375.195 -0.443815 -0.36863 -0.816764 -0.00603844 
2397 2 -346.925 -75.268 -509.225 0.509752 0.0918087 -0.699494 0.492374 
2259 2 -310.41 -204.434 -367.498 -0.209976 0.365936 -0.862765 0.278635 
2208 2 -355.55 -206.106 -371.335 -0.098048 0.912677 0.294236 0.266145 
2396 2 -340.747 -67.5827 -509.343 0.704959 0.583327 -0.400161 -0.0513247 
2317 1 -350.526 -121 -402.225 -0.380152 0.0706625 -0.299425 -0.872259 
2265 2 -303.104 -125.356 -416.954 0.775192 -0.15561 0.0692212 -0.608335 
2266 2 -300.399 -123.451 -407.61 0.922553 -0.0649457 0.214197 0.31432 
2267 2 -297.305 -120.544 -398.722 0.366663 0.0934746 0.146251 0.914019 
2268 2 -295.268 -118.985 -389.181 -0.457243 0.00630409 -0.0187054 0.889123 
2269 2 -294.372 -120.183 -379.402 -0.975669 -0.0365589 0.00959666 0.215965 
2263 1 -296.224 -171.906 -413.434 -0.973289 0.140556 0.11443 0.140922 
2264 3 -302.22 -162.151 -380.334 -0.970325 0.100059 0.114166 0.188212 
2270 2 -294.653 -120.061 -369.605 -0.770611 0.0192906 -0.0646731 -0.633723 
2318 3 -345.429 -99.7461 -374.855 -0.337622 0.0702029 -0.318987 -0.882797 
2316 2 -328.189 -84.0921 -421.377 0.340676 0.456356 -0.817681 0.0841267 
2315 2 -323.474 -79.5477 -413.908 0.272947 0.930589 -0.130646 -0.206001 
2314 2 -321.113 -74.5439 -405.754 0.125125 0.682448 0.664273 -0.278118 
2313 2 -319.879 -70.8144 -396.743 -0.0875742 -0.106625 0.972092 -0.189734 
2312 2 -318.076 -66.8264 -387.893 -0.242817 -0.779837 0.574864 -0.0492482 
2311 2 -317.274 -64.5063 -378.34 -0.118742 -0.979704 -0.155193 0.0446688 
2310 2 -314.67 -63.89 -368.824 0.102041 -0.455022 -0.876563 0.119081 
2395 2 -334.768 -59.7059 -509.423 0.39276 0.65466 0.250122 -0.595482 
2446 2 -495.692 -52.7295 -464.101 0.840755 0.366232 -0.398273 -0.0195822 
2462 2 -429.871 -46.9861 -437.652 0.246963 -0.300388 -0.51572 -0.763419 
2400 2 -387.716 -35.2231 -437.371 -0.131518 0.470398 0.759438 0.429747 
2409 2 -395.315 4.07183 -511.146 -0.132385 0.919744 -0.26292 -0.25965 
2440 2 -459.793 -10.8164 -481.758 0.315711 -0.0306189 -0.710558 0.628089 
2441 2 -464.521 -19.6106 -481.533 -0.382156 -0.469777 -0.310144 0.732855 
2439 2 -454.924 -2.50847 -483.529 0.739632 0.43339 -0.457702 0.235851 
2445 2 -487.662 -48.636 -468.269 0.50452 0.542742 -0.0678557 -0.668046 
2408 2 -390.582 -0.084511 -503.555 -0.348689 0.80483 0.475023 -0.0708336 
2407 2 -387.643 -4.767 -495.36 -0.199822 0.200358 0.936469 0.207254 
2434 2 -429.148 37.9262 -490.395 -0.366617 -0.624627 -0.372947 0.579952 
2435 2 -433.771 29.3382 -491.448 -0.731005 -0.649465 0.201455 0.0569479 
2436 2 -437.646 20.2519 -490.853 -0.602408 -0.122026 0.636334 -0.466148 
2432 2 -421.399 56.0305 -489.476 0.59473 0.593614 -0.467872 0.273887 
2433 2 -424.63 46.7374 -490.48 0.259766 -0.076219 -0.684023 0.677366 
2471 2 -424.698 27.1407 -391.124 0.887786 -0.230126 0.233064 0.323355 
2470 2 -425.193 20.011 -397.946 0.820931 -0.360094 -0.138492 -0.420981 
2437 2 -444.327 13.1708 -489.291 0.0225003 0.347085 0.494417 -0.796604 
2438 2 -449.674 5.26326 -486.667 0.670209 0.589024 0.00606253 -0.451479 
2442 2 -469.497 -27.6211 -478.241 -0.794521 -0.560574 0.16768 0.162405 
2443 2 -474.412 -35.5491 -475.01 -0.710566 -0.181818 0.542548 -0.409487 
2444 2 -480.64 -42.625 -471.769 -0.0912887 0.377464 0.454053 -0.801887 
2469 2 -425.927 12.5518 -404.346 0.266234 -0.211132 -0.393293 -0.854321 
2468 2 -426.181 4.44991 -409.861 -0.439854 0.220824 -0.420132 -0.7624 
2467 2 -425.118 -4.33789 -414.245 -0.837641 0.519685 -0.0372432 -0.164005 
2463 2 -428.242 -37.5282 -435.097 0.773894 -0.511961 -0.153434 -0.339767 
2464 2 -426.599 -28.8277 -430.786 0.797187 -0.361149 0.236552 0.422029 
2465 2 -425.773 -21.117 -424.643 0.137655 -0.0219146 0.413561 0.899744 
2466 2 -424.974 -13.106 -418.793 -0.630784 0.392191 0.346309 0.573034 
2487 2 -372.322 15.3313 -423.32 -0.626732 0.167031 0.75718 0.0773727 
2488 2 -381.579 18.2866 -425.185 -0.535231 0.592669 0.317403 -0.511397 
2431 2 -416.224 64.2871 -487.819 0.464557 0.744229 0.138374 -0.459525 
2489 2 -390.658 22.0296 -423.828 0.019797 0.62261 -0.337285 -0.705835 
2490 2 -399.165 27.0757 -424.219 0.455268 0.109086 -0.720275 -0.511894 
2491 2 -407.279 32.7105 -425.461 0.634447 -0.509466 -0.580884 0.0222446 
2492 2 -414.55 38.811 -427.919 0.401596 -0.795145 0.141733 0.431713 
2430 2 -411.776 72.6285 -484.918 0.0255166 0.392548 0.69004 -0.607536 
2493 2 -420.385 46.5637 -430.184 -0.0524484 -0.325399 0.670275 0.664903 
2494 2 -425.441 54.9553 -431.537 -0.614645 0.376881 0.569643 0.394563 
2495 2 -429.213 64.0361 -430.679 -0.706482 0.666448 -0.057568 -0.231119 
2496 2 -431.346 73.7383 -429.905 -0.1909 0.411 -0.46413 -0.761065 
2480 3 -376.729 24.406 -379.666 0.236271 -0.706896 -0.567758 0.349464 
2370 2 -378.141 28.153 -461.213 0.102355 -0.538373 0.529767 0.647321 
2472 2 -422.117 32.619 -383.301 0.337663 0.0266054 0.252766 0.906303 
2406 2 -386.271 -7.60026 -485.968 0.000166977 -0.546016 0.821553 0.164067 
2371 1 -366.789 56.7667 -425.446 0.670836 0.361174 0.64698 -0.0308269 
2429 2 -406.551 80.5907 -482.118 -0.478631 -0.275323 0.73523 -0.393124 
2369 2 -372.62 20.1019 -459.886 0.546734 -0.744652 -0.0280957 0.381819 
2428 2 -401.017 88.043 -478.669 -0.567697 -0.740882 0.346251 0.0944701 
2405 2 -384.561 -8.25896 -476.271 0.0747732 -0.979375 0.175939 0.0654202 
2404 2 -383.982 -10.2249 -466.607 0.0931783 -0.752038 -0.650867 -0.0461375 
2403 2 -385.308 -13.9432 -457.58 -0.0208155 0.00432127 -0.982092 -0.1872 
2497 2 -435.704 82.2392 -427.307 0.446721 -0.124598 -0.645977 -0.606324 
2402 2 -385.971 -20.1212 -449.824 -0.27179 0.714757 -0.612901 -0.199007 
2401 2 -386.29 -27.4451 -443.275 -0.434551 0.87766 0.17763 0.0965709 
2368 2 -365.313 13.6046 -458.824 0.624041 -0.420075 -0.649217 -0.112374 
2498 2 -439.859 91.1351 -425.947 0.706857 -0.594827 -0.364168 -0.117963 
2473 2 -419.318 36.7777 -374.784 -0.426697 0.319902 0.114949 0.838081 
2486 2 -363.23 12.68 -420.612 -0.34386 -0.504325 0.630799 0.479072 
2474 2 -415.022 41.0358 -366.924 -0.959405 0.142712 -0.170603 0.173406 
2427 2 -396.283 95.4493 -474.128 -0.306009 -0.784616 -0.362476 0.399184 
2394 2 -329.054 -51.8085 -508.13 -0.244082 0.15826 0.718109 -0.632216 
2393 2 -322.372 -44.8851 -505.829 -0.628006 -0.433557 0.639764 -0.0913203 
2392 2 -316.399 -37.4132 -503.212 -0.446986 -0.80712 -0.0389352 0.383725 
2367 2 -356.962 8.3361 -457.703 0.354576 0.328965 -0.704443 -0.51944 
2391 2 -311.7 -29.77 -499.055 -0.0119774 -0.423517 -0.750449 0.507263 
2485 2 -355.463 9.43803 -415.516 0.160664 -0.874585 0.0657111 0.452736 
2484 2 -347.988 6.34908 -409.739 0.424953 -0.640823 -0.607865 0.198142 
2483 2 -341.726 4.81551 -402.088 0.332205 0.108478 -0.929503 -0.117887 
2366 2 -348.921 2.8922 -455.496 -0.182825 0.746035 -0.223533 -0.600033 
2373 2 -336.66 75.7824 -394.545 0.519162 -0.106808 0.832399 -0.161785 
2482 2 -335.626 4.00432 -394.329 0.16872 0.757268 -0.571352 -0.26765 
2390 2 -308.534 -21.5004 -494.722 0.37389 0.386915 -0.766717 0.350212 
2481 2 -330.039 2.77054 -386.271 -0.161533 0.920286 0.216564 -0.282987 
2374 2 -328.223 73.9454 -399.32 0.411195 0.634071 0.587461 0.289416 
2389 2 -303.573 -14.1391 -490.411 0.491359 0.826062 -0.200885 -0.189298 
2388 2 -300.664 -6.31503 -485.098 0.202646 0.608212 0.624246 -0.446464 
2387 2 -297.831 2.49235 -481.715 -0.234846 -0.110844 0.811661 -0.523228 
2365 2 -340.334 -0.228806 -451.681 -0.471168 0.634858 0.547117 -0.274987 
2364 2 -332.79 -2.16549 -445.662 -0.444271 0.0343205 0.8914 0.0827794 
2399 3 -351.631 -36.8831 -474.652 -0.489432 0.0624477 -0.722543 -0.48424 
2363 2 -324.671 -3.97512 -440.415 -0.264661 -0.616746 0.626384 0.396512 
2372 3 -336.789 40.008 -432.134 0.662149 0.355402 0.65715 -0.0583255 
2386 2 -293.853 10.4552 -477.421 -0.528775 -0.640636 0.536213 -0.14986 
2362 2 -317.5 -3.22899 -433.562 0.0697994 -0.872436 -0.278482 0.395514 
2385 2 -289.06 17.6594 -472.593 -0.335173 -0.828622 -0.215886 0.392985 
2361 2 -310.679 -2.60671 -426.449 0.343852 -0.341792 -0.855071 0.183842 
2384 2 -286.393 24.5878 -465.989 -0.0592759 -0.419234 -0.805043 0.415493 
2360 2 -304.267 -4.00485 -419.046 0.270281 0.380876 -0.850295 -0.242653 
2359 2 -298.635 -5.42487 -411.06 0.0428003 0.885717 -0.329618 -0.324076 
2377 2 -306.359 65.8519 -417.171 -0.404537 -0.418547 -0.811034 0.058248 
2378 2 -299.989 61.3646 -423.15 -0.407188 -0.874138 -0.0946119 -0.247245 
2379 2 -295.082 54.847 -428.736 -0.0275319 -0.700509 0.611246 -0.367298 
2383 2 -285.346 31.0685 -458.494 0.211452 0.340855 -0.858851 0.31856 
2382 2 -286.134 37.5524 -451.036 0.306248 0.915366 -0.227898 0.127982 
2380 2 -290.539 49.6458 -436.011 0.181708 0.0412409 0.923254 -0.335981 
2381 2 -287.736 43.4544 -443.327 0.315232 0.757222 0.557846 -0.126695 
2358 2 -295.08 -4.39758 -401.967 -0.0896305 0.79478 0.575328 -0.171138 
2357 2 -292.361 -1.68176 -392.865 -0.104594 0.0180063 0.986838 -0.122013 
2356 2 -289.446 3.75405 -385.107 -0.304412 -0.723621 0.61493 -0.0746119 
2355 2 -287.045 10.2227 -377.971 -0.327215 -0.906998 -0.191958 0.182859 
2354 2 -285.751 15.4985 -369.704 -0.0808596 -0.369388 -0.887038 0.264911 
2376 2 -312.799 69.5568 -410.58 -0.257601 0.322746 -0.849294 0.328901 
2375 2 -319.887 72.6483 -404.391 0.108393 0.891812 -0.147397 0.41376 
2353 2 -285.359 22.1628 -362.345 0.137471 0.326636 -0.870216 0.34225 
2519 2 -515.129 101.686 -375.348 -0.669435 -0.0439189 -0.130719 -0.72996 
2518 2 -519.589 102.361 -384.172 -0.965909 -0.0347142 -0.22129 0.129787 
2517 2 -524.261 103.379 -392.835 -0.489477 0.165845 -0.19088 0.834549 
2512 2 -533.744 111.949 -439.417 -0.808311 -0.123722 0.0911445 -0.568348 
2511 2 -531.552 116.386 -448.033 -0.902251 -0.253809 -0.00879089 0.348492 
2510 2 -528.99 119.945 -456.939 -0.315517 -0.211637 -0.129953 0.915844 
2513 2 -534.433 109.266 -429.91 0.0183576 -0.040398 0.0849198 -0.995399 
2514 2 -533.225 107.854 -420.122 0.787371 0.0333243 0.120264 -0.603716 
2515 2 -532.141 105.265 -410.542 0.94027 0.0910948 0.102816 0.311484 
2516 2 -529.372 104.336 -401.138 0.318046 0.293434 0.0515461 0.900048 
2509 2 -527.003 125.566 -464.776 0.507801 0.127207 -0.298129 0.798171 
2508 2 -525.753 132.087 -472.039 0.92396 0.347437 -0.115346 0.110816 
2520 2 -513.061 103.108 -365.795 0.155045 -0.0447075 0.0374795 -0.986183 
2425 1 -365.318 98.6183 -509.532 0.47413 0.761794 -0.395259 -0.196575 
2499 2 -443.491 100.334 -425.909 0.610376 -0.581214 0.309485 0.440285 
2500 2 -444.715 110.113 -424.948 0.0155548 -0.132699 0.652692 0.74575 
2501 2 -446.197 119.931 -424.231 -0.653458 0.326534 0.56458 0.38421 
2567 2 -463.665 163.317 -373.306 0.233932 0.244814 -0.128153 -0.932158 
2566 2 -458.53 164.566 -381.776 -0.556932 0.180482 0.200624 -0.785496 
2505 2 -452.307 157.533 -423.138 0.623291 -0.773186 -0.0338748 -0.112003 
2504 2 -453.486 147.81 -421.23 0.285741 -0.417629 -0.646354 -0.571108 
2503 2 -453.567 138.036 -422.549 -0.31383 0.266868 -0.595543 -0.689653 
2502 2 -450.618 128.642 -422.686 -0.656901 0.722104 -0.00219148 -0.216892 
2507 3 -490.745 124.533 -434.446 0.60219 0.249482 -0.356994 0.66909 
2506 1 -486.436 152.244 -455.359 0.556791 0.204059 -0.415507 0.689708 
2565 2 -452.914 168.778 -388.761 -0.913594 -0.193898 0.330183 -0.13685 
2564 2 -448.455 173.179 -396.46 -0.710234 -0.333017 -0.00447792 0.620199 
2563 2 -447.396 179.931 -403.697 0.0311354 -0.0154601 -0.364012 0.930745 
2562 2 -444.635 183.868 -412.309 0.832964 0.0969799 -0.222031 0.497462 
2560 1 -457.262 227.418 -399.271 -0.0395839 0.101358 0.276331 -0.954883 
2561 3 -466.274 207.801 -371.653 0.0261486 0.134878 0.294148 -0.945834 
2568 2 -468.947 163.672 -365.011 0.888818 0.0884712 -0.378307 -0.243021 
2559 2 -474.595 259 -368.798 0.2343 -0.787782 -0.556837 -0.120146 
2155 1 -636.301 -309.777 -256.256 -0.837899 0.297097 -0.308582 0.338284 
2157 2 -620.573 -268.965 -273.929 -0.124371 0.557114 -0.198886 0.796618 
2158 2 -611.419 -270.805 -270.751 -0.713274 0.149251 -0.624963 0.279973 
2159 2 -601.876 -272.399 -268.746 -0.713886 -0.367767 -0.417838 -0.424883 
2160 2 -592.901 -273.928 -264.786 -0.160577 -0.502521 -0.0495654 -0.848075 
2161 2 -584.316 -274.551 -259.992 0.500484 -0.377805 0.370831 -0.685029 
2156 3 -610.798 -300.766 -234.084 -0.798943 0.31353 -0.339945 0.384483 
2162 2 -575.368 -276.247 -256.037 0.865066 0.0863045 0.488152 0.0769472 
2154 2 -636.889 -344.548 -224.381 0.371155 0.147386 -0.881125 0.253258 
2163 2 -567.123 -277.557 -250.662 0.444496 0.451736 0.293355 0.715752 
2164 2 -558.057 -277.253 -246.699 -0.196779 0.595708 -0.19882 0.752915 
2165 2 -548.502 -278.047 -244.363 -0.80774 0.2368 -0.509117 0.179671 
2166 2 -539.772 -275.99 -240.097 -0.684316 -0.276283 -0.442112 -0.50982 
2167 2 -531.213 -274.573 -235.43 -0.0574573 -0.505548 0.0146083 -0.860759 
2168 2 -522.619 -274.878 -230.411 0.664013 -0.263137 0.387274 -0.582979 
2153 2 -631.247 -338.866 -218.633 0.458108 0.746133 -0.474999 -0.0883075 
2152 2 -626.449 -333.757 -211.741 0.13379 0.867379 0.30126 -0.372822 
2169 2 -514.686 -276.084 -224.651 0.8698 0.0613958 0.46683 0.147469 
2220 2 -440.496 -212.78 -360.366 0.00325104 -0.0939525 -0.44672 -0.889721 
2170 2 -506.174 -275.99 -219.581 0.421705 0.325304 0.384763 0.753856 
2184 2 -427.403 -345.663 -247.832 0.528373 -0.512474 -0.674653 -0.0550984 
2185 2 -433.806 -339.424 -252.274 0.428029 -0.84192 -0.0640666 0.322268 
2202 2 -392.294 -229.922 -334.015 -0.520885 0.70522 -0.360846 0.318015 
2187 2 -445.314 -324.752 -258.658 -0.367157 0.324973 0.718673 0.493049 
2186 2 -440.015 -332.701 -255.995 0.019737 -0.512475 0.610097 0.603955 
2188 2 -447.399 -315.396 -261.079 -0.655893 0.750396 0.0812778 -0.0102226 
2189 2 -448.154 -305.629 -262.518 -0.405458 0.394953 -0.540405 -0.622558 
2190 2 -448.559 -295.771 -261.831 0.13682 -0.35967 -0.701347 -0.600025 
2191 2 -445.929 -286.585 -264.044 0.382815 -0.87641 -0.0265797 -0.290949 
2192 2 -440.92 -279.755 -269.267 0.381154 -0.546083 0.726075 0.171261 
2193 2 -437.098 -273.254 -275.66 0.0464899 0.195018 0.926854 0.317409 
2194 2 -434.436 -267.584 -283.384 -0.241702 0.882817 0.316893 0.248582 
2195 2 -431.466 -261.641 -290.799 -0.405279 0.752988 -0.517888 0.0234596 
2196 2 -427.052 -256.389 -297.83 -0.212668 0.0527197 -0.933902 -0.282525 
2197 2 -422.99 -250.683 -304.79 0.0940154 -0.648295 -0.680803 -0.327693 
2198 2 -420.035 -244.99 -312.39 0.262142 -0.936353 0.104475 -0.208829 
2183 3 -438.046 -303.076 -220.118 -0.475033 0.791855 0.225495 -0.310584 
2199 2 -415.557 -240.269 -319.845 0.44623 -0.526786 0.720986 -0.0596192 
2200 2 -409.038 -235.634 -325.587 0.40933 0.243807 0.807712 0.347287 
2201 2 -401.136 -231.83 -330.195 0.0654027 0.797993 0.253722 0.542729 
2203 2 -384.317 -224.707 -336.763 -0.472683 0.158033 -0.82654 -0.261588 
2171 2 -497.992 -272.697 -214.914 -0.281983 0.534779 0.0257035 0.796139 
2172 2 -489.478 -269.403 -211.097 -0.696056 0.377059 -0.511473 0.334257 
2204 2 -377.118 -219.719 -341.455 -0.148607 -0.669371 -0.620161 -0.381127 
2205 2 -370.406 -216.644 -348.143 0.239317 -0.905973 0.206039 -0.281937 
2173 2 -479.797 -267.691 -209.464 -0.732996 -0.226702 -0.512374 -0.385741 
2206 2 -364.368 -213.511 -355.276 0.292981 -0.346713 0.890133 0.0401989 
2320 2 -368.744 -138.553 -358.613 -0.925613 0.305477 -0.0968407 0.201359 
2321 2 -365.915 -133.422 -350.63 -0.689764 0.256844 -0.270983 -0.620342 
2322 2 -365.239 -126.532 -343.572 0.0739706 0.025045 -0.498795 -0.863195 
2221 2 -438.669 -204.983 -354.396 0.657516 -0.393889 -0.170611 -0.619206 
2222 2 -436.54 -197.491 -348.238 0.809949 -0.5388 0.209415 0.0991032 
2223 2 -434.325 -188.477 -344.572 0.503301 -0.182272 0.609104 0.585198 
2224 2 -430.36 -179.578 -342.409 -0.190566 0.355685 0.530616 0.745399 
2225 2 -426.708 -170.438 -340.936 -0.639092 0.701619 0.152063 0.275987 
2226 2 -424.6 -160.773 -340.499 -0.611286 0.540866 -0.485174 -0.313688 
2227 2 -422.022 -151.307 -341.543 -0.0862324 0.0883756 -0.74085 -0.660223 
2228 2 -421.712 -141.517 -342.543 0.417124 -0.514055 -0.53976 -0.520013 
2229 2 -420.882 -131.661 -343.149 0.643916 -0.758114 -0.0599299 0.0839287 
2230 2 -422.736 -121.949 -344.459 0.360686 -0.505465 0.518986 0.587422 
2231 2 -424.644 -112.236 -344.89 -0.244234 -0.0156721 0.70568 0.664921 
2232 2 -428.028 -102.994 -344.402 -0.67819 0.554408 0.371089 0.308194 
2233 2 -429.759 -93.2943 -343.551 -0.635436 0.608564 -0.190622 -0.435354 
2234 2 -432.449 -83.8739 -342.09 -0.0896607 0.292917 -0.589621 -0.747334 
2237 3 -416.186 -102.319 -301.305 -0.578973 -0.767193 -0.274883 0.0253979 
2238 2 -415.594 -86.6962 -251.897 0.304664 0.484252 -0.641219 0.511388 
2239 2 -414.68 -96.0559 -254.811 -0.235842 -0.156983 -0.782903 0.553893 
2240 2 -412.744 -105.465 -257.384 -0.609173 -0.697852 -0.370496 0.0681393 
2241 2 -409.219 -114.246 -260.274 -0.318229 -0.786036 0.232144 -0.476432 
2242 2 -403.833 -121.526 -264.385 0.226339 -0.348476 0.821954 -0.389522 
2243 2 -397.357 -126.184 -270.307 0.410521 0.440449 0.798322 -0.0126407 
2244 2 -391.322 -129.672 -277.291 0.193202 0.916965 0.273138 0.217357 
2245 2 -386.303 -132.477 -285.356 -0.0706774 0.787852 -0.539336 0.28881 
2246 2 -380.792 -134.619 -293.38 -0.33464 -0.0278818 -0.926425 0.17022 
2247 2 -375.075 -137.916 -300.701 -0.351152 -0.753032 -0.502776 -0.238436 
2235 2 -435.596 -74.5547 -340.724 0.554417 -0.292263 -0.594059 -0.504279 
2236 1 -428.658 -70.4686 -294.222 -0.608335 -0.718004 -0.337468 0.0226684 
2323 2 -366.039 -118.286 -338.179 0.693871 -0.510841 -0.291318 -0.415593 
2324 2 -365.691 -108.944 -334.867 0.677131 -0.657328 0.234091 0.233698 
2325 2 -365.46 -99.0798 -334.249 0.219373 -0.143963 0.727907 0.633483 
2248 2 -368.18 -140.966 -307.194 -0.0565709 -0.794232 0.349111 -0.494082 
2326 2 -364.323 -89.2482 -334.987 -0.408918 0.411057 0.51031 0.635139 
2327 2 -362.674 -79.4588 -334.25 -0.730229 0.666464 -0.0246452 0.148272 
2258 2 -314.794 -199.2 -360.297 0.136173 0.871195 -0.347252 0.319206 
2328 2 -360.413 -69.9962 -332.811 -0.590118 0.270274 -0.571353 -0.502264 
2249 2 -360.634 -145.182 -312.034 0.413284 -0.161193 0.816914 -0.368599 
2271 2 -294.017 -119.374 -359.742 0.0252518 0.00702853 0.0732626 -0.996968 
2309 2 -314.197 -64.0396 -358.958 0.0078076 0.43651 -0.899658 -0.00381268 
2257 2 -318.331 -193.125 -353.407 0.3702 0.790374 0.488117 0.00186853 
2250 2 -353.016 -150.094 -315.809 0.396507 0.585846 0.693578 0.136073 
2251 2 -346.216 -153.545 -322.193 0.167378 0.852614 -0.119843 0.480283 
2252 2 -338.516 -157.219 -327.282 -0.217809 0.361753 -0.727963 0.540152 
2272 2 -294.316 -119.83 -349.851 0.818775 0.0565483 -0.0599085 -0.568173 
2308 2 -310.204 -65.8113 -350.111 -0.0514077 0.934901 -0.23732 -0.258836 
2307 2 -307.035 -68.6256 -341.135 -0.216358 0.75251 0.62085 -0.0382616 
2273 2 -295.917 -120.119 -340.083 0.952667 -0.141809 -0.14884 0.22397 
2306 2 -303.609 -70.7357 -332.14 -0.161922 -0.00908229 0.977441 0.135309 
2256 2 -321.808 -186.468 -346.93 0.242585 0.100496 0.901769 -0.343317 
2255 2 -324.711 -178.93 -341.212 -0.128135 -0.617518 0.657996 -0.411455 
2274 2 -299.428 -118.965 -330.794 0.417253 -0.184055 0.00265738 0.889953 
2254 2 -328.067 -171.582 -335.537 -0.412893 -0.890226 -0.0684467 -0.179811 
2275 2 -302.988 -117.778 -321.627 -0.433117 -0.200139 0.170591 0.862121 
2253 2 -331.83 -163.483 -331.083 -0.474265 -0.503566 -0.676858 0.251708 
2276 2 -307.957 -116.44 -313.139 -0.933372 0.0824661 0.313661 0.153733 
2277 2 -313.533 -113.647 -305.411 -0.746089 0.32431 0.0735378 -0.576859 
2278 2 -318.265 -109.435 -297.8 -0.01605 0.227642 -0.255875 -0.939388 
2279 2 -322.845 -105.408 -289.949 0.670726 -0.0627953 -0.342689 -0.654788 
2280 2 -326.84 -100.52 -282.252 0.938006 -0.272769 -0.211783 0.0298165 
2281 2 -330.427 -95.4565 -274.536 0.593733 -0.295224 0.189444 0.724179 
2282 2 -332.32 -89.506 -266.887 -0.230719 -0.0139059 0.341859 0.910883 
2283 2 -334.236 -83.0539 -259.618 -0.842864 0.181711 0.208018 0.461832 
2284 2 -335.902 -78.6098 -251.007 -0.877594 0.261053 0.00969204 -0.401979 
2285 2 -338.745 -73.7058 -242.898 -0.2507 0.145565 -0.282245 -0.914493 
2286 2 -340.139 -67.9484 -234.92 0.564552 -0.102604 -0.300808 -0.761753 
2329 2 -356.427 -61.0698 -331.146 -0.153011 -0.283387 -0.562562 -0.761449 
2305 2 -299.932 -71.5538 -322.943 -0.107465 -0.759537 0.619294 0.167419 
2304 2 -294.588 -70.0768 -314.667 -0.0322075 -0.933747 -0.221688 0.279164 
2303 2 -290.929 -68.8474 -305.559 0.144211 -0.4419 -0.874952 0.135601 
2302 2 -286.56 -67.0744 -296.857 0.27799 0.514013 -0.811311 -0.0169559 
2301 2 -282.706 -65.1376 -287.954 0.131643 0.957682 -0.177943 -0.18399 
2300 2 -277.974 -61.0057 -280.266 -0.0119327 0.702098 0.628614 -0.334308 
2299 2 -271.504 -56.9081 -274.078 -0.390895 -0.0743396 0.900933 -0.173188 
2287 2 -341.916 -62.4976 -226.842 0.898088 -0.430458 -0.0806742 -0.0404385 
2538 2 -438.09 82.97 -347.005 0.610854 -0.581417 -0.515612 -0.151513 
2537 2 -434.528 74.5381 -343.285 0.243679 -0.0105571 -0.84218 -0.480877 
2475 2 -410.763 43.5032 -358.306 -0.742973 -0.027021 -0.272259 -0.610848 
2476 2 -405.788 45.6046 -349.999 0.0240125 -0.411303 -0.0616292 -0.909096 
2536 2 -431.063 65.7217 -340.329 -0.204639 0.551764 -0.592436 -0.550181 
2535 2 -427.875 56.446 -339.175 -0.650096 0.740786 0.0725137 -0.152817 
2477 2 -398.653 47.2583 -343.251 0.700165 -0.289448 0.218166 -0.615136 
2478 2 -391.808 48.912 -336.357 0.925024 -0.030602 0.359532 0.118869 
2532 2 -482.195 66.2021 -265.742 -0.875071 -0.381267 -0.29307 -0.054734 
2533 1 -449.734 53.2935 -297.464 0.52391 -0.664221 -0.529787 -0.0604531 
2742 2 -383.617 54.1126 -266.032 0.749525 0.512886 -0.411299 0.0774161 
2744 2 -394.321 37.5186 -263.702 -0.434799 -0.423746 -0.422845 0.67275 
2743 2 -389.292 45.9318 -265.317 0.33729 -0.0317228 -0.662305 0.668267 
2745 2 -396.933 28.1896 -261.454 -0.836888 -0.533189 0.0432978 0.115993 
2746 2 -398.965 19.5526 -257.022 -0.449644 -0.372433 0.516755 -0.626161 
2741 2 -377.741 62.0516 -265.536 0.449386 0.684206 0.176663 -0.546538 
2740 2 -373.359 70.8791 -264.738 -0.187884 0.137804 0.711961 -0.662436 
2739 2 -368.094 79.0906 -262.822 -0.611722 -0.486759 0.597273 -0.179241 
2747 2 -398.832 9.75248 -255.479 0.270335 0.268522 0.61059 -0.694259 
2534 3 -465.471 80.6414 -312.732 0.535397 -0.661852 -0.516451 -0.0926385 
2531 2 -487.447 72.4873 -271.277 -0.532591 0.0359978 -0.471226 0.702137 
2748 2 -399.411 -0.000862856 -254.035 0.740279 0.651371 0.103961 -0.129983 
2530 2 -492.039 78.9434 -277.218 0.24202 0.378623 -0.250903 0.85739 
2529 2 -497.596 84.78 -282.817 0.753719 0.465473 0.113979 0.449723 
2738 2 -362.609 87.1231 -261.547 -0.553335 -0.760276 0.0174962 0.339845 
2703 2 -399.245 52.0606 -214.501 0.573408 -0.791587 0.0495538 -0.205275 
2704 2 -395.459 60.859 -216.825 0.591481 -0.458163 0.577155 0.327306 
2705 2 -391.157 69.7904 -217.673 0.210602 0.142196 0.760062 0.598108 
2702 2 -403.445 43.117 -213.968 0.196658 -0.487727 -0.559223 -0.640873 
2706 2 -386.408 78.4296 -218.42 -0.308394 0.735595 0.371679 0.475023 
2749 1 -362.358 -11.1002 -281.072 0.568729 -0.528878 -0.302023 -0.552827 
2707 2 -381.063 86.0591 -221.789 -0.73081 0.609856 -0.297739 0.0730963 
2528 2 -502.017 89.9839 -290.038 0.872329 0.143202 0.298843 -0.359483 
2539 2 -442.569 91.6524 -348.711 0.606911 -0.672983 0.129778 0.402381 
2708 2 -376.053 94.6041 -221.399 -0.551618 0.161824 -0.664646 -0.477259 
2527 2 -504.922 94.7673 -298.177 0.266002 -0.102432 0.275839 -0.917967 
2701 2 -410.864 36.7832 -211.849 -0.496676 0.0796534 -0.782104 -0.367806 
2298 2 -264.981 -53.024 -267.769 -0.357869 -0.766659 0.490102 0.209677 
2297 2 -260.289 -48.6576 -260.178 -0.136325 -0.858918 -0.402405 0.28591 
2291 3 -298.736 -53.5449 -234.871 0.209078 0.506052 0.809065 -0.213567 
2750 3 -354.808 21.3565 -270.192 0.542592 -0.518759 -0.338651 -0.567273 
2352 2 -282.709 29.5251 -356.375 0.436209 0.79974 -0.404764 0.0794017 
2288 2 -343.217 -54.6304 -221.016 0.494863 -0.397544 0.248677 0.731593 
2289 2 -346.48 -47.0545 -215.503 -0.267515 -0.05369 0.474833 0.836712 
2330 2 -350.455 -53.3146 -329.623 0.53407 -0.570279 -0.217121 -0.585157 
2351 2 -278.837 36.968 -351.046 0.334303 0.817779 0.303747 -0.356675 
2331 2 -346.604 -44.5542 -327.224 0.804928 -0.536412 0.19192 0.165892 
2479 1 -353.997 26.2759 -353.174 0.269073 -0.683699 -0.597753 0.320698 
2296 2 -256.963 -45.283 -251.421 0.132975 -0.208783 -0.953382 0.172597 
2295 2 -255.533 -42.8781 -242 0.129107 0.68402 -0.717148 0.0338704 
2343 2 -359.941 66.9442 -306.203 0.359264 -0.153065 -0.772846 -0.500209 
2342 2 -356.01 58.108 -303.784 -0.197931 0.524293 -0.581752 -0.589495 
2350 2 -275.38 43.5937 -344.398 -0.0365995 0.313211 0.871647 -0.375221 
2341 2 -351.356 49.3946 -302.727 -0.650545 0.716015 0.101372 -0.23203 
2340 2 -348.886 39.8705 -303.142 -0.575214 0.419438 0.544941 0.442989 
2339 2 -347.122 30.1054 -303.825 0.0566303 -0.201094 0.6505 0.730209 
2338 2 -345.769 20.3931 -304.951 0.629871 -0.596804 0.291002 0.402996 
2332 2 -345.652 -35.1377 -324.481 0.230202 -0.128734 0.479726 0.836838 
2333 2 -345.605 -26.4395 -319.558 -0.509224 0.339584 0.353732 0.707282 
2334 2 -344.297 -17.7687 -314.969 -0.782507 0.614566 -0.0654505 -0.0755446 
2335 2 -344.087 -8.0927 -312.896 -0.421423 0.32957 -0.501257 -0.680094 
2336 2 -344.579 1.39688 -310.197 0.273984 -0.237043 -0.571166 -0.736555 
2337 2 -344.436 10.8279 -307.275 0.757748 -0.572953 -0.222304 -0.21937 
2294 2 -255.388 -40.9823 -232.28 0.0628135 0.98905 0.127456 -0.0398668 
2293 2 -255.429 -36.8429 -223.218 0.133519 0.580576 0.782216 -0.182324 
2292 2 -255.706 -33.2683 -213.928 -0.0251075 -0.258749 0.947908 -0.184088 
2349 2 -273.109 52.1377 -339.692 -0.394225 -0.495469 0.695874 -0.338904 
2348 2 -272.587 60.4386 -334.224 -0.489978 -0.864481 -0.0620185 0.0935276 
2345 3 -313.473 49.2547 -320.388 -0.339748 -0.333006 -0.692973 0.541726 
2347 2 -271.991 69.4954 -330.449 -0.298113 -0.508298 -0.662291 0.462745 
2751 2 -319.759 -3.06244 -299.61 -0.808769 0.523065 -0.211299 -0.166278 
2752 2 -318.312 5.79487 -295.523 -0.483473 0.0109962 -0.453906 -0.7484 
2753 2 -314.101 12.8016 -290.026 0.295755 -0.266145 -0.366086 -0.841235 
2754 2 -311.537 20.1103 -283.847 0.869947 -0.356104 -0.083869 -0.330677 
2755 2 -310.685 27.0705 -276.849 0.788019 -0.245156 0.147932 0.545014 
2756 2 -311.135 32.5609 -268.617 -0.0032469 -0.132232 0.279258 0.951062 
2804 3 -233.004 46.5209 -296.925 -0.96038 0.16592 -0.00295727 0.223901 
2757 2 -313.744 38.2668 -260.918 -0.773404 0.136203 0.243085 0.56939 
2758 2 -315.798 43.5629 -252.738 -0.950123 0.214414 -0.0137444 -0.226063 