ITEM: TIMESTEP
10000000
ITEM: NUMBER OF ATOMS
4067
ITEM: BOX BOUNDS pp pp pp
-4.6310929470000001e+03 4.6704658980000004e+03
-4.6310929470000001e+03 4.6704658980000004e+03
-4.6310929470000001e+03 4.6704658980000004e+03
ITEM: ATOMS id type x y z c_q[1] c_q[2] c_q[3] c_q[4] 
1941 2 -222.51 77.0277 -515.859 -0.901564 -0.175245 0.317351 0.236135 
2220 2 256.878 243.84 -544.297 -0.97188 -0.0862736 -0.127574 -0.17813 
2221 2 260.12 243.223 -535.048 -0.516189 -0.254079 -0.0835938 -0.813636 
2222 2 265.019 242.077 -526.497 0.359163 -0.231431 0.129644 -0.894782 
2223 2 269.793 241.644 -517.941 0.915554 -0.116942 0.15333 -0.352953 
2219 2 254.528 246.315 -553.55 -0.740322 0.00444766 -0.201011 0.641481 
2208 2 163.745 300.512 -575.087 0.317421 -0.111181 -0.921683 -0.193347 
2207 2 168.703 296.48 -567.549 0.0695992 0.615339 -0.707215 -0.341117 
2206 2 174.013 292.418 -560.299 -0.175643 0.942937 -0.0671403 -0.274793 
2205 2 178.612 288.374 -552.517 -0.308578 0.71242 0.628214 -0.0508394 
2204 2 181.504 283.271 -544.636 -0.128865 -0.0687771 0.944544 0.294109 
2203 2 183.532 277.774 -536.667 0.216276 -0.808516 0.482896 0.257561 
2209 1 197.229 294.517 -607.799 0.416688 -0.0098479 0.316264 -0.852204 
2210 3 209.669 276.777 -580.304 0.449474 -0.0598298 0.346863 -0.821023 
2202 2 185.685 273.019 -528.282 0.245475 -0.874392 -0.417737 -0.0260037 
2211 2 239.207 279.215 -622.938 0.231678 0.134241 -0.22087 0.937828 
2201 2 187.05 267.915 -519.932 0.12259 -0.088957 -0.962117 -0.226692 
2212 2 240.061 274.511 -614.264 -0.613355 0.0299173 -0.259876 0.745228 
2213 2 243.386 271.059 -605.714 -0.956634 -0.233846 -0.173686 -0.00018988 
2214 2 246.436 266.947 -597.232 -0.566823 -0.255947 0.171872 -0.763978 
2218 2 253.098 249.208 -562.83 0.10478 0.045623 -0.143561 0.983021 
2216 2 250.746 256.851 -580.877 0.922759 0.152882 0.132313 -0.328079 
2215 2 248.751 261.569 -589.298 0.269094 -0.0372595 0.270548 -0.923582 
2217 2 252.326 253.184 -571.881 0.837396 0.172948 -0.0955084 0.509643 
2263 1 351.689 332.212 -543.559 0.713774 0.263356 -0.209377 0.614274 
2265 2 307.317 316.865 -539.241 0.0977636 -0.0389951 0.279589 -0.954333 
2266 2 308.309 311.197 -531.215 0.79637 0.1855 0.242198 -0.52223 
2267 2 310.37 305.459 -523.362 0.880972 0.326272 -0.0466071 0.339503 
2262 2 397.382 333.197 -531.819 -0.0217662 -0.111291 0.853674 0.508312 
2261 2 398.822 324.875 -526.72 0.348913 -0.732185 0.4824 0.33084 
2260 2 398.446 316.413 -521.587 0.460416 -0.83961 -0.239477 -0.160386 
2264 3 354.269 306.996 -519.595 0.641234 0.297422 -0.21834 0.672819 
2268 2 311.661 299.755 -515.346 0.154426 0.155958 -0.195566 0.955816 
2259 2 398.477 308.411 -515.735 0.186078 -0.370728 -0.810513 -0.413528 
1425 2 -42.7276 -996.25 -370.419 0.356295 0.284498 0.834925 -0.308245 
1424 2 -46.5759 -988.938 -364.982 -0.0175919 -0.432496 0.766198 -0.474951 
1458 2 -96.3963 -949.772 -366.103 0.50871 -0.759198 -0.0887329 0.39618 
1459 2 -102.9 -942.491 -367.405 0.226998 -0.541227 0.473236 0.656957 
1460 2 -108.433 -934.371 -367.021 -0.466506 0.100916 0.577449 0.662375 
1461 2 -112.845 -925.885 -364.551 -0.795319 0.53923 0.259806 0.0959147 
1457 2 -88.5728 -955.633 -364.48 0.660049 -0.382151 -0.642936 -0.0702058 
1456 2 -80.4609 -960.515 -361.906 0.315725 0.383352 -0.694945 -0.52001 
1911 2 -243.844 -147.273 -468.546 -0.131805 -0.945585 -0.0271807 0.296239 
1912 1 -288.62 -132.841 -464.846 0.84313 -0.157208 0.322952 0.40015 
1910 2 -238.251 -144.249 -460.947 0.131533 -0.613921 -0.719799 0.296125 
1909 2 -234.671 -140.849 -452.375 0.219131 0.23699 -0.932455 0.162313 
1908 2 -231.825 -136.272 -444.1 0.27783 0.91491 -0.284542 -0.0691832 
1907 2 -229.858 -130.524 -436.28 0.176964 0.742254 0.596233 -0.249496 
1906 2 -229.858 -124.719 -428.221 -0.000132665 -0.130795 0.953067 -0.273051 
1913 3 -272.513 -115.711 -438.828 0.842833 -0.175598 0.295814 0.413874 
1905 2 -231.214 -117.229 -421.925 -0.279541 -0.721712 0.545851 -0.320992 
1914 2 -323.038 -106.504 -446.3 0.866263 -0.285809 0.375682 0.163599 
1904 2 -234.82 -110.628 -415.346 -0.405274 -0.887243 -0.160745 -0.150715 
1915 2 -317.042 -100.646 -440.958 0.44309 0.0964256 0.48644 0.746827 
1903 2 -239.134 -105.304 -408.217 -0.313438 -0.379271 -0.852314 0.177398 
1902 2 -240.427 -98.443 -401.047 0.0847427 0.354071 -0.856208 0.366553 
1916 2 -311.52 -94.1721 -435.902 -0.292973 0.369699 0.164015 0.866365 
1917 2 -306.206 -88.9393 -429.399 -0.79603 0.445051 -0.263235 0.3146 
1901 2 -242.611 -93.5283 -392.743 0.212126 0.94465 -0.18901 0.164058 
1900 2 -245.661 -87.0933 -385.878 0.385866 0.677541 0.619858 -0.0884367 
1918 2 -299.119 -83.3681 -425.307 -0.685073 0.00625454 -0.595515 -0.41952 
1899 2 -248.377 -79.628 -379.89 0.106206 -0.0847565 0.892679 -0.429721 
1919 2 -291.4 -78.3005 -421.805 -0.111509 -0.480625 -0.465199 -0.734953 
1898 2 -251.82 -74.6143 -372.07 -0.156662 -0.860233 0.406205 -0.26543 
1920 2 -283.05 -73.1032 -420.493 0.483474 -0.667893 0.00777642 -0.565784 
1881 2 -340.194 -59.339 -369.693 -0.406419 0.699804 -0.19927 -0.55262 
1866 2 -217.157 -115.054 -365.162 -0.717564 0.226933 0.539201 -0.377975 
1921 2 -275.425 -66.8367 -419.223 0.723455 -0.442625 0.525969 -0.0636589 
1880 2 -334.584 -66.6163 -366.064 -0.579053 0.657032 0.481763 0.0301847 
1879 2 -327.965 -73.0679 -362.375 -0.400203 -0.0363969 0.82096 0.405632 
1922 2 -267.302 -61.2506 -418.758 0.457699 0.0656508 0.660672 0.591366 
1897 2 -254.789 -68.9788 -364.526 -0.311471 -0.805748 -0.503201 0.0233493 
1864 2 -197.843 -112.126 -368.895 -0.262449 -0.602478 0.185075 0.730676 
1863 2 -187.978 -112.186 -369.064 0.341806 -0.613379 -0.35067 0.61965 
1865 2 -207.658 -112.885 -367.533 -0.753357 -0.334408 0.482149 0.296912 
1862 2 -178.413 -114.074 -367.775 0.655042 -0.249636 -0.710174 0.065222 
1861 2 -169.3 -117.299 -365.442 0.396323 0.387047 -0.673516 -0.489386 
1923 2 -260.546 -54.24 -417.172 -0.256598 0.507007 0.375671 0.732102 
1884 2 -355.215 -34.7119 -366.625 0.771752 -0.591203 -0.0976145 0.212954 
1942 2 -229.06 75.2299 -508.622 -0.742228 0.106511 0.366623 -0.550763 
1924 2 -255.13 -45.9188 -416.164 -0.627152 0.755583 -0.0826274 0.170137 
1925 2 -251.794 -36.6563 -417.578 -0.512882 0.403772 -0.710713 -0.262309 
1926 2 -246.962 -28.5697 -420.66 -0.145091 -0.332086 -0.713055 -0.600183 
1927 2 -240.887 -21.3998 -423.603 0.341295 -0.817914 -0.184932 -0.424657 
1949 2 -250.365 69.2763 -447.261 -0.792176 0.148615 0.0134834 -0.591767 
1950 2 -252.661 71.2099 -437.854 -0.095462 0.00764653 -0.0779363 -0.992348 
1951 2 -253.279 72.3849 -428.057 0.747475 0.0168001 0.105043 -0.655717 
1952 2 -252.058 70.9912 -418.361 0.983475 0.0168996 0.0827246 0.160147 
1953 2 -251.038 71.0846 -408.576 0.528234 0.117542 0.131275 0.830614 
1954 2 -248.516 72.4217 -399.104 -0.365834 0.210299 0.0140494 0.9065 
1955 2 -244.917 73.9467 -389.947 -0.914657 0.318217 -0.17339 0.179101 
1948 2 -249.545 69.8079 -457.089 -0.975407 -0.0632599 0.00721133 0.211016 
1947 2 -250.067 72.7026 -466.612 -0.466 -0.0555729 -0.157452 0.868887 
1946 2 -248.501 74.3806 -476.25 0.437024 -0.0223407 -0.0899669 0.89466 
1945 2 -246.404 76.4425 -485.671 0.971752 0.0609462 -0.151197 0.170657 
1944 2 -242.567 74.7643 -494.538 0.691726 0.0983852 -0.190364 -0.689635 
1943 2 -235.851 73.3186 -501.678 -0.118656 0.387769 0.0104749 -0.914027 
1928 2 -235.021 -14.7717 -427.985 0.519305 -0.608499 0.600013 0.00598627 
1929 2 -228.871 -8.34137 -432.271 0.397675 0.0918586 0.797846 0.443687 
1956 2 -240.255 78.5436 -382.572 -0.694775 -0.0108082 -0.389761 -0.604365 
1957 2 -234.184 82.8159 -376.054 -0.00740138 -0.475471 -0.256104 -0.841596 
1958 2 -226.408 87.2401 -371.727 0.666877 -0.398811 0.263506 -0.571655 
1988 2 -214.915 85.4113 -486.452 -0.471814 0.842813 0.0179791 -0.25833 
1987 2 -212.042 78.2925 -480.2 -0.34882 0.493516 0.756942 0.248607 
1882 2 -345.963 -51.5572 -371.348 0.121397 0.254308 -0.545104 -0.78959 
1930 2 -221.859 -1.91604 -435.081 -0.0815388 0.688836 0.447373 0.564547 
1883 2 -350.93 -43.3558 -369.044 0.640251 -0.271138 -0.546828 -0.466414 
1931 2 -214.842 4.44828 -438.034 -0.529193 0.702597 -0.288195 0.378492 
1940 3 -209.333 52.3428 -472.122 -0.814094 0.0538224 0.421381 -0.39597 
1959 2 -218.498 89.4539 -366.26 0.845386 -0.0228584 0.525298 0.0941418 
1989 2 -218.768 93.2337 -491.148 -0.218064 0.509549 -0.587162 -0.589956 
1973 2 -213.643 3.85446 -369.891 -0.0202625 0.629551 0.752718 0.191495 
1974 2 -211.6 7.17878 -378.989 -0.264807 0.956653 0.0046472 0.121126 
1975 2 -209.451 11.7166 -387.588 -0.324417 0.63027 -0.694438 -0.123564 
1986 2 -210.726 72.0091 -472.648 0.0519746 -0.277433 0.895522 0.34405 
1960 2 -209.761 90.7283 -361.918 0.44098 0.546497 0.219008 0.677432 
1932 2 -207.064 10.1286 -440.212 -0.637066 0.356877 -0.673681 -0.113752 
1985 2 -208.46 67.0044 -464.455 0.220698 -0.867298 0.392792 0.211664 
1976 2 -206.512 17.5695 -394.948 -0.0650439 -0.209593 -0.904053 -0.36678 
1984 2 -205.814 65.2517 -455.09 0.155919 -0.817546 -0.550905 0.0617273 
1983 2 -202.911 61.4022 -446.496 0.1497 -0.0865849 -0.954851 -0.241561 
1982 2 -199.928 54.887 -439.665 -0.146764 0.66128 -0.636648 -0.368576 
1981 2 -200.458 48.6448 -431.958 -0.338063 0.931879 0.099571 0.0860302 
1980 2 -200.523 43.481 -423.57 -0.152732 0.583238 0.758052 0.248723 
1979 2 -199.941 37.6785 -415.65 0.0295136 -0.196978 0.931038 0.305773 
1978 2 -200.849 31.0467 -408.341 0.361564 -0.844118 0.377864 0.118129 
1977 2 -203.209 24.0707 -401.66 0.280099 -0.78647 -0.456666 -0.307353 
1933 2 -199.047 15.8961 -441.536 -0.270772 -0.385673 -0.683874 -0.557005 
1939 1 -183.57 62.35 -493.562 -0.794447 0.053447 0.427767 -0.427799 
1934 2 -191.221 21.6246 -443.306 0.275346 -0.807833 -0.107556 -0.509923 
1935 2 -184.045 27.4264 -446.73 0.48847 -0.664579 0.550148 -0.130646 
1938 2 -160.513 41.3917 -458.157 -0.418419 0.760076 -0.309078 0.389461 
1936 2 -176.835 32.4691 -451.242 0.481638 0.0604232 0.809004 0.331491 
1937 2 -168.669 37.1709 -454.476 0.0464601 0.708506 0.427465 0.559584 
2015 2 -109.355 58.0158 -473.824 0.349456 -0.793442 0.476045 -0.147348 
2014 2 -112.397 55.9171 -464.638 0.0394103 -0.923346 -0.32586 -0.199234 
2013 2 -115.894 55.3962 -455.406 -0.162416 -0.250312 -0.949266 -0.0992952 
2012 2 -120.05 53.7763 -446.627 -0.231523 0.592374 -0.765958 0.0937948 
2011 2 -124.994 50.8488 -438.609 -0.159776 0.958367 0.0369392 0.233752 
2010 2 -131.984 49.3047 -431.853 0.190245 0.664798 0.62387 0.364193 
2009 2 -139.903 50.1501 -426.055 0.427387 -0.0219085 0.902907 -0.0402411 
2016 2 -104.096 62.3343 -481.055 0.352647 -0.155986 0.893057 0.231859 
2008 2 -148.398 53.9309 -422.593 0.212808 -0.572295 0.567734 -0.552149 
2034 2 -97.4651 78.2084 -384.998 0.715552 0.45347 -0.196507 0.493696 
2035 2 -95.3512 70.0315 -380.017 0.0606878 0.343627 -0.414351 0.840566 
2007 2 -156.774 58.1497 -419.394 -0.311036 -0.784051 -0.043817 -0.53535 
2036 2 -90.795 62.3342 -375.82 -0.431831 -0.204036 -0.657501 0.582738 
2037 2 -87.2416 53.11 -375.306 -0.700295 -0.610714 -0.365637 -0.0540878 
2038 2 -81.7939 44.843 -375.253 -0.473185 -0.573907 0.270827 -0.611049 
2039 2 -77.1396 36.1513 -373.639 0.174688 -0.14362 0.571659 -0.78871 
2006 2 -164.677 62.4082 -415.226 -0.520137 -0.489474 -0.695707 -0.0765785 
2005 2 -173.106 66.9919 -412.839 -0.436932 0.269632 -0.746514 0.423208 
2004 2 -180.951 72.879 -411.293 0.18467 0.695644 -0.293854 0.628989 
2017 2 -98.5807 67.7443 -487.408 -0.0147577 0.554681 0.684308 0.47311 
2003 2 -187.368 80.3002 -411.412 0.65249 0.674236 0.245112 0.244094 
2002 2 -193.01 88.3426 -409.981 0.504544 0.283414 0.729695 -0.364222 
2018 2 -93.2157 73.5489 -493.314 -0.414922 0.870698 -0.0577756 0.257655 
2019 2 -88.2491 80.4833 -498.395 -0.431778 0.398733 -0.777161 -0.224947 
2040 2 -72.9965 27.569 -370.942 0.684111 0.363366 0.521903 -0.357175 
2033 2 -100.785 85.856 -390.241 0.821898 0.365308 0.322198 -0.295334 
2032 2 -104.391 93.219 -395.827 0.302908 -0.0797736 0.493345 -0.811476 
2041 2 -68.7305 19.0238 -368.377 0.645133 0.680593 0.124374 0.324234 
2001 2 -199.717 95.2099 -407.41 0.144232 -0.426182 0.656418 -0.605542 
2042 2 -62.8721 11.0312 -368.113 0.0736827 0.624067 -0.475848 0.615371 
2054 2 -43.845 58.2628 -434.59 -0.956631 0.220398 0.029381 -0.188199 
2051 2 -44.4404 36.0545 -452.645 0.768669 -0.449049 0.285169 0.355221 
2053 2 -42.3497 52.8688 -442.74 -0.660429 0.134911 0.270453 0.687377 
2052 2 -43.1349 44.8001 -448.38 0.206465 -0.0418776 0.461597 0.861711 
2056 2 -44.7257 65.7122 -416.386 0.368925 -0.032385 -0.0894381 -0.924579 
2055 2 -44.5609 61.9715 -425.455 -0.509552 0.0659791 -0.134979 -0.847222 
2057 2 -45.2931 67.1903 -406.549 0.934968 -0.141651 0.0278415 -0.324027 
2058 2 -43.8484 69.498 -397.119 0.826595 -0.0519271 0.305246 0.469968 
2059 2 -39.5 72.8088 -388.85 0.15055 0.182969 0.171968 0.956182 
2060 2 -36.2674 75.7926 -379.962 -0.545865 0.270696 0.145058 0.77956 
2048 3 -48.4465 20.6174 -409.942 0.839271 -0.482605 -0.241768 -0.065303 
2049 2 -43.4023 18.456 -461.534 0.306704 -0.117515 -0.54611 -0.770641 
2050 2 -44.6811 27.0512 -456.896 0.789436 -0.502299 -0.195241 -0.293884 
2047 1 -37.1782 -9.38169 -423.972 0.829503 -0.51144 -0.22415 -0.0104922 
2046 2 -41.2968 -19.7926 -378.038 0.0516593 -0.252616 0.747563 -0.612099 
2061 2 -34.2026 81.2371 -371.883 -0.986826 0.108271 -0.0262468 0.117316 
2045 2 -45.3413 -11.1956 -375.295 -0.443866 -0.768839 0.227919 -0.399903 
2044 2 -49.0806 -2.55311 -372.279 -0.566372 -0.642287 -0.499537 0.130969 
2043 2 -56.2319 4.13916 -370.537 -0.377198 0.0732944 -0.780169 0.493646 
2062 2 -32.8461 83.7726 -362.407 -0.688007 0.177524 -0.229473 -0.665187 
2583 2 365.543 86.2539 -367.351 0.0393844 0.647616 -0.136021 -0.748693 
2584 2 355.839 87.1746 -365.832 0.672648 0.265608 -0.53201 -0.440411 
2616 2 364.656 91.9329 -426.249 -0.679501 0.144085 0.25893 0.671173 
2582 2 375.283 87.0693 -365.843 -0.371689 0.582073 0.481404 -0.539711 
2585 2 346.403 88.5176 -362.949 0.754802 -0.227179 -0.576129 0.216195 
2581 2 384.599 87.0869 -362.338 -0.565298 0.111535 0.816452 -0.0374662 
1999 2 -214.743 107.618 -403.527 -0.635156 -0.481971 -0.603496 0.00853289 
1998 2 -221.917 114.439 -402.495 -0.421194 0.104032 -0.727379 0.531689 
1994 3 -221.719 105.823 -447.279 -0.783786 -0.525649 -0.282794 -0.171463 
1990 2 -222.3 101.959 -494.255 0.334199 -0.123099 -0.770877 -0.528116 
1997 2 -230.738 118.873 -403.196 0.0984927 0.633249 -0.254087 0.724385 
1993 1 -245.5 130.441 -454.577 -0.752177 -0.564752 -0.279705 -0.192483 
1995 2 -248.504 126.202 -407.715 0.73884 0.185505 0.638045 -0.112255 
1996 2 -239.656 121.834 -406.36 0.636358 0.481356 0.300677 0.522435 
1992 2 -226.788 120.834 -496.78 0.517076 -0.592305 0.406021 0.465783 
1991 2 -225.839 110.981 -496.411 0.678121 -0.665394 -0.270454 -0.155745 
2000 2 -207.039 101.656 -405.614 -0.434074 -0.751857 -0.00909729 -0.496194 
2031 2 -109.857 99.9995 -400.5 -0.438659 -0.471439 0.182148 -0.743065 
2030 2 -114.011 106.624 -406.519 -0.888499 -0.405112 -0.157092 -0.14757 
2021 3 -117.93 101.009 -461.189 0.938912 0.304167 -0.0675431 0.146169 
2029 2 -120.016 111.537 -412.647 -0.66645 0.0163441 -0.453367 0.591638 
2020 1 -115.093 118.653 -491.345 0.959487 0.234096 -0.081288 0.134071 
2022 2 -142.727 146.576 -465.167 -0.736956 -0.172212 -0.184125 0.627166 
2023 2 -141.94 141.676 -456.592 -0.958401 -0.263628 -0.00253573 -0.109366 
2024 2 -141.185 137.228 -447.849 -0.450882 -0.192219 0.150308 -0.858583 
2025 2 -139.082 133.43 -438.912 0.393934 0.00949908 0.360642 -0.845377 
2026 2 -136.067 127.435 -431.57 0.900711 0.224615 0.287812 -0.23544 
2027 2 -132.095 121.855 -424.456 0.711125 0.431997 0.164165 0.529838 
2028 2 -126.169 116.9 -418.24 0.0592745 0.388422 -0.262048 0.881445 
2776 1 -61.5786 197.647 -420.729 -0.0652698 0.265803 0.320626 0.906801 
2775 2 -85.3232 238.15 -425.245 -0.177608 0.456539 0.730757 -0.475418 
2774 2 -78.4483 243.723 -421.045 -0.50843 -0.312409 0.787612 -0.153514 
2883 2 -141.729 238.285 -364.767 -0.150576 0.797589 -0.554922 0.182316 
2777 3 -46.0117 218.699 -397.468 -0.0953961 0.279118 0.320303 0.900222 
2781 2 -28.48 185.696 -376.163 0.76631 -0.254646 0.172704 0.564001 
2780 2 -27.0204 180.092 -384.176 0.925509 -0.257062 -0.176028 -0.215327 
2155 1 17.9178 143.433 -442 0.668722 0.0663139 0.643807 0.365959 
2156 3 49.9445 156.407 -436.902 0.676349 0.061111 0.63307 0.371538 
2154 2 43.1606 123.478 -476.504 0.5239 -0.136996 -0.805947 0.239189 
2153 2 52.1553 125.6 -473.177 0.525484 0.496651 -0.646482 -0.243445 
2152 2 60.2486 127.981 -468.152 0.129686 0.881032 0.0222717 -0.454388 
2151 2 69.6802 129.687 -465.539 -0.398511 0.469212 0.657731 -0.434072 
2150 2 77.9627 131.386 -460.355 -0.466291 -0.31537 0.820093 0.102771 
2149 2 84.9779 132.102 -453.394 -0.156049 -0.885627 0.272753 0.341934 
2160 2 36.4657 187.477 -407.819 0.18471 0.588262 0.530767 0.581479 
2159 2 28.2088 182.328 -406.285 0.58748 -0.111113 0.761263 0.250998 
2157 2 12.7904 170.783 -403.864 0.120744 -0.626849 -0.267205 -0.721861 
2158 2 21.2529 175.871 -403.314 0.557737 -0.727607 0.337234 -0.213988 
2161 2 45.4266 191.15 -410.088 -0.265606 0.725798 -0.179615 0.608613 
2148 2 91.2114 131.819 -445.761 0.182616 -0.805746 -0.474926 0.303101 
2778 2 -29.34 169.635 -400.725 -0.432257 0.074776 -0.266764 -0.858137 
2779 2 -28.0131 175.033 -392.552 0.36094 -0.126867 -0.216596 -0.898172 
2162 2 55.1449 192.906 -410.807 -0.659583 0.2705 -0.668126 0.213042 
2163 2 64.9994 193.325 -411.086 -0.596953 -0.357588 -0.571533 -0.434889 
2164 2 74.6637 194.523 -410.009 0.0278302 -0.665761 -0.0534523 -0.743728 
2165 2 84.3965 195.366 -408.248 0.640717 -0.457604 0.374279 -0.489893 
2166 2 93.5001 197.525 -405.087 0.757096 0.113392 0.603089 0.224122 
2782 2 -28.7478 191.758 -368.366 0.015422 0.0364712 0.34029 0.939486 
2147 2 97.2229 133.272 -438.057 0.325838 -0.0851145 -0.935883 0.103475 
2146 2 103.734 135.301 -430.887 0.340713 0.706792 -0.592593 -0.182191 
2145 2 110.326 135.121 -423.435 -0.0240198 0.92272 0.0290683 -0.383622 
2144 2 116.815 132.074 -416.671 -0.388602 0.610086 0.676282 -0.139378 
2143 2 123.537 130.423 -409.471 -0.313903 -0.168347 0.922195 0.150598 
2167 2 102.964 197.996 -402.126 0.256812 0.427489 0.378349 0.779842 
2183 3 213.777 183.771 -408.313 -0.455575 0.746746 0.356966 -0.327713 
2185 2 227.973 151.953 -440.022 -0.325829 0.847637 0.0326122 -0.417472 
2186 2 221.029 157.607 -444.217 -0.045193 0.520704 -0.652738 -0.548414 
2187 2 216.177 165.42 -447.958 0.299702 -0.222853 -0.751629 -0.543663 
2188 2 213.596 174.639 -450.77 0.702277 -0.604724 -0.375491 0.0110703 
2189 2 208.888 183.279 -450.967 0.440185 -0.66882 0.240554 0.548681 
2190 2 203.212 191.356 -451.474 -0.0246676 -0.269477 0.798301 0.538041 
2191 2 200.181 200.148 -454.81 -0.468241 0.345834 0.688171 0.433094 
2192 2 197.189 209.362 -456.973 -0.542188 0.814037 0.207906 0.0123358 
2193 2 195.078 218.216 -460.807 -0.33817 0.670003 -0.532933 -0.390793 
2194 2 193.212 226.374 -466.195 0.0702976 0.0988619 -0.902709 -0.412796 
2172 2 149.733 205.045 -389.889 0.679658 -0.345948 0.489117 -0.423261 
2173 2 159.418 206.192 -388.054 0.730872 0.12518 0.609314 0.280878 
2174 2 168.772 208.338 -385.727 0.31296 0.536705 0.232257 0.748372 
2171 2 139.898 205.212 -391.481 0.116431 -0.613037 0.0959922 -0.77551 
2170 2 130.118 204.527 -392.971 -0.482131 -0.468265 -0.463393 -0.577533 
2168 2 111.692 201.027 -398.697 -0.431626 0.59972 -0.242852 0.628536 
2169 2 120.923 203.59 -396.423 -0.835905 0.123104 -0.529944 0.0725691 
2175 2 178.177 207.953 -382.664 -0.362481 0.488407 -0.286937 0.74009 
2176 2 187.5 207.669 -379.223 -0.805964 0.156053 -0.548934 0.157294 
2142 2 130.308 128.196 -402.605 -0.0825231 -0.790763 0.473686 0.378821 
2184 2 234.687 145.446 -436.544 -0.576157 0.515707 0.631553 0.0568348 
2141 2 137.55 125.209 -396.62 0.283512 -0.841825 -0.295139 0.351916 
2182 1 243.729 169.651 -397.04 -0.407672 0.760928 0.382649 -0.329199 
2140 2 144.033 123.699 -389.311 0.351837 -0.272963 -0.89248 0.0719828 
2139 2 149.213 120.637 -381.55 0.141787 0.554231 -0.772415 -0.27586 
2195 2 190.78 233.748 -472.372 0.37257 -0.752407 -0.532173 -0.108935 
2196 2 188.802 240.869 -478.962 0.329732 -0.901762 0.246538 0.131611 
2724 2 128.855 243.486 -374.707 -0.320747 -0.356457 0.0952914 0.872341 
2197 2 188.001 247.299 -486.331 0.104276 -0.332158 0.893204 0.284577 
2177 2 196.729 208.41 -375.718 -0.676051 -0.405457 -0.394867 -0.471848 
2178 2 205.962 206.919 -372.506 -0.0222925 -0.590896 0.0534385 -0.804667 
2138 2 153.309 117.636 -372.976 -0.101627 0.951913 -0.148584 -0.247905 
2179 2 215.425 205.883 -369.8 0.544921 -0.314091 0.500796 -0.594652 
2180 2 224.52 204.005 -366.522 0.787525 0.226624 0.564606 0.0983164 
2181 2 233.831 201.833 -363.987 0.364224 0.599564 0.144163 0.697912 
2137 2 156.694 113.117 -364.831 -0.293852 0.757211 0.583107 0.0163542 
2725 2 122.287 243.768 -367.31 -0.897475 -0.0227697 0.312497 0.310428 
2617 2 363.373 97.7568 -418.382 -0.916213 0.375111 0.0778568 -0.117405 
2238 2 319.265 214.679 -388.477 -0.121914 -0.626266 -0.754731 0.152673 
2244 2 330.441 206.162 -443.625 -0.0981572 0.161092 -0.969347 -0.157419 
2243 2 331.232 204.614 -433.919 -0.0146887 0.885018 -0.455149 -0.0967854 
2242 2 328.496 203.842 -424.393 0.0433616 0.898787 0.413912 0.137763 
2241 2 326.278 205.557 -414.882 0.122097 0.308367 0.942052 -0.0504078 
2239 2 319.311 210.395 -397.442 -0.236799 -0.955471 -0.000398107 -0.176069 
2240 2 322.788 206.273 -405.672 0.10827 -0.635014 0.751499 -0.142421 
2614 1 379.318 126.831 -454.374 -0.354723 -0.0225396 -0.193976 -0.914351 
2615 3 389.416 137.412 -422.648 -0.416115 -0.00865999 -0.178887 -0.8915 
2245 2 331.447 210.053 -452.745 0.0790502 -0.675234 -0.649644 -0.340253 
2246 2 334.697 215.733 -460.095 0.366514 -0.89862 0.087528 -0.224695 
2247 2 339.175 221.997 -466.252 0.46384 -0.480913 0.718939 0.191576 
2618 2 361.13 104.507 -411.491 -0.585081 0.288188 -0.190167 -0.733801 
2619 2 359.446 111.345 -404.571 0.169229 -0.00489058 -0.367741 -0.914387 
2620 2 358.599 118.037 -397.292 0.781922 -0.399542 -0.0671332 -0.473769 
2621 2 360.957 124.77 -390.454 0.828183 -0.377457 0.338228 0.239251 
2248 2 344.644 228.756 -470.956 0.258797 0.273919 0.785359 0.491125 
2622 2 364.617 132.536 -385.519 0.356574 -0.0910527 0.497066 0.785805 
2623 2 366.142 141.166 -381.033 -0.503936 0.328856 0.409531 0.685702 
2624 2 366.444 150.311 -377.123 -0.799279 0.59909 0.00398913 -0.0472073 
2625 2 366.233 159.815 -374.437 -0.474557 0.334797 -0.64409 -0.49785 
2626 2 368.035 169.51 -375.02 0.159442 -0.207063 -0.647102 -0.716214 
2627 2 369.282 179.337 -374.353 0.701992 -0.630843 -0.252011 -0.213855 
2628 2 368.401 189.133 -373.521 0.694143 -0.443321 0.425712 0.374702 
2249 2 351.062 235.268 -474.754 -0.194712 0.834117 0.227519 0.463218 
2629 2 370.41 198.334 -370.293 0.177724 0.0587202 0.521434 0.83251 
2630 2 373.232 206.364 -365.473 -0.488499 0.448252 0.197333 0.722148 
2224 2 273.726 242.443 -508.891 0.873596 -0.0115466 0.22964 0.428908 
2250 2 357.74 240.99 -479.372 -0.554666 0.651321 -0.487558 0.174397 
2225 2 278.171 244.456 -500.215 0.237353 0.179304 0.171194 0.939258 
2237 3 313.812 246.482 -429.153 -0.263845 -0.928172 -0.220424 0.142467 
2226 2 282.011 246.908 -491.412 -0.654305 0.280052 0.0735298 0.698605 
2251 2 365.055 246.814 -482.753 -0.471984 0.152182 -0.817794 -0.292035 
2613 2 401.044 167.737 -463.121 0.226948 0.816591 -0.518914 -0.111368 
2612 2 405.399 170.322 -454.65 0.0504852 0.925384 0.289898 -0.238902 
2611 2 410.728 171.528 -446.306 -0.16911 0.516447 0.809352 -0.222787 
2603 2 416.871 158.508 -371.231 0.0284129 -0.177681 0.983565 0.0149062 
2610 2 414.819 172.011 -437.371 -0.21469 -0.213278 0.952841 0.0226682 
2609 2 418.011 173.319 -428.108 -0.110457 -0.919902 0.351642 0.13389 
2608 2 418.33 171.297 -418.489 0.0990991 -0.858832 -0.502567 -0.00377006 
2607 2 418.998 168.872 -408.902 0.0698086 -0.191654 -0.971759 -0.118658 
2606 2 419.042 164.627 -399.93 -0.15068 0.567363 -0.796683 -0.143848 
2604 2 417.418 158.995 -381.086 -0.0618946 0.684631 0.718296 0.107238 
2605 2 417.586 160.95 -390.852 -0.19098 0.976664 -0.0300375 0.0935507 
2773 2 -72.9454 250.578 -416.451 -0.498632 -0.810355 0.198154 0.235426 
2886 2 -204.044 305.204 -373.487 -0.664089 0.270032 0.00145761 0.697185 
2884 1 -171.686 271.463 -379.941 0.982239 -0.0578868 -0.0181028 0.177563 
2772 2 -65.8658 255.66 -411.7 0.0674473 -0.655729 -0.55661 0.505624 
2887 2 -200.428 308.879 -365.186 -0.96524 0.200587 -0.156157 -0.0607535 
2771 2 -59.1112 259.424 -405.482 0.377179 0.00114596 -0.901254 0.213251 
2770 2 -52.6933 262.59 -398.655 0.34447 0.748221 -0.529434 -0.202992 
2769 2 -46.7709 263.362 -390.788 -0.0168787 0.912839 0.259822 -0.314536 
2768 2 -39.6602 265.022 -384.146 -0.288327 0.375657 0.832232 -0.288337 
2767 2 -32.8651 269.344 -378.411 -0.440919 -0.324351 0.830551 -0.10282 
2766 2 -28.2021 276.155 -372.927 -0.423485 -0.878396 0.160687 0.152513 
2765 2 -24.7194 284.655 -369.057 -0.271509 -0.572899 -0.578797 0.512898 
2764 2 -18.5316 291.795 -366.214 0.384327 -0.0272771 -0.780878 0.491709 
2760 2 9.79927 318.537 -361.529 -0.658399 -0.318561 0.64418 -0.223744 
2755 2 26.7901 362.955 -362.388 0.654781 0.671482 0.172971 -0.300758 
2756 2 25.6394 353.077 -362.52 0.715137 0.546609 -0.344471 0.266715 
2763 2 -10.8956 297.263 -362.921 0.553718 0.564443 -0.608478 -0.0674903 
2762 2 -4.20587 304.578 -362.099 0.392118 0.710215 0.162379 -0.561668 
2761 2 2.557 311.836 -362.541 -0.193226 0.28638 0.632142 -0.693575 
2200 2 187.68 264.285 -510.762 -0.0879668 0.670361 -0.719253 -0.159853 
2198 2 187.876 253.16 -494.368 -0.156226 0.529977 0.799422 0.235887 
2199 2 188.221 258.594 -502.649 -0.316001 0.938664 0.135993 0.0236473 
2722 1 150.33 285.012 -368.539 0.408811 -0.0870005 -0.162408 0.893828 
2258 2 396.895 299.469 -511.76 -0.322198 0.380973 -0.743192 -0.445774 
2227 2 285.151 251.296 -483.08 -0.918633 0.366197 -0.123641 -0.0820126 
2257 2 394.919 290.664 -507.949 -0.559561 0.800383 -0.213083 -0.0295578 
2256 2 390.558 282.494 -504.478 -0.292078 0.723476 0.378349 0.49812 
2269 2 313.473 295.082 -506.766 -0.731957 -0.05301 -0.22459 0.641084 
2252 2 371.872 252.744 -486.771 0.0193286 -0.492617 -0.693235 -0.525719 
2255 2 386.479 274.212 -500.923 0.135544 0.173676 0.814745 0.536335 
2270 2 316.577 291.52 -498.082 -0.888358 -0.134449 -0.388137 -0.205166 
2254 2 382.451 266.609 -496.129 0.480753 -0.556909 0.653144 0.179251 
2253 2 376.939 259.991 -491.361 0.396757 -0.858965 -0.0314482 -0.322139 
2236 1 317.889 260.941 -397.508 -0.208282 -0.948607 -0.195185 0.136623 
2228 2 286.717 258.086 -475.999 -0.531253 0.0612144 -0.423412 -0.731263 
2235 2 311.386 298.239 -425.671 -0.745125 0.163483 -0.284712 -0.580518 
2232 2 301.538 282.563 -448.623 0.412751 0.046297 0.287697 0.862974 
2233 2 304.899 287.544 -440.691 -0.38129 0.367109 0.130039 0.838414 
2234 2 309.39 292.382 -433.276 -0.92965 0.322079 -0.0463012 0.172836 
2231 2 297.643 277.453 -456.222 0.88215 -0.221015 0.280223 0.307307 
2230 2 294.329 271.096 -463.011 0.839237 -0.374898 0.00241495 -0.393861 
2343 2 301.06 356.596 -406.052 0.307805 -0.0219572 -0.942452 0.128679 
2344 1 278.303 323.203 -381.719 -0.430058 -0.162782 -0.351597 -0.815433 
2229 2 290.164 264.798 -469.472 0.185219 -0.301529 -0.301172 -0.885477 
2271 2 323.598 290.319 -491.231 -0.267338 -0.344685 -0.141335 -0.888677 
2272 2 329.955 290.626 -483.718 0.529401 -0.314066 0.332284 -0.714622 
2273 2 337.701 289.481 -477.592 0.92142 -0.107112 0.372822 -0.0227217 
2274 2 344.514 291.042 -470.58 0.611848 0.191843 0.248322 0.726068 
2342 2 307.101 359.167 -398.667 0.294996 0.701349 -0.629392 -0.157967 
2275 2 350.299 292.311 -462.723 -0.16261 0.419423 0.00359402 0.893101 
2276 2 357.405 293.555 -455.999 -0.778055 0.219243 -0.406768 0.425561 
2277 2 365.441 293.196 -450.178 -0.782377 -0.276419 -0.446229 -0.335199 
2278 2 374.067 292.313 -445.503 -0.216326 -0.513323 -0.097719 -0.824714 
2294 2 379.254 364.157 -436.114 0.270052 0.603254 0.282356 -0.695292 
2295 2 372.28 357.362 -434.322 0.729795 0.608357 -0.191084 -0.246551 
2296 2 366.793 349.52 -431.967 0.559638 0.210557 -0.631723 0.493353 
2297 2 362.05 340.985 -430.785 0.00474418 -0.215809 -0.456678 0.863047 
2298 2 358.812 332.922 -426.078 -0.75341 -0.35297 -0.198058 0.518226 
2299 2 358.23 325.469 -419.525 -0.843323 -0.370661 0.0933351 -0.377764 
2300 2 358.547 318.658 -412.241 -0.248141 -0.091903 0.38086 -0.88596 
2301 2 358.712 311.817 -405.087 0.538896 0.284883 0.287425 -0.738796 
2302 2 357.237 304.383 -398.763 0.951249 0.303297 -0.0198557 -0.0523696 
2279 2 383.162 292.135 -441.625 0.467505 -0.329136 0.287554 -0.768389 
2341 2 314.46 362.187 -392.634 0.119291 0.885646 0.0976329 -0.438028 
2340 2 321.56 364.442 -386.089 -0.23186 0.558681 0.72231 -0.335237 
2303 2 357.018 298.472 -390.865 0.589243 0.200008 -0.379798 0.684502 
2304 2 354.866 291.159 -384.491 -0.129262 -0.287185 -0.349131 0.882567 
2305 2 351.354 284.38 -378.109 -0.776084 -0.429075 -0.13103 0.443193 
2306 2 349.403 277.04 -371.692 -0.826174 -0.38364 0.272733 -0.309635 
2293 2 387.134 369.988 -437.278 -0.41321 0.234844 0.600732 -0.642827 
2339 2 329.427 364.146 -380.107 -0.438321 -0.200087 0.868135 0.119084 
2292 2 394.414 376.552 -436.141 -0.665025 -0.359018 0.64346 -0.121689 
2280 2 391.133 291.128 -435.745 0.859103 0.041858 0.507437 -0.0519502 
2281 2 399.748 290.394 -430.821 0.570376 0.364617 0.298718 0.672676 
2338 2 335.601 363.729 -372.305 -0.163475 -0.825229 0.444704 0.307426 
2307 2 347.588 269.051 -366.159 -0.325928 -0.105543 0.412758 -0.843957 
2337 2 340.927 362.518 -364.061 0.140304 -0.877162 -0.378202 0.260508 
2291 3 401.784 331.251 -412.11 -0.497772 -0.282611 0.741371 -0.350319 
2282 2 408.106 289.503 -425.569 -0.250802 0.404736 -0.115889 0.871698 
2283 2 415.879 289.398 -419.502 -0.864324 0.242326 -0.233738 0.373614 
2284 2 421.718 291.133 -411.608 -0.796488 0.0299954 -0.304026 -0.5218 
2290 1 423.76 357.34 -404.579 -0.521796 -0.251691 0.764198 -0.283517 
2285 2 425.897 295.062 -403.592 -0.0295512 -0.167553 -0.331035 -0.928153 
2286 2 429.706 300.572 -396.257 0.729585 -0.315789 -0.14708 -0.588515 
2287 2 432.086 306.571 -388.759 0.888677 -0.241694 0.337436 0.194869 