ITEM: TIMESTEP
10000000
ITEM: NUMBER OF ATOMS
4067
ITEM: BOX BOUNDS pp pp pp
-4.6310929470000001e+03 4.6704658980000004e+03
-4.6310929470000001e+03 4.6704658980000004e+03
-4.6310929470000001e+03 4.6704658980000004e+03
ITEM: ATOMS id type x y z c_q[1] c_q[2] c_q[3] c_q[4] 
132 2 -249.875 81.895 -546.446 -0.0504459 -0.631838 -0.302648 -0.711787 
133 2 -240.572 85.3449 -546.014 0.550729 -0.684685 0.277012 -0.388803 
134 2 -232.677 91.2878 -546.279 0.721628 -0.2235 0.605373 0.250647 
135 2 -224.911 97.2481 -545.184 0.246799 0.321412 0.454216 0.793393 
93 2 -264.179 167.796 -541.014 -0.159301 -0.587806 0.740651 -0.283803 
92 2 -263.977 173.245 -532.772 -0.265649 -0.957539 0.104255 -0.0410009 
94 2 -263.13 161.494 -548.548 0.144139 0.162035 0.910959 -0.350888 
95 2 -262.25 154.727 -555.672 0.533714 0.690073 0.466779 -0.145143 
96 2 -259.533 145.903 -559.091 0.495333 0.77912 -0.233577 0.305055 
97 2 -257.224 136.746 -562.261 0.0424587 0.388278 -0.782886 0.48428 
98 2 -253.879 128.892 -567.286 -0.325793 -0.465726 -0.767535 0.296392 
99 2 -251.229 121.45 -573.246 -0.444958 -0.862336 -0.208736 -0.121726 
100 2 -247.334 114.13 -578.788 -0.244931 -0.683866 0.542485 -0.421955 
101 2 -243.958 106.257 -583.821 0.175322 0.0986378 0.90669 -0.370736 
102 2 -241.735 99.1633 -590.399 0.39916 0.793988 0.450792 -0.0839029 
104 3 -230.659 149.242 -598.202 -0.911079 0.327927 0.0866992 0.234268 
103 1 -229.994 127.918 -625.905 -0.899218 0.347122 0.0658919 0.258014 
91 2 -262.728 177.55 -523.986 -0.127784 -0.714822 -0.666989 0.166813 
105 2 -216.802 169.469 -643.918 -0.797418 0.202669 -0.206851 -0.529398 
106 2 -215.523 174.936 -635.793 -0.095544 -0.131867 -0.280453 -0.945954 
90 2 -260.683 181.874 -515.333 0.0538256 -0.0944086 -0.965598 0.236242 
107 2 -212.574 180.055 -627.968 0.741061 -0.207173 -0.0511159 -0.636628 
136 2 -217.116 102.373 -541.773 -0.453051 0.538035 0.00940485 0.710756 
108 2 -210.996 184.319 -619.173 0.969069 -0.143046 0.0492367 0.194982 
118 2 -212.286 171.28 -523.617 -0.983413 -0.161447 0.0807377 -0.017783 
109 2 -210.77 187.474 -609.753 0.421173 -0.0712137 0.104765 0.89809 
117 2 -211.336 173.224 -533.26 -0.661807 -0.0677056 -0.0912496 0.741013 
137 2 -209.588 107.163 -537.436 -0.864715 0.28863 -0.40947 0.0360004 
114 2 -209.86 180.884 -561.791 0.837413 0.138579 0.0706198 -0.523973 
115 2 -210.454 177.765 -552.406 0.923683 0.103085 -0.0779731 0.360698 
116 2 -210.862 175.129 -542.919 0.191723 4.74821e-05 -0.106984 0.975601 
119 2 -213.664 167.443 -514.592 -0.567369 0.0291792 0.256284 -0.782023 
112 2 -210.008 186.688 -580.597 -0.779498 -0.0894244 0.00690577 -0.61995 
110 2 -211.395 189.33 -600.136 -0.43904 0.0123932 -0.0421521 0.897393 
111 2 -210.895 188.723 -590.25 -0.95585 -0.0490698 -0.0988746 0.272337 
113 2 -208.806 184.341 -571.029 0.0227419 0.0215492 0.157382 -0.987041 
138 2 -202.087 111.879 -533.066 -0.514629 -0.0762273 -0.566774 -0.638838 
139 2 -195.136 118.087 -529.681 0.202129 -0.383536 -0.344029 -0.832879 
140 2 -189.861 125.153 -525.182 0.790413 -0.535962 0.011117 -0.296426 
141 2 -187.021 133.487 -520.75 0.716612 -0.371806 0.410775 0.423664 
142 2 -184.076 142.187 -517.071 0.137548 0.156897 0.444631 0.871073 
4044 2 70.6106 -245.805 -443.254 0.252403 -0.893447 -0.120304 0.351527 
4043 2 77.2585 -249.369 -436.897 0.414446 -0.453395 -0.788959 0.0145043 
4042 2 83.5323 -253.395 -430.402 0.290227 0.219646 -0.893138 -0.26425 
4041 2 88.6005 -259.618 -424.571 -0.196428 0.795548 -0.396841 -0.413567 
4040 2 94.4339 -263.976 -417.875 -0.341861 0.820592 0.437475 -0.135554 
4045 1 104.412 -224.365 -468.205 -0.58772 -0.00753408 -0.424455 0.688743 
4062 2 196.455 -236.047 -368.399 0.751531 -0.0268102 0.341827 0.563592 
4060 2 187.898 -244.446 -384.007 0.354518 -0.221002 -0.11163 -0.901673 
4061 2 191.609 -240.47 -375.732 0.873469 -0.3371 0.188886 -0.296205 
4055 2 168.929 -258.662 -427.277 0.710783 0.0704774 0.224145 0.663008 
4056 2 172.557 -256.155 -418.411 -0.00701607 0.25638 0.106182 0.960701 
4057 2 177.384 -254.473 -409.936 -0.730787 0.23163 -0.0722506 0.638027 
4058 2 181.27 -251.581 -401.291 -0.955333 0.188418 -0.17783 -0.142175 
4059 2 184.13 -247.284 -392.802 -0.513606 -0.095136 -0.221125 -0.823567 
4038 2 107.69 -274.521 -407.849 -0.0699146 -0.531706 0.692068 0.483159 
4039 2 101.643 -268.577 -413.02 -0.481311 0.231566 0.824785 0.1856 
4037 2 112.818 -281.275 -402.667 0.35978 -0.873212 0.123416 0.304676 
4036 2 116.887 -287.853 -396.519 0.431714 -0.661166 -0.604513 -0.105104 
4035 2 119.45 -292.611 -388.268 0.174741 -0.110343 -0.958716 -0.195327 
4034 2 124.084 -296.324 -380.351 0.0352322 0.661712 -0.671257 -0.332131 
4033 2 130.605 -301.29 -374.88 -0.337661 0.867648 0.0667813 -0.358766 
4032 2 136.515 -304.305 -367.498 -0.330611 0.5052 0.796906 -0.020232 
4054 2 166.006 -259.702 -436.691 0.987052 -0.0395296 0.130227 -0.0848877 
4046 3 122.456 -243.464 -445.196 -0.592531 -0.00476742 -0.417137 0.689116 
4053 2 165.084 -257.483 -446.362 0.523378 0.0109649 0.135439 -0.841197 
4052 2 164.432 -252.824 -455.095 -0.314538 -0.111305 0.237448 -0.912302 
4051 2 161.981 -247.536 -463.002 -0.877146 -0.346237 -0.0230638 -0.331967 
4050 2 158.508 -241.787 -470.242 -0.82227 -0.183333 -0.298863 0.448266 
4049 2 155.084 -234.158 -475.445 -0.0529434 0.181708 -0.427877 0.883799 
4048 2 151.734 -225.375 -478.52 0.663884 0.566082 -0.0872266 0.480833 
4047 2 149.328 -215.779 -479.753 0.717502 0.568988 0.345585 -0.204976 
2476 2 -683.74 37.0764 -368.831 -0.257752 -0.733398 -0.610261 0.152556 
2477 2 -682.821 31.0613 -376.712 -0.372941 -0.893765 0.129588 -0.212851 
2478 2 -680.43 24.067 -383.291 -0.0690437 -0.453433 0.789061 -0.408672 
2479 1 -689.056 -17.6444 -363.106 0.283349 -0.265397 0.287686 0.875508 
5 2 -367.328 77.129 -461.92 -0.221283 0.420072 -0.183187 0.860823 
4 2 -374.749 77.7144 -468.416 0.515754 0.356892 0.178332 0.758171 
3 2 -381.499 79.2296 -475.423 0.916595 0.113502 0.375888 0.0753525 
2 2 -388.672 79.2569 -482.268 0.661432 -0.307865 0.274437 -0.626428 
1 2 -394.989 82.3956 -489.2 -0.172677 -0.348158 0.12952 -0.912246 
6 2 -359.448 75.3166 -456.261 -0.826906 -0.0227654 -0.46118 0.320969 
7 2 -352.427 72.1681 -450.283 -0.84036 -0.292018 -0.346512 -0.297406 
8 2 -345.047 69.2398 -444.301 -0.233551 -0.439012 -0.0287021 -0.867121 
9 2 -337.567 67.3113 -438.051 0.579909 -0.240176 0.38 -0.679427 
10 2 -329.982 65.3604 -432.026 0.903031 0.193634 0.382617 0.025414 
12 2 -317.991 57.4608 -418.501 -0.199982 0.393165 -0.198492 0.875231 
11 2 -323.71 61.7039 -425.373 0.584572 0.396352 0.00504814 0.707923 
13 2 -310.073 54.9655 -413.023 -0.872984 0.124303 -0.340334 0.326526 
14 2 -303.716 54.4409 -405.37 -0.802617 -0.216649 -0.288052 -0.475284 
16 2 -288.905 54.0365 -392.44 0.670536 -0.415301 0.312391 -0.52945 
15 2 -297.055 53.9617 -398.067 -0.0660245 -0.46842 -0.00551774 -0.881018 
22 1 -236.957 78.8485 -427.739 0.609541 -0.366033 -0.58519 0.389914 
17 2 -280.414 56.5596 -388.014 0.76704 -0.0442787 0.598383 0.227214 
18 2 -271.425 59.8875 -385.73 0.200718 0.443785 0.44895 0.74914 
19 2 -262.689 64.0209 -383.934 -0.42233 0.695604 -0.00863861 0.581118 
20 2 -254.537 69.6085 -383.243 -0.749185 0.351012 -0.555455 0.0835537 
21 2 -245.808 73.9825 -381.617 -0.51471 -0.227601 -0.596503 -0.572238 
23 3 -271.918 78.7976 -426.277 0.597985 -0.383501 -0.620938 0.331326 
24 2 -249.481 83.353 -472.921 0.347434 -0.595775 -0.18688 0.699584 
130 1 -263.106 87.2316 -501.487 0.470902 -0.776293 0.0235994 -0.418405 
25 2 -258.839 85.2908 -470.184 -0.322812 -0.540648 0.401642 0.664963 
26 2 -268.353 87.4152 -468.942 -0.716761 0.0350174 0.686483 0.117341 
27 2 -278.041 89.4374 -467.956 -0.583912 0.53244 0.282291 -0.543936 
28 2 -287.208 92.1249 -465.374 0.122183 0.479219 -0.0958488 -0.863848 
29 2 -295.965 92.7354 -460.902 0.746447 0.208656 -0.41128 -0.479717 
30 2 -303.951 94.1028 -455.164 0.878226 -0.213746 -0.385754 0.185003 
31 2 -311.574 96.6733 -449.324 0.382243 -0.464693 -0.0862006 0.794053 
32 2 -319.202 98.4648 -443.233 -0.275648 -0.30274 0.267873 0.87213 
33 2 -326.165 101.893 -437.149 -0.884189 -0.00291046 0.373149 0.281001 
34 2 -332.626 103.595 -429.852 -0.832726 0.108342 0.227921 -0.49283 
35 2 -337.197 103.188 -421.054 -0.150263 0.0762383 0.00695147 -0.985678 
39 2 -341.383 109.7 -382.964 -0.139473 0.0990748 0.239809 0.955627 
38 2 -341.768 106.501 -392.39 0.595554 -0.0918762 0.113915 0.789872 
37 2 -341.168 103.014 -401.633 0.972577 -0.191018 -0.020271 0.131131 
36 2 -339.152 102.921 -411.27 0.663039 0.0687263 -0.074484 -0.741693 
89 2 -260.267 184.923 -505.942 0.0991857 0.644099 -0.753862 0.0836081 
88 2 -258.228 187.5 -496.523 0.140083 0.984893 -0.045925 -0.0908446 
129 2 -262.406 108.763 -459.538 0.557834 0.102179 -0.564641 0.599634 
128 2 -257.356 116.577 -462.925 0.809347 0.533216 -0.188901 -0.157973 
123 2 -233.072 151.018 -484.73 0.113192 -0.277372 -0.260005 0.91796 
64 2 -326.679 206.947 -448.899 0.49249 -0.661269 -0.432427 -0.364944 
65 2 -326.274 216.477 -451.388 0.649012 -0.688663 0.259606 0.192697 
157 1 -227.686 171.321 -460.143 0.0872147 0.70613 0.11367 0.693435 
184 1 -215.187 141.082 -385.097 0.297004 -0.616831 -0.102308 -0.721693 
126 2 -249.97 134.246 -467.832 -0.341948 -0.0564016 0.616156 -0.707278 
124 2 -238.912 146.762 -477.993 -0.634843 -0.445945 0.00898671 0.630894 
125 2 -244.681 141.611 -471.809 -0.849604 -0.40155 0.338937 -0.0453103 
127 2 -253.388 125.295 -465.477 0.392872 0.461422 0.369413 -0.704468 
63 2 -324.196 198.22 -444.83 0.124591 0.0232835 -0.853325 -0.505739 
62 2 -319.307 190.925 -440.102 -0.302337 0.802775 -0.26993 -0.437358 
61 2 -313.84 184.27 -435.278 -0.494611 0.687169 0.532091 -0.00621418 
60 2 -309.881 178.154 -428.601 -0.231147 0.0455457 0.919969 0.313295 
59 2 -303.946 172.843 -422.685 0.0211564 -0.669967 0.601097 0.435177 
58 2 -297.727 167.542 -417.115 0.364328 -0.858919 -0.170054 0.317184 
57 2 -292.734 162.068 -410.572 0.380847 -0.470391 -0.783394 -0.141359 
56 2 -287.141 158.813 -403.058 0.175791 0.434183 -0.841981 -0.267676 
55 2 -279.395 155.945 -397.673 -0.0871279 0.880425 -0.13199 -0.447033 
87 2 -257.822 191.746 -487.619 0.146223 0.636483 0.736113 -0.177893 
82 2 -265.742 201.567 -441.589 0.0328456 0.714608 -0.697338 -0.0444632 
81 2 -262.692 201.924 -432.257 0.00161002 0.982482 0.118307 -0.143977 
80 2 -260.671 204.675 -422.956 -0.0257188 0.429416 0.885513 -0.175521 
79 2 -256.911 208.796 -414.694 -0.272262 -0.265208 0.911889 -0.154908 
83 2 -267.024 201.787 -451.424 -0.0325574 -0.125795 -0.991411 0.0148136 
86 2 -259.714 195.652 -478.665 0.0626303 -0.164956 0.94912 -0.26084 
84 2 -266.523 201.321 -461.251 -0.162044 -0.862704 -0.468563 -0.0996579 
85 2 -263.865 199.024 -470.414 -0.0846555 -0.867541 0.385315 -0.302883 
78 2 -252.452 212.863 -406.788 -0.31622 -0.861251 0.383943 0.104113 
66 2 -325.627 226.366 -452.028 0.286042 -0.266677 0.55839 0.731617 
67 2 -326.075 236.065 -450.17 -0.369184 0.283304 0.541785 0.699936 
77 3 -282.989 242.675 -436.367 0.167821 0.851704 0.296802 -0.397926 
68 2 -326.047 245.549 -447.279 -0.76031 0.604476 0.100667 0.215415 
131 3 -239.434 112.672 -505.928 0.456301 -0.778487 0.0540236 -0.427584 
54 2 -272.37 156.548 -390.659 -0.278202 0.5879 0.697891 -0.299877 
53 2 -266.328 159.607 -383.466 -0.369059 -0.280365 0.882585 -0.0789551 
122 2 -227.044 154.899 -491.513 0.778658 0.0248494 -0.404328 0.479158 
156 2 -221.649 217.793 -455.092 -0.48184 -0.506768 0.36264 0.616043 
52 2 -260.118 163.078 -376.703 -0.313024 -0.833165 0.367201 0.270215 
121 2 -221.813 159.491 -498.6 0.871755 0.34988 -0.166358 -0.299921 
120 2 -216.806 163.746 -505.948 0.264485 0.330399 0.103232 -0.900127 
40 2 -340.862 114.675 -374.437 -0.87071 0.283998 0.106106 0.387235 
155 2 -211.982 218.31 -457.287 0.170889 -0.611607 -0.158246 0.756104 
159 2 -212.484 127.191 -467.069 0.621525 -0.433061 0.534733 -0.374467 
51 2 -253.419 166.303 -370.297 -0.015664 -0.805001 -0.42099 0.417726 
41 2 -340.601 121.119 -366.956 -0.872503 0.296362 -0.181625 -0.343397 
183 2 -232.246 178.958 -362.64 -0.571639 -0.64456 0.398708 0.31433 
143 2 -179.94 149.488 -511.889 -0.619706 0.420056 0.252679 0.612919 
154 2 -202.381 218.816 -459.82 0.730517 -0.201903 -0.561774 0.331647 
144 2 -177.335 157.374 -506.588 -0.823786 0.534446 -0.173103 -0.076021 
160 2 -202.785 128.59 -465.909 0.813142 0.073035 0.549595 0.177234 
186 2 -180.827 116.699 -406.404 0.678342 -0.507307 0.232713 -0.477846 
153 2 -193.021 219.16 -463.054 0.699314 0.320734 -0.480148 -0.421364 
158 3 -192.821 174.68 -459.68 0.0369879 0.712515 0.0983961 0.693738 
161 2 -193.577 129.612 -462.452 0.346044 0.481365 0.362058 0.719344 
162 2 -184.119 130.934 -460.114 -0.332654 0.564411 0.0111948 0.755418 
185 3 -186.459 159.577 -377.621 0.26137 -0.632957 -0.125873 -0.71778 
187 2 -173.39 122.074 -402.445 0.780606 -0.100243 0.535223 0.306826 
188 2 -165.486 126.638 -398.546 0.190044 0.399611 0.359995 0.821339 
189 2 -157.915 130.956 -393.865 -0.610948 0.427914 -0.0595666 0.663388 
190 2 -151.315 134.689 -387.497 -0.909768 0.22629 -0.299435 -0.177352 
152 2 -184.418 218.282 -467.702 0.000192223 0.50794 -0.0391756 -0.860501 
163 2 -175.788 134.171 -455.848 -0.813695 0.399802 -0.325021 0.26911 
151 2 -177.589 214.158 -473.535 -0.774926 0.393967 0.258969 -0.420969 
145 2 -175.574 166.346 -503.017 -0.526218 0.137497 -0.459034 -0.702479 
146 2 -172.628 174.15 -497.539 0.279878 -0.288913 -0.3906 -0.828027 
147 2 -169.707 182.023 -492.295 0.807581 -0.535181 -0.0908429 -0.230525 
148 2 -168.385 190.77 -487.812 0.699666 -0.437925 0.281405 0.489388 
149 2 -168.525 199.67 -483.356 -0.060094 -0.181201 0.487655 0.851908 
150 2 -172.102 207.482 -478.445 -0.743026 0.148237 0.462774 0.460193 
164 2 -168.544 139.147 -451.301 -0.712428 0.0617355 -0.499292 -0.489227 
165 2 -161.854 144.893 -446.778 -0.0619621 -0.260812 -0.385525 -0.882898 
166 2 -156.884 151.404 -441.391 0.666067 -0.398472 0.052874 -0.628315 
167 2 -151.597 156.499 -434.731 0.900435 -0.318862 0.200768 0.217338 
168 2 -148.925 162.588 -427.403 0.35969 -0.0207107 0.423777 0.831028 
169 2 -146.139 169.908 -421.317 -0.331861 0.285315 0.290935 0.850777 
170 2 -143.99 177.234 -414.983 -0.910313 0.359301 0.11975 0.167014 
171 2 -144.643 184.201 -407.956 -0.53963 0.285735 -0.0995329 -0.785651 
172 2 -147.48 188.521 -399.613 0.304745 0.140898 -0.309743 -0.889572 
173 2 -151.897 193.228 -392.122 0.875447 -0.0770194 -0.41287 -0.239164 
174 2 -158.342 196.908 -385.608 0.726967 -0.275103 -0.182273 0.602174 
191 2 -146.592 139.599 -380.365 -0.422497 -0.121572 -0.309185 -0.84328 
192 2 -141.696 143.459 -372.633 0.425989 -0.231585 -0.0949831 -0.869414 
175 2 -164.753 198.887 -378.224 0.0378185 -0.475544 0.162567 0.863713 
193 2 -138.29 147.877 -364.542 0.942017 -0.19064 0.126172 -0.245644 
176 2 -172.63 202.344 -373.312 -0.655397 -0.335127 0.453409 0.502558 
177 2 -181.893 202.385 -369.881 -0.7752 0.1705 0.58567 -0.164274 
178 2 -191.157 202.639 -366.531 -0.226653 0.411677 0.266342 -0.841554 
179 2 -199.533 199.99 -361.969 0.43122 0.610478 -0.033399 -0.663514 
69 2 -324.445 255.172 -445.458 -0.63718 0.396295 -0.502537 -0.429427 
70 2 -321.067 264.41 -443.894 -0.0704161 -0.272119 -0.582689 -0.762539 
76 1 -260.839 258.623 -414.453 0.14678 0.853674 0.300885 -0.398954 
71 2 -316.275 273.024 -442.934 0.534278 -0.587193 -0.0662966 -0.604447 
72 2 -309.941 280.138 -440.377 0.780735 -0.410655 0.465963 -0.0685073 
73 2 -301.994 285.554 -437.923 0.562282 0.203177 0.625396 0.501436 
74 2 -293.024 289.358 -435.897 -0.0654797 0.55503 0.266747 0.785175 
75 2 -284.95 294.533 -433.448 -0.677477 0.536622 -0.283644 0.415461 
3257 2 -85.1482 541.192 -402.928 0.00616694 0.206427 0.972477 0.107886 
3258 2 -84.3935 543.489 -412.576 -0.0644636 0.878501 0.418032 0.222102 
3256 2 -85.1249 541.103 -393.12 0.0129623 -0.666437 0.745024 0.0251745 
3259 2 -81.1457 546.106 -421.569 -0.130936 0.841918 -0.5196 0.0636087 
3255 2 -85.8211 544.771 -383.95 -0.197428 -0.97338 -0.110559 -0.0364807 
3260 2 -79.4552 548.003 -431.164 -0.0936334 0.130516 -0.986375 -0.0355432 
3254 2 -87.3759 549.867 -375.498 -0.201366 -0.420138 -0.864004 0.190874 
3261 2 -77.6397 549.131 -440.772 -0.0331163 -0.650846 -0.750374 -0.110644 
3253 2 -89.7251 555.67 -367.958 0.039676 0.378987 -0.854516 0.352983 
3262 1 -77.396 595.955 -434.821 0.966173 0.143577 0.133788 -0.167321 
3264 2 -70.8457 635.195 -409.347 0.557637 0.287556 -0.00413698 0.778675 
3263 3 -71.4947 583.695 -402.554 0.969682 0.146144 0.107954 -0.163418 
3265 2 -66.3468 632.182 -401.226 -0.194483 0.241454 -0.290382 0.905293 
3266 2 -60.7635 628.347 -393.968 -0.792793 -0.0632807 -0.376848 0.474827 
3267 2 -55.4735 623.586 -387.107 -0.817827 -0.419628 -0.121686 -0.374519 
3268 2 -50.4147 617.477 -381.161 -0.297314 -0.266311 0.268733 -0.876622 
3269 2 -47.6876 611.007 -374.246 0.515989 -0.00476274 0.324543 -0.792719 
3270 2 -43.7162 606.269 -366.603 0.944164 0.217505 0.236977 -0.0713279 
3287 2 93.5489 594.434 -369.223 -0.207449 -0.310362 -0.901085 -0.220648 
3288 2 98.1377 597.008 -377.638 0.0909 -0.913819 -0.281561 -0.278199 
3996 2 93.9685 -262.845 -325.121 0.610398 -0.114843 -0.102936 -0.776936 
3997 2 94.07 -259.7 -315.693 0.980863 -0.137919 0.109251 0.0833721 
3995 2 95.4141 -266.133 -334.379 -0.21871 0.15813 -0.154511 -0.950414 
4063 2 200.962 -231.454 -360.893 0.0956232 0.269034 0.308606 0.907325 
3998 2 96.0942 -256.644 -306.487 0.524386 0.159935 0.194114 0.813486 
4031 2 143.224 -306.117 -360.466 -0.305648 -0.297711 0.874588 0.230312 
4064 2 206.777 -227.032 -354.101 -0.621427 0.335845 -0.0872283 0.702445 
4065 2 212.701 -224.677 -346.603 -0.909142 0.0473358 -0.413788 -0.000721637 
3994 2 98.6752 -268.734 -343.375 -0.872817 0.178313 0.100056 -0.443153 
3993 2 100.334 -268.872 -353.128 -0.942808 0.0221347 0.0706276 0.325014 
4030 2 151.054 -308.192 -354.851 -0.100288 -0.801194 0.363698 0.464494 
4029 2 156.331 -308.293 -346.533 0.0917679 -0.868703 -0.416993 0.251097 
3975 2 104.858 -238.234 -257.168 0.836112 0.544523 0.0135808 -0.0650233 
3974 2 105.772 -229.664 -261.985 0.526491 0.371213 0.366055 -0.671574 
3976 2 103.789 -246.882 -252.582 0.431424 0.433616 -0.415488 0.673217 
3973 2 106.586 -223.229 -269.516 -0.225556 -0.0474669 0.319253 -0.919211 
3972 2 109.295 -219.02 -278.141 -0.865906 -0.148068 0.23924 -0.413579 
3977 2 105.571 -256.227 -249.798 -0.334034 0.0498128 -0.674635 0.656359 
3978 2 111.082 -264.511 -249.275 -0.606375 -0.5787 -0.545299 -0.00806948 
3979 2 117.591 -271.345 -252.31 -0.379157 -0.794146 0.103395 -0.463553 
3980 2 123.799 -278.488 -255.396 0.103405 -0.478875 0.730724 -0.475425 
3991 1 146.312 -278.344 -348.545 0.879098 -0.0779781 -0.137467 0.449676 
4028 2 161.652 -309.222 -338.195 0.265561 -0.266558 -0.925136 0.0504723 
3990 2 185.044 -288.673 -323.655 -0.171895 0.928726 -0.229434 0.235118 
3989 2 180.12 -291.13 -315.426 0.0722046 0.694065 0.659226 0.280147 
4027 2 167.253 -311.015 -330.229 0.153152 0.617065 -0.732156 -0.244383 
3992 3 134.821 -277.966 -315.423 0.86099 -0.101108 -0.10832 0.486559 
4026 2 171.623 -312.619 -321.535 -0.0495621 0.961264 -0.104755 -0.250083 
3981 2 130.046 -284.411 -260.179 0.519043 0.292683 0.788033 -0.154711 
3982 2 136.894 -289.723 -264.844 0.330755 0.837753 0.316373 0.297792 
3983 2 144.216 -293.3 -270.521 -0.0853612 0.84149 -0.320696 0.426337 
3984 2 151.955 -294.942 -276.547 -0.386271 0.329874 -0.837802 0.200162 
3985 2 159.339 -296.29 -283.002 -0.297032 -0.468153 -0.811323 -0.185363 
3988 2 176.201 -295.148 -307.255 0.222373 -0.0784242 0.939845 0.247165 
3986 2 166.068 -296.718 -290.231 -0.0161709 -0.92781 -0.200054 -0.31446 
3987 2 171.491 -295.946 -298.509 0.193724 -0.738867 0.621653 -0.173479 
3999 2 100.323 -255.097 -297.643 -0.254192 0.392722 -0.00536993 0.883814 
4000 2 107.328 -253.598 -290.773 -0.824603 0.229313 -0.261423 0.446211 
4001 2 113.661 -252.095 -283.339 -0.817739 -0.0843402 -0.411272 -0.393758 
4002 2 120.76 -250.019 -276.804 -0.262794 -0.433476 -0.22642 -0.831728 
3957 2 150.326 -226.115 -228.99 0.0296831 0.749387 0.00767965 0.661422 
3956 2 140.909 -223.024 -228.968 0.639505 0.509942 0.480408 0.316544 
4003 2 128.968 -248.564 -271.328 0.371223 -0.561035 0.346967 -0.653488 
3958 2 160.157 -226.477 -229.715 -0.376026 0.630792 -0.524935 0.430289 
4004 2 138.676 -248.556 -269.494 0.781022 -0.132591 0.605869 -0.0731234 
4005 2 148.277 -247.663 -267.179 0.564154 0.512809 0.442195 0.472463 
4006 2 158 -249.239 -266.014 -0.108929 0.745817 -0.0853949 0.651613 
4007 2 167.83 -248.697 -267.005 -0.576391 0.332683 -0.656862 0.354441 
4008 2 177.742 -248.962 -267.73 -0.54961 -0.31458 -0.690515 -0.34951 
4009 2 187.421 -247.648 -269.247 -0.0376112 -0.620594 -0.180269 -0.762202 
3959 2 169.359 -226.227 -233.203 -0.430513 -0.0573089 -0.891792 -0.126814 
4025 2 173.836 -315.141 -312.205 -0.185295 0.707264 0.681572 0.030043 
4024 2 177.208 -316.567 -303.035 -0.154222 -0.0714418 0.982009 0.0822757 
3960 2 177.398 -224.845 -238.868 -0.215667 -0.632382 -0.575637 -0.471405 
4023 2 182.414 -317.919 -294.794 -0.0823646 -0.825264 0.503094 0.243006 
4022 2 186.157 -324.222 -288.137 0.369208 -0.898597 -0.223084 0.0802648 
4019 3 210.87 -287.092 -279.76 -0.335054 0.795839 -0.121895 -0.489408 
4021 2 190.444 -330.313 -281.51 0.34649 -0.394735 -0.827396 -0.198858 
4010 2 196.759 -245.249 -267.347 0.47099 -0.592104 0.43508 -0.488147 
4011 2 206.623 -244.146 -267.829 0.742047 0.0859531 0.661277 0.0684871 
4012 2 216.498 -244.635 -266.678 0.444678 0.601507 0.358379 0.558583 
4013 2 226.26 -246.42 -266.494 0.000639686 0.632606 -0.330441 0.700441 
3961 2 185.779 -222.266 -243.396 0.27869 -0.863585 0.105171 -0.406807 
4020 2 196.375 -336.909 -277.114 0.182624 0.337041 -0.776452 -0.500173 
3965 3 152.623 -214.671 -273.679 0.709412 -0.191042 -0.42431 0.529338 
3962 2 193.254 -218.436 -248.497 0.495695 -0.496375 0.710752 -0.0522551 
4014 2 235.251 -250.631 -267.408 -0.572152 -0.0177856 -0.719533 0.39319 
3955 2 132.181 -219.014 -226.575 0.557696 -0.0140303 0.776195 -0.293768 
3963 2 200.59 -214.112 -253.594 0.302367 0.301063 0.816118 0.389727 
4066 2 219.821 -223.163 -339.857 -0.667282 -0.14853 -0.269194 -0.678387 
4018 1 234.389 -310.306 -268.411 -0.351143 0.787564 -0.143651 -0.485599 
4067 2 225.155 -221.267 -331.862 0.171768 -0.304322 -0.0344871 -0.93632 
4015 2 243.208 -256.495 -268.394 -0.697369 -0.582207 -0.368212 -0.197815 
3971 2 111.71 -214.961 -286.868 -0.841409 -0.231456 0.00226418 0.488318 
3970 2 115.007 -210.936 -295.238 -0.196336 -0.219312 -0.141868 0.945107 
3954 2 124.575 -212.921 -224.716 -0.0169016 -0.623169 0.455605 -0.635452 
4016 2 250.483 -263.132 -267.532 -0.278515 -0.640331 0.219382 -0.681379 
4017 2 257.97 -269.497 -266.81 0.260172 -0.332418 0.613075 -0.667793 
2451 2 -741.389 -65.7612 -241.589 0.0699745 0.485213 0.249454 -0.835132 
2450 2 -733.541 -60.8702 -245.27 -0.62999 0.10451 0.530019 -0.557917 
375 2 -283.819 -159.946 -239.133 0.618479 -0.212118 0.656451 -0.376247 
376 2 -274.136 -161.856 -238.289 0.660165 0.401469 0.527401 0.353344 
377 2 -264.272 -163.095 -237.905 0.144474 0.529091 0.0232051 0.835854 
318 2 -273.692 -81.248 -278.974 0.15546 0.817129 -0.200999 -0.517428 
317 2 -264.459 -81.1205 -275.241 -0.300676 0.683518 0.487532 -0.452449 
316 2 -255.79 -79.8064 -270.527 -0.496389 -0.0590123 0.864251 -0.0564516 
378 2 -255.43 -164.374 -233.794 -0.552557 0.254211 -0.480381 0.631896 
379 2 -247.033 -167.222 -229.377 -0.863073 -0.229821 -0.434972 -0.114396 
380 2 -239.098 -170.232 -224.417 -0.466087 -0.484219 -0.0614983 -0.737911 
315 2 -247.739 -77.5444 -265.29 -0.354945 -0.702705 0.505509 0.3531 
314 2 -240 -75.6748 -259.414 -0.00383137 -0.854648 -0.27598 0.439769 
313 2 -233.881 -71.2286 -253.193 0.272914 -0.293057 -0.835918 0.375336 
312 2 -228.606 -66.5358 -246.368 0.378334 0.46666 -0.79489 0.0850999 
381 2 -231.472 -173.69 -219.12 0.400165 -0.484234 0.365113 -0.687079 
382 2 -222.206 -175.669 -216.097 0.815936 0.0479512 0.556129 -0.150562 
311 2 -225.4 -60.7341 -239.129 0.342258 0.924154 0.0136146 -0.169155 
383 2 -212.967 -177.474 -212.805 0.635656 0.364775 0.320644 0.600056 
341 2 -205.298 -119.148 -290.748 0.358185 0.45949 -0.467235 0.66503 
339 2 -207.324 -99.5599 -289.371 0.46975 0.499809 0.58027 -0.439103 
340 2 -206.19 -109.319 -290.817 0.711101 0.700728 -0.01108 0.0565009 
342 2 -202.722 -128.596 -289.254 -0.280324 0.0618043 -0.650933 0.70277 
338 2 -205.228 -89.8751 -288.903 -0.154914 0.00675794 0.727916 -0.667903 
337 2 -203.444 -80.2225 -287.447 -0.570995 -0.58757 0.48382 -0.307643 
336 2 -203.284 -70.4214 -286.014 -0.66582 -0.714384 -0.16497 0.138292 
335 2 -204.918 -61.3994 -282.107 -0.267101 -0.281639 -0.786614 0.480182 
343 2 -198.331 -137.283 -287.842 -0.729074 -0.465179 -0.4235 0.269643 
344 2 -194.778 -146.298 -286.066 -0.622782 -0.651633 0.165131 -0.40031 
345 2 -191.747 -155.749 -285.142 -0.0526223 -0.250634 0.633621 -0.730026 
358 2 -188.186 -78.564 -217.537 -0.625286 -0.353557 0.128526 0.683737 
348 2 -116.602 -111.939 -255.604 0.4228 -0.0762339 -0.777709 -0.458909 
346 1 -149.038 -143.277 -269.461 -0.430652 0.154787 0.720075 0.521605 
349 2 -122.49 -104.258 -257.915 0.719781 -0.557013 -0.394112 0.127784 
350 2 -129.25 -97.1073 -257.283 0.415178 -0.587467 0.218563 0.659348 
351 2 -135.293 -89.5932 -255.029 -0.261713 -0.226359 0.580809 0.736837 
347 3 -165.334 -112.559 -273.565 -0.435054 0.159417 0.730894 0.501106 
352 2 -141.685 -82.5047 -252.491 -0.842785 0.184707 0.485029 0.142635 
353 2 -149.912 -78.9291 -248.233 -0.629949 0.407545 0.294379 -0.591956 
357 2 -181.034 -77.784 -224.403 0.211761 -0.351778 -0.114006 0.904661 
356 2 -173.063 -76.1596 -230.15 0.795939 -0.133572 -0.408417 0.426421 
354 2 -158.243 -77.3069 -243.156 0.069571 0.369653 -0.0924309 -0.92194 
355 2 -165.279 -75.5694 -236.339 0.815471 0.23159 -0.344742 -0.403145 
359 2 -194.349 -80.9625 -210.288 -0.920841 -0.105332 0.364529 -0.0898662 
3909 2 34.4505 -173.527 -224.556 -0.378355 -0.797483 0.163484 0.440613 
3908 2 42.9237 -169.114 -221.699 0.0798537 -0.648133 -0.476501 0.588637 
3907 2 51.7601 -165.946 -218.78 0.529626 -0.0702143 -0.800208 0.272458 
3910 1 54.5339 -190.971 -263.529 -0.456322 0.477975 -0.0927433 0.744788 
3906 2 59.8529 -164.153 -213.353 0.4048 0.607189 -0.635786 -0.251464 
3911 3 81.7544 -178.601 -245.178 -0.460758 0.46736 -0.0998351 0.74787 
3912 2 91.2091 -198.743 -292.164 0.878473 -0.0256718 0.433572 -0.199102 
3946 2 95.0775 -160.457 -263.777 -0.859491 -0.18926 0.0992068 -0.464343 
3947 2 94.9934 -164.516 -254.771 -0.0579808 -0.151393 0.286351 -0.94431 
3969 2 120.687 -208.323 -302.979 0.604964 -0.141074 -0.271227 0.735222 
3968 2 127.306 -206.948 -310.258 0.931788 0.0639928 -0.351815 -0.0624656 
3945 2 97.6348 -157.787 -273.007 -0.90942 -0.185304 0.0839321 0.362729 
3948 2 97.5343 -169.92 -246.845 0.744441 0.164951 0.286174 -0.580262 
3964 1 179.414 -208.93 -295.479 0.735558 -0.173947 -0.423202 0.499597 
3944 2 100.023 -156.165 -282.405 -0.337015 -0.169847 -0.00969995 0.926002 
3949 2 99.7538 -175.827 -239.246 0.892354 0.419891 0.0656835 0.151927 
3943 2 101.213 -157.026 -292.231 0.564381 -0.108051 -0.0328434 0.817753 
3913 2 98.7252 -200.09 -285.75 0.699327 0.276722 0.307872 0.582736 
3942 2 103.409 -158.575 -301.826 0.990128 -0.0991123 -0.0989864 0.00498426 
3953 2 117.383 -206.171 -223.544 -0.510274 -0.744993 -0.140664 -0.40598 
3966 2 141.702 -206.156 -323.704 -0.355689 0.402742 0.16936 -0.826197 
3967 2 133.964 -206.389 -317.546 0.50852 0.298731 -0.149048 -0.793695 
3950 2 101.988 -183.181 -233.077 0.299705 0.438225 -0.299159 0.792868 
3939 2 108.633 -167.761 -329.36 -0.926127 0.14972 -0.0388271 -0.344041 
3940 2 108.228 -164.286 -320.133 -0.194505 0.124841 -0.148467 -0.96153 
3941 2 106.25 -161.173 -310.965 0.676844 0.00907785 -0.180461 -0.713606 
3952 2 111.057 -198.638 -224.974 -0.724771 -0.300181 -0.572173 0.2392 
3951 2 107.077 -190.4 -228.73 -0.30504 0.0179205 -0.584601 0.751579 
3914 2 106.142 -200.243 -279.156 0.0081923 0.323545 0.044774 0.945117 
3937 1 127.342 -126.972 -344.037 -0.354139 -0.0626088 -0.0425544 -0.932124 
3915 2 112.648 -199.608 -271.632 -0.774477 0.279278 -0.203638 0.52983 
3916 2 118.357 -197.395 -263.85 -0.916848 0.0197821 -0.232328 -0.324071 
3917 2 122.537 -195.349 -255.133 -0.197706 -0.167496 -0.327387 -0.908667 
3918 2 127.011 -189.927 -248.104 0.635544 -0.357115 -0.107869 -0.675956 
3938 3 131.288 -125.596 -309.358 -0.326788 -0.0695873 -0.00039719 -0.942532 
3934 2 155.323 -90.4531 -319.93 -0.15725 -0.43604 0.858366 0.219884 
3933 2 159.559 -91.639 -311.03 -0.0235745 -0.907064 0.330281 0.259988 
3932 2 161.615 -93.2775 -301.556 0.133539 -0.868002 -0.476033 0.0461795 
3931 2 162.72 -97.7193 -292.768 0.0993258 -0.172168 -0.959111 -0.201492 
3919 2 130.944 -184.093 -241.149 0.854795 -0.414901 0.305334 0.0628791 
3920 2 135.336 -176.757 -236.475 0.470931 -0.00510393 0.580769 0.664007 
3921 2 140.84 -169.189 -233.153 -0.24333 0.556835 0.531498 0.590114 
3922 2 144.938 -160.276 -234.616 -0.592971 0.796583 -0.0612264 0.100462 
3923 2 147.591 -151.029 -237.074 -0.285853 0.490543 -0.756584 -0.324402 
3924 2 148.584 -143.518 -243.508 -0.0242632 -0.333258 -0.864856 -0.374667 
3925 2 151.706 -137.155 -250.443 0.351286 -0.854922 -0.250875 -0.287695 
3926 2 153.884 -129.669 -256.614 0.397054 -0.780349 0.478728 0.0649899 
3927 2 156.673 -122.935 -263.251 0.115076 -0.205056 0.934064 0.268763 
3928 2 157.848 -117.181 -271.25 -0.205232 0.642164 0.664147 0.323132 
3929 2 159.31 -110.181 -278.076 -0.35419 0.934039 0.0299923 0.0349503 
3930 2 160.763 -103.243 -284.879 -0.238093 0.557081 -0.773363 -0.186765 
3872 2 144.254 -121.587 -222.555 -0.537226 -0.484589 -0.316597 0.613456 
3871 2 147.918 -112.559 -223.988 0.17994 -0.0917094 -0.667021 0.717143 
3873 2 141.619 -130.593 -219.48 -0.768482 -0.624993 0.1198 -0.0668361 
3874 2 140.719 -140.211 -217.046 -0.443947 -0.288861 0.516337 -0.672953 
3875 2 139.139 -149.755 -214.809 0.197556 0.289678 0.510198 -0.785338 
3876 2 136.649 -158.977 -212.08 0.745772 0.522184 0.152299 -0.384648 
3867 2 164.219 -77.1737 -231.658 -0.420333 -0.0720417 0.63141 -0.647651 
3868 2 160.078 -86.01 -229.801 0.172559 0.374115 0.491286 -0.767398 