ITEM: TIMESTEP
10000000
ITEM: NUMBER OF ATOMS
4067
ITEM: BOX BOUNDS pp pp pp
-4.6310929470000001e+03 4.6704658980000004e+03
-4.6310929470000001e+03 4.6704658980000004e+03
-4.6310929470000001e+03 4.6704658980000004e+03
ITEM: ATOMS id type x y z c_q[1] c_q[2] c_q[3] c_q[4] 
119 2 -226.078 -820.867 -819.011 0.499691 0.469775 0.39872 0.608804 
118 2 -234.909 -818.233 -822.764 0.82193 0.0360164 0.54925 -0.146487 
117 2 -242.537 -813.319 -826.844 0.400299 -0.268043 0.504203 -0.716724 
116 2 -250.331 -808.056 -829.924 -0.373252 -0.567518 0.0864387 -0.72879 
115 2 -258.688 -805.078 -834.413 -0.829245 -0.307827 -0.401826 -0.23692 
114 2 -267.716 -802.049 -836.878 -0.63262 0.240084 -0.553069 0.486072 
113 2 -276.516 -798.813 -840.225 0.0338218 0.539058 -0.193366 0.819074 
112 2 -284.229 -793.284 -843.233 0.656062 0.544303 0.176722 0.492023 
111 2 -291.066 -788.458 -848.588 0.823348 0.14063 0.466577 -0.290907 
110 2 -298.075 -782.696 -852.606 0.217346 -0.304817 0.466257 -0.801531 
109 2 -304.456 -776.706 -857.149 -0.511761 -0.530106 0.0649059 -0.672961 
108 2 -309.844 -770.769 -862.995 -0.878671 -0.380593 -0.284501 -0.046311 
92 2 -253.014 -780.424 -838.458 -0.301427 0.837944 -0.349708 0.291026 
93 2 -246.377 -777.572 -845.289 -0.484384 0.2092 -0.836816 -0.146106 
94 2 -238.791 -773.594 -850.327 -0.0108397 -0.528782 -0.719595 -0.44995 
107 2 -313.62 -765.11 -870.207 -0.592567 -0.030371 -0.354911 0.722482 
106 2 -318.704 -758.98 -876.116 0.154139 0.315869 -0.298176 0.887445 
105 2 -322.553 -753.285 -883.26 0.779518 0.359399 0.0160481 0.512764 
95 2 -233.961 -767.622 -856.603 0.369932 -0.907816 -0.0170143 -0.196804 
96 2 -230.425 -760.605 -862.612 0.483482 -0.513478 0.623453 0.337479 
97 2 -227.648 -751.5 -865.333 -0.120597 0.109509 0.781715 0.601986 
104 3 -272.056 -750.484 -871.753 -0.484801 -0.502853 0.306785 -0.646522 
99 2 -231.33 -732.668 -868.691 -0.544656 0.706581 -0.225661 -0.39137 
100 2 -234.08 -723.208 -869.674 0.0283478 0.381662 -0.6673 -0.638938 
101 2 -238.771 -714.6 -870.872 0.538477 -0.244587 -0.709252 -0.383642 
102 2 -244.3 -706.555 -872.154 0.597524 -0.740963 -0.195066 0.236406 
103 1 -288.207 -721.009 -881.552 -0.460554 -0.527122 0.291182 -0.652108 
98 2 -228.187 -741.995 -868.055 -0.646038 0.596576 0.414332 0.234649 
91 2 -260.01 -779.443 -831.456 0.218159 0.792976 0.463134 0.330307 
90 2 -266.574 -779.573 -824.071 0.386194 0.154823 0.905127 0.0873472 
135 2 -214.908 -746.325 -827.821 -0.457557 0.186755 0.269582 -0.826492 
136 2 -220.483 -748.989 -820.09 0.369972 0.355239 0.0763828 -0.855039 
134 2 -208.319 -744.124 -834.841 -0.914531 -0.0571285 0.38512 -0.109783 
133 2 -201.521 -741.479 -841.542 -0.619584 -0.379136 0.170384 0.665839 
132 2 -194.222 -739.352 -847.753 0.0969907 -0.3867 -0.150026 0.904736 
130 1 -160.214 -758.861 -821.491 -0.692356 -0.100593 0.643216 -0.311122 
22 1 -364.593 -847.973 -682.181 -0.475086 0.437444 -0.638395 -0.418793 
49 1 -333.447 -825.178 -817.693 0.739294 -0.353645 0.321934 0.474065 
21 2 -322.251 -856.742 -701.087 -0.737492 -0.630742 0.238275 0.0386687 
20 2 -318.102 -847.781 -701.96 -0.366207 -0.54952 -0.370262 0.653319 
160 2 -242.277 -862.759 -763.729 -0.524044 0.818553 0.145419 0.184938 
161 2 -240.607 -853.662 -767.199 -0.482886 0.639624 -0.503281 -0.323125 
162 2 -239.949 -844.181 -769.931 -0.0105594 -0.0110082 -0.757456 -0.652708 
163 2 -240.044 -834.385 -771.405 0.5037 -0.604504 -0.424181 -0.448255 
159 2 -242.059 -871.844 -759.871 -0.278725 0.391733 0.717006 0.504737 
157 1 -225.698 -862.089 -716.711 0.564008 -0.820329 -0.0912832 0.0249669 
158 3 -231.279 -830.457 -730.578 0.519343 -0.848158 -0.0731845 0.0745325 
19 2 -314.993 -838.442 -701.5 0.229217 0.0355189 -0.703683 0.671586 
18 2 -311.753 -829.34 -699.151 0.584156 0.630586 -0.47421 0.190387 
17 2 -309.923 -819.708 -698.087 0.614804 0.701457 0.25843 -0.251373 
164 2 -238.79 -824.599 -771.948 0.752719 -0.625282 0.205995 -0.00159925 
155 2 -219.139 -823.99 -683.441 -0.758039 -0.610005 -0.0697838 -0.220005 
48 2 -286.856 -821.643 -811.256 0.257932 0.949792 -0.0458287 0.171072 
156 2 -215.576 -832.873 -681.071 -0.289051 -0.426104 0.454925 -0.726587 
120 2 -216.547 -820.863 -816.318 -0.0714942 0.607336 -0.0980681 0.785121 
121 2 -207.043 -821.742 -813.543 -0.625083 0.290321 -0.564044 0.454796 
123 2 -188.489 -823.836 -808.06 -0.329867 -0.449276 -0.295438 -0.775922 
122 2 -197.478 -823.247 -812.031 -0.803884 -0.158267 -0.546072 -0.174719 
124 2 -179.432 -822.408 -804.398 0.411152 -0.633972 0.0826017 -0.649777 
51 2 -378.128 -811.476 -811.152 -0.754189 0.634777 -0.0934545 0.139727 
52 2 -375.036 -802.044 -810.616 -0.550934 0.399854 -0.48438 -0.549514 
53 2 -373.462 -792.483 -808.689 0.0528764 -0.113289 -0.644479 -0.754332 
54 2 -372.33 -782.77 -807.389 0.570018 -0.641261 -0.250293 -0.448572 
55 2 -369.89 -773.124 -807.082 0.764451 -0.460516 0.451088 0.0076929 
30 2 -369.602 -772.209 -683.469 0.0109282 -0.724242 -0.463192 -0.510693 
29 2 -375.799 -778.292 -678.738 -0.362833 -0.00170238 -0.868757 -0.337061 
28 2 -381.08 -785.946 -675.474 -0.58111 0.65992 -0.476246 -0.00256263 
27 2 -383.894 -794.911 -672.667 -0.523781 0.749577 0.218559 0.340618 
56 2 -363.086 -766.026 -805.721 0.44679 0.123205 0.676122 0.572764 
26 2 -387.754 -803.357 -669.251 0.0188807 0.270688 0.767101 0.581316 
31 2 -361.758 -767.817 -687.595 0.230803 -0.839864 0.332926 -0.361275 
25 2 -393.139 -811.515 -668.072 0.572557 -0.319359 0.69499 0.295258 
89 2 -273.869 -780.906 -817.546 0.34216 -0.629613 0.66491 -0.210732 
154 2 -222.867 -815.38 -686.454 -0.65438 -0.271324 -0.503758 0.494367 
23 3 -351.619 -815.906 -687.796 -0.463422 0.407 -0.667279 -0.417528 
137 2 -225.785 -751.889 -812.291 0.916451 0.141513 -0.26669 -0.262616 
165 2 -236.057 -815.138 -770.67 0.489227 -0.229964 0.618395 0.570405 
16 2 -309.606 -809.908 -696.849 0.234606 0.280641 0.698066 -0.615552 
47 2 -289.275 -816.391 -803.34 0.293354 0.602416 0.733318 -0.115254 
61 2 -322.755 -739.032 -810.749 0.414271 -0.723275 0.276418 -0.478379 
62 2 -313.424 -735.986 -811.836 0.693161 -0.110346 0.710389 0.0519486 
57 2 -355.5 -759.671 -805.667 -0.184472 0.626716 0.327411 0.682641 
58 2 -348.251 -752.921 -805.383 -0.638077 0.596427 -0.405948 0.268959 
59 2 -339.356 -748.641 -805.777 -0.557593 0.0675604 -0.786851 -0.255717 
60 2 -330.758 -744.299 -808.177 -0.0415469 -0.625493 -0.476678 -0.616288 
88 2 -281.184 -781.461 -810.833 -0.016032 -0.91813 -0.0185442 -0.395521 
153 2 -226.967 -808.092 -691.943 -0.0694706 0.199667 -0.427846 0.87878 
63 2 -303.73 -733.974 -812.714 0.531351 0.458216 0.4378 0.56217 
64 2 -294.004 -733.728 -811.038 -0.10787 0.580788 -0.103973 0.800149 
65 2 -284.462 -733.542 -808.404 -0.647189 0.383172 -0.54508 0.370424 
66 2 -274.819 -732.684 -806.615 -0.685908 -0.180299 -0.616874 -0.341305 
46 2 -289.574 -812.455 -794.205 -0.0549054 -0.180648 0.957799 -0.216731 
45 2 -291.095 -809.712 -784.796 -0.113617 -0.847118 0.495133 -0.155971 
50 3 -330.085 -795.336 -799.753 0.769785 -0.35633 0.329816 0.414344 
166 2 -232.73 -805.893 -769.171 -0.118978 0.334085 0.450679 0.819219 
67 2 -265.223 -731.111 -804.72 -0.150134 -0.452532 -0.049415 -0.877629 
87 2 -286.812 -782.392 -802.728 -0.224074 -0.558822 -0.767573 -0.219864 
138 2 -230.98 -753.246 -803.975 0.839789 -0.19211 -0.212417 0.461224 
139 2 -236.231 -752.255 -795.683 0.147971 -0.352757 -0.15822 0.910293 
86 2 -291.623 -784.313 -794.363 -0.260866 0.157086 -0.95 -0.0690883 
140 2 -243.022 -754.04 -788.65 -0.653897 -0.402936 0.0542737 0.638057 
32 2 -354.12 -766.217 -693.791 0.40237 -0.247459 0.869516 -0.14424 
167 2 -228.303 -797.687 -765.97 -0.579207 0.601495 -0.146092 0.530453 
141 2 -248.821 -758.519 -782.016 -0.916223 -0.0611017 0.381343 -0.106675 
33 2 -346.628 -766.488 -700.21 0.177395 0.52761 0.755141 0.346296 
34 2 -340.383 -763.645 -707.349 -0.00997225 0.916793 -0.0428277 0.396934 
44 2 -293.294 -804.886 -776.367 -0.29153 -0.863331 -0.411585 0.0163767 
142 2 -255.306 -760.583 -774.834 -0.485872 0.151467 0.184397 -0.840823 
68 2 -256.938 -731.637 -799.269 0.611818 -0.329115 0.303686 -0.652025 
85 2 -296.024 -782.832 -785.556 -0.033228 0.844716 -0.476898 0.240663 
69 2 -249.336 -731.45 -792.914 0.934514 0.0118023 0.312759 0.169489 
70 2 -243.741 -730.517 -784.763 0.445756 0.252793 0.113887 0.851133 
84 2 -301.648 -779.899 -777.904 0.283016 0.848363 0.390702 0.218025 
43 2 -295.761 -797.61 -770.088 -0.192405 -0.176671 -0.903551 0.339652 
42 2 -300.049 -791.198 -763.899 0.0421747 0.542156 -0.717088 0.435974 
41 2 -303.874 -785.377 -756.945 0.272061 0.925865 -0.0438739 0.258517 
144 2 -262.119 -764.531 -756.732 0.950202 0.227254 0.0464523 -0.208119 
143 2 -259.442 -761.958 -765.908 0.418116 0.177358 0.0749486 -0.887754 
145 2 -261.865 -768.832 -747.829 0.728621 0.246965 -0.105873 0.630008 
146 2 -260.779 -773.516 -739.178 -0.0978814 0.112978 -0.334291 0.93054 
147 2 -257.776 -779.134 -731.627 -0.791899 -0.196259 -0.320623 0.481227 
148 2 -254.484 -785.319 -724.693 -0.894187 -0.300606 -0.162667 -0.289147 
150 2 -243.359 -792.161 -709.947 0.570147 -0.129549 0.393975 -0.709178 
149 2 -249.502 -789.494 -717.243 -0.25589 -0.35716 0.00439025 -0.898297 
151 2 -237.309 -796.076 -703.144 0.897046 0.295899 0.32211 0.0632256 
152 2 -231.121 -800.695 -696.904 0.586589 0.50371 -0.138407 0.618897 
40 2 -307.738 -779.476 -750.001 0.388026 0.56749 0.715567 -0.123913 
39 2 -311.132 -773.039 -743.23 0.0799607 -0.19664 0.90314 -0.373199 
38 2 -315.053 -767.464 -735.966 -0.195532 -0.811955 0.441963 -0.327361 
83 2 -308.775 -776.976 -771.722 0.417643 0.289224 0.861255 0.0127902 
37 2 -319.252 -763.234 -728.093 -0.277666 -0.890567 -0.343967 -0.107137 
82 2 -313.929 -771.539 -765.303 0.123902 -0.324497 0.853664 -0.388081 
36 2 -326.509 -762.086 -721.456 -0.406405 -0.237147 -0.880078 -0.0637174 
35 2 -333.375 -762.655 -714.373 -0.27613 0.658568 -0.656969 0.241728 
81 2 -316.856 -765.984 -757.652 -0.224084 -0.887652 0.313055 -0.252699 
78 2 -320.52 -748.482 -733.978 0.227179 0.68573 -0.651449 0.231902 
79 2 -319.906 -754.062 -742.205 -0.0770004 -0.0560053 -0.947664 0.304743 
80 2 -318.823 -760.033 -750.082 -0.352959 -0.771138 -0.520769 0.0978055 
77 3 -274.937 -749.527 -758.796 0.188333 0.857125 -0.468654 0.10115 
76 1 -275.494 -736.544 -726.204 0.18487 0.850483 -0.487306 0.0709504 
71 2 -238.511 -730.619 -776.34 -0.354294 0.131196 -0.129083 0.916843 
72 2 -235.016 -732.127 -767.207 -0.946687 -0.0648157 -0.0848259 0.303952 
73 2 -233.039 -733.131 -757.537 -0.826707 -0.101945 -0.0458564 -0.551416 
74 2 -231.128 -734.549 -747.85 -0.0433794 -0.0626069 -0.0346983 -0.996491 
75 2 -229.886 -734.055 -738.095 0.771239 -0.0553419 0.0123859 -0.634015 
15 2 -310.162 -800.919 -692.619 -0.218992 -0.39957 0.736146 -0.500475 
14 2 -312.226 -792.343 -688.13 -0.48451 -0.821234 0.206619 -0.219395 
13 2 -315.358 -783.418 -685.184 -0.553782 -0.552418 -0.560002 0.273055 
12 2 -319.903 -775.09 -682.577 -0.149589 0.137124 -0.789225 0.579607 
11 2 -324.01 -766.474 -680.13 0.392615 0.711173 -0.352354 0.464686 
168 2 -220.517 -792.129 -763.477 -0.831816 0.140774 -0.527806 -0.0984113 
10 2 -324.944 -756.654 -680.894 0.703702 0.68177 0.152749 -0.129078 
9 2 -322.917 -746.906 -680.723 0.295365 0.419651 0.589663 -0.623659 
215 2 -213.062 -716.284 -685.564 -0.825384 -0.489658 0.215011 0.18096 
216 2 -218.162 -723.13 -680.604 -0.636724 -0.0426297 0.559109 -0.529304 
217 2 -224.659 -729.657 -676.964 0.170561 0.208963 0.509545 -0.817073 
8 2 -319.524 -737.926 -678.25 -0.347287 -0.233752 0.745485 -0.518655 
7 2 -317.215 -728.521 -676.21 -0.625964 -0.717692 0.294372 -0.0801974 
218 2 -226.551 -738.589 -672.953 0.802735 0.422834 0.154812 -0.390974 
6 2 -315.527 -720.137 -671.133 -0.39673 -0.789677 -0.353155 0.307077 
169 2 -212.072 -789.372 -759.259 -0.461013 -0.324227 -0.424273 -0.708756 
219 2 -226.972 -746.924 -667.648 0.87194 0.270826 -0.0185872 0.407465 
125 2 -170.661 -818.193 -802.646 0.746583 -0.301943 0.591301 0.0425198 
214 2 -206.195 -709.774 -688.254 -0.269069 -0.534718 -0.216075 0.771356 
126 2 -161.912 -813.708 -801.247 0.3748 0.137018 0.551039 0.732876 
213 2 -201.302 -702.078 -692.01 0.310786 -0.0558247 -0.551424 0.772157 
194 2 -201.04 -751.366 -727.741 -0.845451 -0.387002 -0.152533 0.334926 
193 2 -201.252 -743.232 -733.29 -0.314207 -0.161097 -0.424652 0.833662 
195 2 -201.103 -758.802 -721.152 -0.845335 -0.338855 0.158622 -0.381347 
196 2 -201.261 -765.447 -713.892 -0.304889 -0.204357 0.424189 -0.827855 
197 2 -200.353 -773.438 -708.006 0.434268 0.141975 0.399022 -0.795007 
198 2 -199.012 -781.014 -701.71 0.922498 0.297159 0.164552 -0.183351 
192 2 -199.364 -735.07 -738.434 0.496056 0.210701 -0.485463 0.688374 
199 2 -196.916 -786.62 -693.858 0.729187 0.23201 -0.00996393 0.643707 
200 2 -193.708 -790.524 -685.395 -0.0344195 0.286157 -0.0248691 0.957241 
170 2 -203.55 -786.948 -754.834 0.270753 -0.558331 0.045329 -0.782882 
191 2 -195.695 -727.38 -743.494 0.864381 0.458885 -0.193919 -0.0683007 
190 2 -191.557 -718.717 -746.136 0.380314 0.451803 0.387168 -0.708051 
189 2 -185.589 -711.256 -748.839 -0.40053 0.144185 0.614214 -0.664476 
131 3 -188.015 -778.981 -814.743 -0.711152 -0.140759 0.630371 -0.277636 
188 2 -178.795 -704.238 -750.786 -0.718371 -0.287532 0.557359 -0.301031 
171 2 -194.755 -784.579 -750.877 0.791007 -0.31278 0.437864 -0.291122 
172 2 -185.739 -782.597 -747.295 0.65518 0.264793 0.538204 0.459305 
173 2 -176.217 -781.453 -744.776 0.118509 0.583004 0.0342969 0.803048 
127 2 -155.775 -806.676 -797.891 -0.397663 0.593719 0.222463 0.663228 
128 2 -149.792 -799.213 -795.529 -0.766618 0.496035 -0.390823 0.116207 
129 2 -142.6 -792.723 -793.725 -0.556201 0.0195167 -0.650855 -0.516379 
174 2 -166.596 -781.346 -742.339 -0.587727 0.412439 -0.330842 0.612384 
175 2 -157.977 -780.683 -737.629 -0.848683 0.033882 -0.485441 -0.207209 
176 2 -150.026 -778.473 -732.008 -0.367052 -0.269966 -0.320417 -0.830496 
177 2 -143.036 -775.488 -725.679 0.466404 -0.386358 0.00762819 -0.795699 
185 3 -155.691 -733.078 -726.276 0.517209 0.241503 -0.739957 0.355858 
187 2 -172.865 -696.341 -751.694 -0.666326 -0.655287 0.14289 0.32587 
186 2 -166.165 -689.127 -751.868 -0.0637841 -0.538459 -0.480992 0.688942 
184 1 -135.843 -705.077 -719.438 0.464777 0.25838 -0.748662 0.395888 
178 2 -136.849 -771.878 -718.937 0.902307 -0.344787 0.213615 -0.146055 
179 2 -131.487 -766.647 -712.423 0.64152 -0.0209711 0.386178 0.662479 
180 2 -126.752 -761.056 -705.789 -0.119804 0.143109 0.38458 0.904027 
181 2 -125.15 -753.49 -699.58 -0.651534 0.537103 0.117824 0.522629 
182 2 -121.617 -745.305 -695.317 -0.863211 0.390703 -0.235156 -0.216609 
183 2 -119.228 -737.682 -689.592 -0.412275 0.0680803 -0.445954 -0.79153 
201 2 -188.137 -789.981 -677.239 -0.798726 0.225236 -0.190394 0.524458 
202 2 -182.592 -788.093 -669.281 -0.935739 0.0559277 -0.233647 -0.258213 
24 2 -398.688 -819.532 -666.344 0.624042 -0.729858 0.179551 -0.213636 
5 2 -313.087 -712.086 -665.921 0.0145671 -0.224692 -0.846237 0.482892 
1 2 -297.931 -682.327 -645.194 -0.248943 -0.0417161 0.889475 -0.380947 
2 2 -302.284 -689.05 -650.945 0.219459 0.638873 0.575908 -0.460444 
4 2 -310.679 -703.841 -661.019 0.401255 0.464081 -0.719102 0.326367 
3 2 -306.077 -697.077 -655.368 0.419302 0.871218 -0.154454 -0.203245 
221 2 -223.124 -753.831 -649.722 -0.639573 0.191283 -0.0995155 0.737871 
220 2 -225.304 -751.58 -659.107 0.168574 0.139966 -0.0808679 0.972344 
222 2 -218.901 -753.465 -640.787 -0.939178 0.147268 -0.310235 -0.00318432 
223 2 -213.277 -750.623 -633.188 -0.619222 -0.224553 -0.298926 -0.690495 
224 2 -206.819 -749.505 -625.838 0.25343 -0.327335 0.0182898 -0.910105 
211 1 -163.597 -712.111 -665.471 -0.629975 -0.231042 0.645244 -0.365255 
212 3 -183.044 -741.108 -662.95 -0.639111 -0.268631 0.601794 -0.396507 
225 2 -200.555 -747.953 -618.279 0.861577 -0.241599 0.18016 -0.408482 
272 2 -202.064 -676.286 -538.907 0.857691 0.409137 0.289955 -0.113574 
226 2 -195.725 -745.147 -610.083 0.815995 0.0379321 0.379368 0.434504 
227 2 -189.729 -742.024 -602.659 0.110318 0.244159 0.279372 0.922045 
203 2 -178.309 -785.798 -660.653 -0.313598 -0.266387 -0.202225 -0.888706 
273 2 -197.931 -683.931 -534.186 0.591824 0.483294 -0.151907 0.626973 
274 2 -193.747 -691.527 -529.348 -0.122936 0.300735 -0.47915 0.815389 
204 2 -171.983 -783.605 -653.445 0.480592 -0.511076 0.0887693 -0.707073 
228 2 -184.562 -737.66 -595.364 -0.590376 0.385753 -0.0848019 0.703889 
245 2 -106.621 -778.888 -595.56 0.80806 0.286856 -0.445094 -0.258156 
244 2 -97.6476 -775.698 -598.322 0.139895 0.608138 0.0694538 -0.778314 
229 2 -178.23 -734.26 -588.634 -0.87351 0.17566 -0.449482 -0.0639553 
230 2 -170.766 -730.535 -583.285 -0.5269 -0.164246 -0.425663 -0.717085 
205 2 -163.972 -779.571 -649.281 0.781763 -0.350356 0.515827 -0.00446653 
206 2 -156.45 -773.652 -646.841 0.389898 0.0933191 0.550371 0.732367 
207 2 -150.988 -766.111 -643.356 -0.327524 0.497728 0.407695 0.691939 
208 2 -147.186 -757.201 -641.06 -0.702826 0.674692 -0.0949499 0.204475 
209 2 -143.233 -748.191 -640.235 -0.664731 0.253123 -0.592819 -0.377661 
246 2 -115.267 -781.225 -591.261 0.781147 -0.241926 -0.425173 0.387954 
247 2 -123.641 -781.15 -585.921 0.205826 -0.383374 0.0508251 0.898931 
248 2 -130.532 -778.849 -579.216 -0.653041 -0.123448 0.412048 0.623309 
210 2 -137.385 -740.41 -638.367 -0.166723 -0.251183 -0.593027 -0.746612 
231 2 -163.804 -725.943 -577.86 0.2273 -0.481098 -0.150207 -0.833257 
232 2 -156.525 -720.962 -573.372 0.786161 -0.473916 0.303906 -0.254943 
233 2 -149.261 -714.933 -570.24 0.709733 -0.129331 0.535042 0.439639 
234 2 -142.919 -708.569 -565.98 0.11236 0.454179 0.543708 0.696763 
235 2 -135.536 -702.025 -565.236 -0.500557 0.661683 0.0253924 0.55765 
236 2 -128.245 -695.475 -564.06 -0.733942 0.445682 -0.51133 -0.0351928 
238 1 -85.8534 -713.015 -582.177 -0.0324524 -0.515803 -0.455792 0.724671 
239 3 -111.73 -736.555 -580.482 -0.0582118 -0.577624 -0.404814 0.706461 
242 2 -81.6654 -764.414 -601.071 -0.738444 -0.375202 0.558518 -0.0445124 
243 2 -89.5181 -770.348 -600.053 -0.486252 0.160751 0.621383 -0.59296 
249 2 -137.43 -775.381 -573.048 -0.85953 0.360988 0.341426 -0.119683 
250 2 -143.973 -770.262 -567.709 -0.506183 0.470335 -0.098666 -0.716121 
251 2 -149.211 -764.139 -562.023 0.205946 0.00419677 -0.513896 -0.832754 
252 2 -150.433 -755.254 -557.928 0.676693 -0.587851 -0.259188 -0.359637 
253 2 -149.208 -745.519 -556.593 0.677272 -0.550043 0.364143 0.325814 
254 2 -147.887 -735.713 -555.919 0.170173 0.00915742 0.645493 0.74451 
255 2 -145.771 -726.188 -554.191 -0.523015 0.566825 0.225383 0.595288 
256 2 -141.175 -717.817 -551.651 -0.756799 0.528923 -0.383342 -0.023312 
257 2 -135.632 -709.795 -549.938 -0.476472 0.0537682 -0.637661 -0.602887 
258 2 -130.544 -701.423 -548.36 0.205126 -0.490721 -0.446058 -0.719826 
259 2 -125.551 -692.936 -547.361 0.596566 -0.722265 0.147644 -0.317243 
276 2 -180.911 -705.249 -523.201 -0.716143 -0.525696 -0.187335 -0.419151 
275 2 -187.825 -698.649 -525.7 -0.717654 -0.164311 -0.567618 0.368489 
241 2 -74.1749 -757.874 -600.973 -0.457903 -0.728316 0.0079967 0.509722 
237 2 -121.396 -688.497 -563.285 -0.358648 -0.178271 -0.672897 -0.621933 
260 2 -119.389 -685.25 -548.216 0.482617 -0.452231 0.657376 0.361145 
240 2 -66.3781 -751.683 -600.904 0.147708 -0.464968 -0.550064 0.677803 
288 2 -81.8874 -707.646 -529.608 -0.691433 0.584544 -0.289236 0.310759 
289 2 -74.2398 -701.543 -528.253 -0.635923 0.216807 -0.655096 -0.345609 
290 2 -67.7111 -694.035 -527.977 -0.127251 -0.359715 -0.644016 -0.663065 
291 2 -61.3597 -686.425 -528.844 0.399326 -0.732838 -0.187404 -0.518042 
287 2 -88.4536 -715.147 -529.519 -0.237761 0.609027 0.373689 0.657961 
286 2 -95.4899 -721.756 -527.584 0.365234 0.155245 0.772057 0.496419 
285 2 -103.347 -726.79 -524.466 0.567205 -0.545809 0.612155 -0.0750807 
261 2 -116.504 -676.245 -551.053 -0.09961 0.214911 0.768053 0.594967 
284 2 -112.58 -729.647 -522.413 0.223828 -0.787403 0.0640813 -0.570781 
277 2 -173.936 -711.607 -520.088 -0.110392 -0.4849 0.339438 -0.798415 
283 2 -121.846 -731.313 -519.134 -0.354589 -0.584293 -0.546882 -0.483516 
282 2 -131.089 -731.756 -515.564 -0.582364 0.0256718 -0.812519 0.00233735 
271 2 -203.542 -668.451 -544.74 0.465445 0.170009 0.404447 -0.768687 
262 2 -115.281 -666.716 -553.48 -0.520642 0.722631 0.336981 0.305254 
278 2 -167.017 -717.833 -516.624 0.530431 -0.0941061 0.652019 -0.533534 
314 2 -206.024 -725.745 -516.477 -0.646095 0.599155 -0.122398 -0.456721 
313 2 -201.126 -734.193 -515.112 -0.648294 0.594163 0.465241 0.101171 
279 2 -158.801 -723.186 -515.504 0.75172 0.396525 0.485543 0.204774 
266 3 -160.301 -664.742 -553.734 -0.704347 -0.407547 0.325444 -0.481547 
269 2 -203.459 -652.813 -556.738 -0.869524 -0.381674 0.183074 -0.254433 
270 2 -204.176 -660.262 -550.246 -0.25804 -0.17895 0.405029 -0.858687 
268 2 -203.514 -645.461 -563.356 -0.773649 -0.316044 -0.225996 0.500508 
267 2 -202.198 -639.335 -571.083 -0.0186781 -0.0432555 -0.31017 0.949513 
263 2 -114.131 -657.449 -556.563 -0.541077 0.711176 -0.432212 -0.121065 
264 2 -111.464 -648.716 -560.454 -0.242937 0.0786012 -0.826147 -0.50228 
265 1 -155.235 -634.437 -570.547 -0.704074 -0.361911 0.363369 -0.491185 
3075 2 -509.245 614.551 -521.482 0.760581 0.332442 0.309685 0.463783 
3019 1 -395.931 615.902 -606.491 0.263217 -0.335278 0.319004 -0.846488 
3073 1 -497.293 655.506 -541.687 -0.428314 -0.499833 -0.030377 -0.752191 
3072 2 -466.621 689.486 -553.132 0.563358 -0.663394 -0.408652 0.274845 
3018 2 -410.322 633.873 -565.342 -0.421769 0.477833 0.720861 -0.272299 
3071 2 -458.193 684.614 -551.304 0.545388 -0.00306172 -0.771856 -0.326772 
3017 2 -401.549 634.232 -560.734 -0.481111 -0.288247 0.815253 0.144253 
3016 2 -392.706 635.69 -556.502 -0.228525 -0.828732 0.259015 0.44033 
3015 2 -383.47 634.571 -552.997 0.31361 -0.734471 -0.380563 0.466233 
3014 2 -374.616 632.148 -549.495 0.551369 -0.28986 -0.782023 0.0203323 
3068 2 -435.407 666.699 -544.802 -0.648321 0.444787 0.617653 0.0186834 
3069 2 -443.172 672.52 -546.884 -0.45446 0.770826 0.0849593 -0.438265 
3070 2 -450.974 678.26 -549.002 -0.0202086 0.54786 -0.56325 -0.618216 
3067 2 -430.38 659.028 -540.982 -0.152787 -0.246571 0.788289 0.542641 
3066 2 -425.458 650.925 -538.229 0.383271 -0.754438 0.270526 0.459067 
3065 2 -421.752 642.058 -535.605 0.592592 -0.631496 -0.485223 -0.120856 
3064 2 -417.967 633.489 -532.231 0.260371 -0.0489902 -0.815799 -0.51408 
3074 3 -468.112 646.159 -524.557 -0.470592 -0.489932 -0.0820682 -0.729229 
3063 2 -416.607 623.901 -529.844 -0.423693 0.615778 -0.487224 -0.451569 
3062 2 -416.79 614.154 -528.314 -0.615783 0.780061 0.0622677 0.0918642 
3061 2 -416.771 604.376 -526.924 -0.325383 0.40497 0.624924 0.582748 
3013 2 -367.034 627.698 -544.891 0.258012 0.395516 -0.752602 -0.458897 
3060 2 -418.069 594.734 -524.882 0.326503 -0.352535 0.684981 0.547645 
3020 3 -371.37 605.089 -584.125 0.232464 -0.334618 0.326231 -0.852974 
3021 2 -365.618 592.719 -634.244 -0.566385 -0.313224 -0.00019933 -0.762299 
3059 2 -419.947 585.761 -521 0.582173 -0.795331 0.168305 -0.0139879 
3076 2 -501.446 612.528 -515.763 0.137052 0.463658 0.0781703 0.871853 
3058 2 -422.467 578.235 -515.031 0.217027 -0.66829 -0.604169 -0.375856 
3012 2 -360.734 621.416 -540.439 -0.335753 0.82135 -0.138564 -0.439835 
3022 2 -361.421 588.602 -626.293 0.226195 -0.259509 0.297229 -0.890587 
3033 2 -359.357 554.836 -529.735 -0.71779 -0.00607893 -0.0574584 0.693858 
3034 2 -358.933 553.902 -519.934 -0.992391 -0.0210747 -0.0313433 -0.117191 
3032 2 -359.394 557.06 -539.385 0.0569195 0.0459176 -0.128791 0.988971 
3031 2 -358.143 557.105 -549.194 0.854981 -0.0391235 -0.0504673 0.514714 
3023 2 -355.403 584.373 -619.621 0.858912 0.212948 0.30009 -0.356189 
3030 2 -355.65 559.531 -558.412 0.915531 0.145609 -0.0813101 -0.366046 
3029 2 -353.531 559.342 -568.045 0.249091 0.0962306 -0.0739318 -0.960847 
3011 2 -354.882 616.107 -534.51 -0.411639 0.602211 0.683978 -0.00827623 
3010 2 -347.671 611.802 -529.148 -0.356581 -0.177669 0.873722 0.279094 
3028 2 -351.926 560.924 -577.583 -0.625782 -0.00481701 0.119339 -0.7708 
3024 2 -351.986 579.084 -612.202 0.860321 0.263067 -0.0571485 0.432871 
3025 2 -350.769 573.732 -603.905 0.159601 0.0839552 -0.293622 0.938757 
3027 2 -351.418 564.095 -586.919 -0.990256 -0.138471 0.0146173 0.00205088 
3026 2 -350.617 568.183 -595.83 -0.607706 -0.174842 -0.165426 0.756808 
3009 2 -341.008 608.538 -522.612 0.0438268 -0.873648 0.293746 0.385398 
3008 2 -333.486 606.895 -516.405 0.268891 -0.802722 -0.443362 0.29456 
317 2 -217.764 -699.736 -508.456 0.76391 -0.547873 -0.148608 0.306908 
318 2 -223.338 -692.271 -505.054 0.219616 -0.480005 0.336607 0.779782 
316 2 -213.192 -708.17 -510.88 0.638978 -0.274156 -0.542061 -0.471928 
315 2 -209.223 -716.74 -513.767 0.0139367 0.22563 -0.53038 -0.817064 
319 1 -210.907 -694.481 -459.553 0.555078 0.673952 0.472871 0.118617 
281 2 -140.489 -730.048 -513.105 -0.342449 0.567523 -0.558706 0.498491 
280 2 -149.76 -726.683 -513.539 0.254377 0.701085 0.0376562 0.665097 
312 2 -195.218 -741.837 -513.18 -0.386104 -0.04087 0.760125 0.521021 
311 2 -188.947 -748.429 -509.408 0.102369 -0.687954 0.474499 0.539527 
310 2 -181.472 -754.069 -506.213 0.492697 -0.764043 -0.29838 0.290616 
309 2 -172.474 -756.148 -502.786 0.544833 -0.139783 -0.82618 -0.0323199 
308 2 -163.037 -756.741 -499.8 0.409289 0.564337 -0.578355 -0.423689 
307 2 -154.463 -756.506 -494.858 -0.0249058 0.858533 0.0866504 -0.50477 
306 2 -145.69 -755.177 -490.463 -0.378323 0.448661 0.729423 -0.35145 
305 2 -137.457 -752.618 -485.495 -0.497685 -0.268521 0.824529 -0.018913 
304 2 -130.792 -748.165 -479.743 -0.359494 -0.847536 0.281851 0.270197 
293 3 -87.5779 -703.9 -487.549 0.661007 0.731915 -0.15489 -0.0581388 
303 2 -124.233 -744.143 -473.505 -0.0689871 -0.793054 -0.411618 0.443708 
302 2 -117.553 -740.528 -467.158 0.34122 -0.210774 -0.882129 0.246966 
301 2 -111.058 -735.552 -461.602 0.45501 0.590993 -0.663692 -0.0566299 
326 2 -149.966 -716.604 -452.818 0.196256 -0.884378 -0.163425 -0.390705 
325 2 -156.824 -718.517 -445.942 -0.269816 -0.399613 -0.829521 -0.281787 
300 2 -104.759 -730.671 -455.749 0.204807 0.89527 0.137723 -0.370916 
299 2 -100.767 -723.336 -450.339 -0.0183821 0.460822 0.74832 -0.476782 
298 2 -98.0349 -714.671 -446.41 -0.343283 -0.370932 0.760642 -0.407418 
320 3 -190.52 -718.625 -474.572 0.549447 0.64988 0.518401 0.0838138 
321 2 -187.662 -713.253 -423.085 0.508087 0.0641164 0.857944 -0.0408625 
322 2 -179.195 -715.129 -427.807 0.389699 0.77166 0.398719 0.306102 
323 2 -171.406 -718.858 -432.801 -0.0903158 0.856883 -0.291593 0.415413 
324 2 -163.786 -720.246 -439.033 -0.371487 0.410213 -0.830908 0.0575683 
297 2 -96.8088 -705.165 -443.953 -0.614115 -0.761786 0.202206 -0.0407154 
296 2 -97.0056 -695.381 -442.87 -0.495244 -0.585974 -0.485803 0.418763 
292 1 -77.3073 -670.411 -487.421 0.73619 0.667261 -0.0762858 -0.0834774 
327 2 -143.915 -712.465 -459.409 0.522746 -0.676348 0.510824 0.0913699 
328 2 -139.717 -704.53 -463.629 0.309391 -0.0346942 0.797524 0.516749 
329 2 -134.915 -696.391 -466.515 -0.27625 0.516275 0.564942 0.581366 
330 2 -131.963 -687.048 -468.063 -0.705635 0.687546 -0.0757506 0.153696 
295 2 -97.2887 -685.384 -443.143 0.0255476 0.0294619 -0.681029 0.731217 
294 2 -97.5907 -675.738 -445.133 0.584178 0.479266 -0.407291 0.512986 
331 2 -129.042 -677.57 -467.308 -0.505394 0.497157 -0.529528 -0.465845 
332 2 -128.306 -667.608 -467.518 -0.0118101 -0.106069 -0.604393 -0.789506 
372 2 -238.314 -629.453 -390.524 -0.936305 0.143426 0.31212 -0.0730907 
371 2 -232.225 -632.017 -397.985 -0.561427 -0.15548 0.30664 0.752726 
370 2 -225.428 -633.461 -405.046 0.0965795 -0.392121 0.0380246 0.914039 
369 2 -219.01 -634.945 -412.439 0.799853 -0.24679 -0.267577 0.477214 
368 2 -210.859 -637.209 -417.621 0.81765 0.0515764 -0.503592 -0.274194 
367 2 -202.448 -639.884 -422.06 0.29352 0.406723 -0.335528 -0.797398 
333 2 -126.388 -658.149 -465.463 0.612058 -0.500897 -0.371781 -0.486072 
366 2 -192.87 -642.119 -423.106 -0.358544 0.658664 0.182135 -0.635952 
365 2 -183.226 -643.579 -425.146 -0.757502 0.232337 0.590026 -0.155174 
374 3 -187.571 -633.027 -379.866 -0.214504 -0.551231 -0.763152 -0.260253 
359 2 -124.61 -643.5 -431.429 -0.206781 0.59385 0.238103 -0.740196 
356 2 -95.047 -643.837 -430.82 -0.0823342 -0.726086 0.0434619 0.681271 
355 2 -86.1986 -642.199 -426.704 0.32482 -0.559259 -0.628739 0.431751 
334 2 -125.476 -648.446 -463.819 0.741832 -0.650399 0.160864 0.028088 
335 2 -123.267 -638.882 -462.598 0.466728 -0.312644 0.585203 0.584771 
364 2 -173.641 -643.571 -427.438 -0.635333 -0.36244 0.475561 0.488702 
363 2 -163.924 -644.04 -429.295 0.0260365 -0.624461 0.0115966 0.780536 
336 2 -121.583 -629.204 -461.62 -0.123824 0.25357 0.599996 0.748581 
337 2 -119.154 -619.692 -459.969 -0.692193 0.659657 0.116001 0.268823 
338 2 -116.767 -610.203 -458.588 -0.613745 0.556203 -0.409287 -0.382673 
339 2 -115.346 -600.385 -457.688 -0.0326762 0.0145518 -0.753289 -0.656716 
357 2 -104.888 -644.032 -432.04 -0.625642 -0.391421 0.575287 0.352714 
358 2 -114.723 -643.864 -431.817 -0.700559 0.286792 0.597638 -0.264189 
360 2 -134.439 -643.926 -429.911 0.372805 0.623724 -0.332112 -0.601404 
361 2 -144.291 -643.733 -430.18 0.66244 0.0804365 -0.744175 -0.0301317 
362 2 -154.136 -644.326 -430.604 0.552749 -0.44841 -0.468322 0.523518 
388 2 -108.598 -559.123 -400.251 -0.12583 -0.0139663 -0.836241 -0.533547 
389 2 -106.277 -550.249 -403.934 0.382121 -0.630718 -0.546201 -0.397295 
390 2 -105.012 -541.158 -407.664 0.402883 -0.901709 0.0921446 0.126943 
391 2 -105.733 -533.191 -413.489 0.242744 -0.510847 0.749022 0.345076 
400 1 -152.367 -545.944 -474.389 0.421979 0.0957916 0.132523 0.891737 
401 3 -142.87 -539.792 -441.251 0.413466 0.0885569 0.114797 0.898902 
402 2 -168.889 -583.547 -451.181 0.0635336 -0.0129914 0.226339 0.971887 
403 2 -169.224 -579.427 -442.245 -0.735774 0.0526875 0.119195 0.66457 
404 2 -170.334 -577.126 -432.759 -0.947835 0.261197 -0.0245671 -0.181055 
405 2 -170.843 -572.515 -424.085 -0.397555 -0.0317328 -0.366443 -0.840632 
406 2 -167.258 -566.729 -416.882 0.45421 -0.247861 -0.125109 -0.846526 