ITEM: TIMESTEP
10000000
ITEM: NUMBER OF ATOMS
4067
ITEM: BOX BOUNDS pp pp pp
-4.6310929470000001e+03 4.6704658980000004e+03
-4.6310929470000001e+03 4.6704658980000004e+03
-4.6310929470000001e+03 4.6704658980000004e+03
ITEM: ATOMS id type x y z c_q[1] c_q[2] c_q[3] c_q[4] 
2022 2 -170.9 -852.221 -432.307 -0.760318 0.333297 -0.0558666 -0.554715 
2023 2 -173.519 -847.031 -424.246 -0.0484766 0.24245 -0.286282 -0.925695 
2024 2 -177.464 -841.168 -417.384 0.657415 -0.172796 -0.305329 -0.666874 
1933 2 -68.1722 -845.294 -367.952 0.136862 -0.387867 -0.15233 0.898679 
2025 2 -179.732 -835.23 -409.809 0.876609 -0.438566 -0.101164 0.170244 
2026 2 -182.848 -827.982 -403.831 0.455495 -0.336301 0.378722 0.732117 
1932 2 -59.8997 -844.408 -373.262 0.729851 -0.231261 -0.432327 0.476371 
2027 2 -184.307 -819.771 -398.554 -0.190834 0.172325 0.491639 0.831972 
1934 2 -75.8308 -846.964 -362.011 -0.68269 -0.329605 0.203175 0.61969 
1913 3 70.1021 -890.85 -382.978 0.079957 -0.531924 0.345805 0.768819 
1928 2 -21.5988 -845.599 -380.48 -0.813108 0.0953387 0.572978 0.0382528 
1927 2 -12.3043 -848.624 -382.586 -0.487045 -0.362751 0.526044 0.595379 
1926 2 -3.39643 -852.394 -380.474 0.135389 -0.7767 0.107785 0.605632 
1904 2 66.7436 -841.329 -378.09 0.203221 0.944394 -0.127933 0.22462 
1905 2 70.2237 -845.851 -386.251 -0.0652111 0.515394 -0.814135 0.259423 
1903 2 63.98 -835.699 -370.288 0.316553 0.651231 0.680087 -0.114781 
1906 2 74.1499 -849.403 -394.582 -0.31397 -0.260324 -0.910677 0.0657437 
1929 2 -30.8255 -843.912 -377.352 -0.389434 0.619694 0.366632 -0.574371 
1930 2 -40.7287 -843.322 -377.222 0.273808 0.624309 -0.233604 -0.693322 
1931 2 -50.5301 -843.965 -376.299 0.76722 0.182159 -0.574538 -0.21931 
1925 2 3.36602 -859.356 -378.207 0.596912 -0.647455 -0.465181 0.0900298 
1924 2 10.3043 -866.411 -378.405 0.48875 0.0334326 -0.70768 -0.509112 
1923 2 16.7963 -873.767 -377.496 -0.0812855 0.533848 -0.498293 -0.678309 
1907 2 79.4913 -852.094 -402.44 -0.358361 -0.853835 -0.26458 -0.269334 
1922 2 22.6351 -881.332 -374.923 -0.518356 0.800115 0.072845 -0.292944 
1921 2 26.4231 -889.446 -370.71 -0.467619 0.517827 0.661143 0.275823 
1908 2 85.6617 -856.994 -408.433 -0.106409 -0.695769 0.475353 -0.527848 
1902 2 61.9876 -829.027 -363.233 0.0847498 -0.162563 0.912935 -0.364609 
1909 2 92.1711 -863.513 -412.145 0.380841 0.00327584 0.806308 -0.452568 
1920 2 29.2431 -897.603 -365.782 -0.116728 -0.051411 0.874051 0.468792 
1919 2 35.0948 -904.508 -361.742 0.194737 -0.756499 0.396137 0.482558 
1910 2 98.2183 -870.736 -414.948 0.556143 0.581961 0.590172 0.0610128 
1912 1 96.1518 -913.207 -390.112 0.0942781 -0.511178 0.373465 0.768331 
1911 2 105.234 -876.764 -418.593 0.307039 0.816158 -0.106212 0.47784 
1979 2 -107.535 -804.506 -372.634 -0.504945 0.196887 0.102315 -0.834145 
1978 2 -102.532 -805.233 -381.249 -0.957087 0.0742315 0.263255 -0.0957672 
2020 1 -159.699 -818.415 -463.262 0.239154 -0.11486 0.199061 0.943391 
2033 2 -187.157 -762.512 -387.972 0.402782 -0.367136 0.521663 0.656388 
2034 2 -188.248 -752.792 -386.093 -0.296233 0.135144 0.594537 0.735192 
2032 2 -185.357 -772.121 -389.675 0.788268 -0.609927 -0.0810704 -0.00712137 
2031 2 -185.205 -781.927 -389.842 0.400757 -0.376844 -0.574009 -0.606544 
2030 2 -185.213 -791.788 -389.703 -0.245765 0.258201 -0.662391 -0.658916 
2035 2 -189.598 -743.301 -383.428 -0.769323 0.485909 0.264695 0.319328 
2036 2 -190.574 -734.065 -380.097 -0.709776 0.491418 -0.382201 -0.329618 
2037 2 -188.83 -724.726 -377.197 -0.207795 0.0542888 -0.535406 -0.816832 
2038 2 -188.312 -715.71 -373.031 0.524199 -0.440721 -0.357649 -0.634877 
2039 2 -187.179 -706.628 -369.313 0.846525 -0.517584 0.0794482 0.0958682 
2021 3 -164.342 -800.711 -433.511 0.198612 -0.0897877 0.2576 0.941347 
2019 2 -154.749 -773.428 -476.601 0.0295773 0.719009 0.68886 -0.0873097 
2018 2 -153.363 -771.614 -466.97 -0.066102 -0.0557962 0.992697 -0.08408 
2017 2 -151.285 -769.035 -457.643 -0.178588 -0.793069 0.581407 0.0333854 
2028 2 -183.742 -810.857 -394.283 -0.717782 0.524837 0.308391 0.337979 
2029 2 -184.06 -801.148 -392.297 -0.740958 0.567093 -0.160499 -0.321911 
2016 2 -147.967 -765.168 -449.265 -0.131127 -0.901608 -0.306113 0.276049 
2015 2 -144.691 -761.471 -440.723 0.108637 -0.226635 -0.929423 0.270197 
2013 2 -144.541 -760.725 -420.971 -0.0468475 0.997111 0.058749 0.0111396 
2012 2 -144.876 -761.457 -411.079 0.041264 0.563784 0.823536 0.0472478 
2014 2 -144.348 -760.141 -430.898 0.0740005 0.590734 -0.800313 0.0711129 
2011 2 -144.07 -761.132 -401.269 -0.0385417 -0.262343 0.963717 0.0306665 
2010 2 -143.89 -759.173 -391.523 -0.0840898 -0.907475 0.410568 -0.0291763 
2009 2 -141.679 -757.304 -381.957 -0.0116853 -0.881851 -0.443853 0.158732 
2008 2 -135.511 -756.507 -374.347 0.299989 -0.25904 -0.907291 0.140455 
2007 2 -128.435 -755.421 -367.53 0.356101 0.523922 -0.748044 -0.197808 
2076 2 -135.754 -700.765 -370.587 -0.411288 0.2479 -0.101684 -0.871234 
1977 2 -97.6302 -804.032 -389.773 -0.63687 -0.243892 0.125118 0.720596 
1976 2 -91.7942 -802.013 -397.507 0.198196 -0.267627 -0.136826 0.932938 
1975 2 -87.3691 -797.788 -405.199 0.792515 0.0692325 -0.320655 0.514108 
1974 2 -82.9346 -793.524 -412.948 0.896807 0.301889 -0.145667 -0.288757 
1973 2 -79.6458 -788.318 -420.681 0.291683 0.240056 0.22427 -0.89833 
1972 2 -77.8026 -782.797 -428.617 -0.571167 -0.0944224 0.271742 -0.768771 
1971 2 -75.5068 -777.431 -436.594 -0.948978 -0.293791 0.10924 0.0345493 
1970 2 -72.1309 -772.413 -444.433 -0.583107 -0.299146 -0.12177 0.745433 
1969 2 -67.5495 -766.295 -450.779 0.322407 -0.123987 -0.369808 0.86251 
1968 2 -63.6509 -759.987 -457.31 0.837552 0.272752 -0.331999 0.337476 
1980 2 -111.618 -803.98 -363.643 0.301926 0.22094 -0.151999 -0.914835 
2006 2 -120.643 -757.268 -361.636 -0.0518941 0.891676 -0.0997979 -0.438476 
2040 2 -186.478 -697.585 -365.435 0.472112 -0.20745 0.451663 0.728063 
2077 2 -138.925 -697.186 -361.971 0.442833 -0.00915025 -0.254571 -0.859656 
1967 3 -49.4049 -757.221 -407.366 0.314562 0.175151 -0.4635 0.809655 
1965 2 -39.3996 -712.818 -382.361 0.586757 -0.644274 -0.471886 -0.133977 
1964 2 -35.9558 -721.603 -379.365 0.253396 -0.014105 -0.805494 -0.535511 
1963 2 -32.8523 -729.824 -374.687 -0.226045 0.664736 -0.574076 -0.421267 
1858 1 56.7008 -792.219 -468.853 -0.267997 0.414931 0.165518 0.853589 
1857 2 28.0597 -758.452 -452.601 -0.464534 -0.812576 0.164952 0.310997 
1856 2 34.3404 -751.671 -448.994 -0.0211772 -0.587639 -0.590045 0.553244 
1855 2 40.9483 -745.638 -444.879 0.419755 0.090612 -0.857266 0.284062 
1859 3 76.8477 -775.108 -445.896 -0.230424 0.389586 0.141146 0.880457 
1854 2 48.7164 -740.733 -441.171 0.465026 0.714581 -0.478105 -0.211046 
1853 2 57.4447 -736.795 -438.473 0.0480106 0.767711 0.211299 -0.603048 
1852 2 66.488 -732.796 -437.998 -0.459591 0.286686 0.668352 -0.509797 
1851 2 76.2594 -731.549 -436.868 -0.653061 -0.244267 0.701424 0.14782 
1850 2 85.6204 -730.843 -433.663 -0.208741 -0.78223 0.253939 0.529205 
1966 1 -50.7831 -727.39 -425.716 0.302458 0.173746 -0.436487 0.829344 
1962 2 -30.6312 -738.824 -371.14 -0.558567 0.824042 0.0256884 -0.091089 
1961 2 -29.5677 -748.354 -368.543 -0.439909 0.50628 0.595443 0.442275 
1960 2 -29.6682 -757.941 -366.21 0.077109 -0.133324 0.767279 0.622544 
1849 2 95.3181 -728.792 -432.797 0.20002 -0.636646 -0.386571 0.636582 
1959 2 -26.8075 -767.283 -364.541 0.493288 -0.730431 0.252562 0.399186 
1958 2 -25.9598 -776.718 -361.877 0.57886 -0.690013 -0.384521 -0.202353 
1860 2 97.2975 -816.233 -470.085 0.933534 -0.182231 0.230267 -0.205628 
1861 2 102.004 -813.587 -461.723 0.733982 0.00366264 0.313072 0.602696 
1848 2 104.707 -726.139 -431.389 0.597283 -0.0579286 -0.756765 0.259238 
1862 2 106.122 -810.016 -453.461 -0.0204765 0.163039 0.196958 0.966544 
1863 2 108.923 -806.124 -444.776 -0.729866 0.176333 0.0476657 0.658733 
1864 2 111.133 -802.71 -435.777 -0.980155 0.137863 -0.0201767 -0.141006 
1865 2 110.895 -799.736 -426.311 -0.424832 0.229192 -0.103208 -0.869676 
1866 2 108.174 -796.666 -417.32 0.427921 -0.0263727 -0.117236 -0.895792 
1867 2 107.399 -793.975 -407.76 0.950849 -0.200756 -0.17541 -0.157528 
1847 2 113.368 -722.02 -429.02 0.569525 0.581735 -0.545143 -0.20011 
1868 2 104.575 -789.877 -399.228 0.751765 -0.312362 0.122828 0.56762 
1869 2 102.819 -784.087 -391.37 0.0495982 -0.0536713 0.310258 0.947839 
1870 2 102.546 -778.19 -383.494 -0.776323 0.033781 0.0324083 0.628594 
1871 2 102.007 -777.261 -373.556 -0.967375 -0.0384642 -0.108874 -0.225504 
1846 2 120.99 -717.72 -424.186 0.20131 0.859673 0.0774282 -0.463078 
1845 2 127.368 -713.489 -417.847 -0.142494 0.48443 0.755543 -0.417347 
1844 2 132.219 -710.754 -409.715 -0.243581 -0.247 0.935016 -0.0735075 
1843 2 136.788 -709.566 -400.926 -0.140587 -0.883952 0.400087 0.196966 
1842 2 140.949 -709.46 -391.876 0.0984847 -0.873101 -0.428628 0.210415 
1841 2 145.255 -709.405 -382.973 0.21589 -0.259313 -0.939461 0.0596784 
1840 2 149.97 -707.833 -374.421 0.212689 0.686902 -0.686283 -0.109291 
1839 2 156.458 -704.418 -367.844 0.153567 0.919013 0.0518784 -0.359361 
1872 2 104.363 -777.396 -363.925 -0.332384 -0.198307 -0.0659397 -0.9197 
1820 2 90.7756 -648.296 -371.484 -0.509667 0.599437 -0.594328 0.1664 
1819 2 83.0542 -650.967 -365.88 -0.0425593 0.862432 0.177852 0.471983 
1821 2 99.2137 -644.433 -374.836 -0.517321 -0.125492 -0.813339 -0.234758 
1832 3 164.223 -659.894 -367.969 -0.289105 -0.826642 -0.0457485 0.480612 
1822 2 108.362 -642.327 -378.284 -0.17788 -0.70413 -0.445691 -0.523373 
1828 2 159.696 -622.111 -395.589 -0.631464 -0.22083 -0.61036 -0.424203 
1827 2 150.422 -625.39 -395.851 -0.661756 0.406109 -0.60176 0.187187 
1826 2 142.243 -630.467 -393.779 -0.247689 0.77183 0.0888276 0.578824 
1825 2 134.465 -635.641 -390.553 0.261664 0.409571 0.704903 0.516619 
1829 2 168.873 -619.019 -393.588 -0.0542505 -0.642251 -0.233521 -0.728037 
1830 2 178.432 -616.637 -392.91 0.586785 -0.52887 0.413062 -0.453167 
1824 2 126.265 -639.039 -386.101 0.525989 -0.258508 0.80912 0.0428211 
1823 2 117.159 -640.241 -382.371 0.24778 -0.790004 0.303315 -0.471699 
3554 2 19.2538 945.478 -392.031 0.161227 0.731298 -0.358345 0.557493 
3555 2 26.3233 939.356 -395.379 -0.492947 0.261675 -0.70706 0.434275 
3556 2 35.4447 935.816 -397.015 -0.631633 -0.354927 -0.664088 -0.184537 
3557 2 45.0331 933.536 -397.861 -0.369164 -0.781897 -0.08914 -0.494377 
3558 2 53.2569 928.664 -400.511 0.171843 -0.532184 0.562846 -0.60865 
3559 1 79.0656 968.092 -400.657 -0.754628 -0.0125061 0.589531 0.287808 
3642 2 69.6774 947.991 -369.203 -0.823914 0.400354 -0.400378 0.02408 
3643 2 76.3369 954.237 -365.404 -0.544568 -0.0471147 -0.559655 -0.622906 
3553 2 12.6264 952.429 -389.647 0.565792 0.734403 0.316353 0.201128 
3552 2 7.45863 958.503 -383.67 0.374372 0.330667 0.829815 -0.248823 
3551 2 2.7257 963.141 -376.382 0.0660006 -0.535712 0.763683 -0.354183 
3560 3 47.9755 978.964 -388.855 -0.759805 0.00744157 0.577762 0.298046 
3550 2 -1.22981 968.366 -368.983 -0.255924 -0.927964 0.0830509 -0.257852 
3549 2 -6.83734 974.964 -364.189 -0.500258 -0.58709 -0.634775 0.0461148 
3644 2 83.1224 960.831 -362.412 0.224627 -0.471466 -0.367065 -0.769757 
3561 2 85.5621 1014.42 -394.744 0.725516 0.116066 -0.545548 -0.403153 
3562 2 76.6755 1017.31 -391.411 0.744788 -0.306364 -0.432359 0.405583 
3564 2 59.1726 1020.35 -382.661 -0.691737 -0.235272 0.392525 0.558633 
3563 2 67.9561 1018.37 -386.815 0.0872103 -0.512954 0.077978 0.850407 
3565 2 51.0366 1021.22 -377.014 -0.85421 0.0498179 0.478157 -0.198016 
3566 2 42.7391 1020.2 -371.679 -0.320458 0.417421 0.309909 -0.791848 
3567 2 34.6593 1017.67 -366.61 0.356637 0.484747 -0.244264 -0.760372 
3568 2 25.6957 1017.67 -362.414 0.818489 0.145183 -0.538805 -0.136701 
4018 1 152.563 1156.03 -367.107 0.198217 0.347891 -0.898545 -0.17972 
4017 2 161.949 1117.18 -392.23 -0.684531 -0.213694 0.0119753 -0.696856 
4016 2 158.977 1120.62 -401.001 -0.965874 -0.142578 -0.187837 0.107128 
4015 2 156.185 1124.2 -409.788 -0.49728 -0.00637723 -0.20747 0.842394 
4014 2 153.717 1127.74 -418.626 0.364967 0.212841 -0.132503 0.896627 
4013 2 151.611 1134.16 -425.853 0.895231 0.385163 0.0155874 0.223536 
4012 2 149.186 1140.69 -432.813 0.732179 0.194515 0.32983 -0.563285 
4011 2 147.109 1148.57 -438.479 -0.0496086 -0.119576 0.454784 -0.881142 
4010 2 144.293 1157.27 -442.296 -0.664745 -0.52832 0.176196 -0.497943 
4019 3 136.013 1161.93 -397.456 0.205824 0.393125 -0.870966 -0.210969 
4045 1 -60.7116 1226.93 -419.456 0.463018 0.507327 0.510599 0.517225 
4044 2 -51.3075 1245.86 -461.616 -0.692073 -0.102478 0.604513 0.380915 
4047 2 -48.4149 1208.2 -377.91 0.216296 -0.729643 0.182395 -0.622551 
3939 2 25.8801 1183.72 -370.39 0.565956 -0.726394 -0.213442 -0.326325 
4048 2 -38.6225 1209.29 -378.684 0.660975 -0.289642 0.654009 -0.226918 
4049 2 -28.7366 1210.44 -378.714 0.587668 0.276 0.688074 0.324076 
4043 2 -42.32 1242.52 -464.169 -0.102501 -0.543281 0.271597 0.787766 
4050 2 -18.9277 1212.03 -379.25 0.08367 0.67718 0.299321 0.666958 
4051 2 -9.53493 1214.83 -380.7 -0.377208 0.774994 -0.283624 0.420305 
4046 3 -25.7578 1225.85 -421.086 0.446116 0.566975 0.490507 0.488797 
4037 2 11.5149 1221.35 -458.897 -0.482837 -0.035255 0.728548 0.484607 
4036 2 20.008 1216.55 -457.329 0.0464314 -0.667478 0.343674 0.658942 
4035 2 28.1845 1212.18 -454.023 0.393445 -0.809611 -0.23609 0.36605 
4034 2 36.3624 1208.96 -449.305 0.51284 -0.287704 -0.808588 -0.0201776 
4033 2 43.8502 1205.21 -444.063 0.214437 0.467518 -0.740861 -0.431936 
4032 2 51.8463 1203.05 -438.59 -0.0484247 0.878869 -0.147648 -0.451049 
4031 2 59.1991 1199.53 -432.975 -0.456466 0.685168 0.527869 -0.208659 
4030 2 67.2489 1197.03 -427.709 -0.464128 0.0274489 0.871584 0.155476 
4029 2 75.2443 1193.19 -423.404 -0.155796 -0.631666 0.574725 0.496405 
4052 2 -1.09812 1218.57 -384.241 -0.480501 0.303204 -0.811217 -0.138245 
4053 2 5.15735 1224.24 -389.438 -0.10633 -0.404461 -0.800824 -0.428702 
4054 2 10.2558 1230.65 -395.009 0.340483 -0.819781 -0.235775 -0.395526 
4055 2 15.3604 1237.66 -399.734 0.472753 -0.773692 0.419309 -0.0456639 
4028 2 83.3461 1188.99 -419.546 0.300331 -0.851145 -0.0780592 0.423391 
3997 2 83.5785 1251.79 -422.333 0.278801 -0.566531 0.592347 -0.500438 
3996 2 73.7468 1253 -422.027 -0.292861 -0.690125 -0.194167 -0.63266 
3995 2 64.3117 1252.2 -419.185 -0.560716 -0.187986 -0.781161 -0.200115 
4056 2 19.7977 1244.59 -405.389 0.327059 -0.189788 0.889505 0.256504 
4057 2 24.176 1250.68 -411.88 0.0938263 0.597435 0.687497 0.402015 
4058 2 29.965 1255.03 -418.63 -0.278501 0.907484 -0.00972951 0.314348 
4059 2 35.6423 1259.92 -425.126 -0.382208 0.51487 -0.767284 0.0101272 
4060 2 41.9697 1263.79 -431.707 -0.320762 -0.341306 -0.818216 -0.333385 
4061 2 48.9111 1267.37 -437.643 0.0737557 -0.857316 -0.246319 -0.445977 
4062 2 56.2379 1270.91 -443.237 0.487329 -0.721342 0.486565 -0.0736996 
4038 2 3.43876 1227.01 -459.44 -0.623657 0.533561 0.543319 -0.176547 
4039 2 -5.2397 1231.57 -460.329 -0.0995963 0.793638 -0.0799352 -0.594835 
3941 2 30.777 1201.56 -376.891 0.181463 -0.126753 0.884961 0.409693 
3940 2 28.2126 1193.17 -372.382 0.49157 -0.725294 0.461597 0.138691 
4040 2 -14.462 1234.01 -463.238 0.353526 0.391229 -0.686309 -0.500938 
4041 2 -23.3019 1237.82 -465.568 0.722855 -0.230513 -0.650746 -0.0295532 
4063 2 62.0503 1276.98 -448.332 0.392245 -0.0344702 0.840632 0.371878 
4042 2 -32.7385 1240.73 -465.576 0.464855 -0.583971 -0.305453 0.591259 
4064 2 68.4419 1283.55 -452.289 -0.0977158 0.532002 0.590055 0.599384 
3942 2 32.9154 1209.46 -382.405 -0.10262 0.547324 0.65361 0.512542 
3943 2 36.5477 1217.39 -387.02 -0.416826 0.831467 -0.0878986 0.35664 
3944 2 42.8094 1223.81 -391.182 -0.594253 0.416444 -0.686335 -0.0487973 
3945 2 50.7392 1229.28 -393.574 -0.437785 -0.379483 -0.714299 -0.392572 
3946 2 59.938 1231.77 -395.921 0.0426161 -0.734558 -0.169811 -0.655571 
3994 2 55.1536 1250.63 -415.653 -0.494709 0.536158 -0.613763 0.301816 
3993 2 46.2222 1247.8 -412.601 -0.176866 0.798743 0.0341296 0.574076 
3947 2 69.4658 1234.15 -397.33 0.542354 -0.543481 0.485173 -0.418435 
3948 2 79.115 1235.68 -398.298 0.671949 -0.095814 0.698955 0.225311 
3949 2 88.2731 1239.19 -397.874 0.294314 0.400773 0.487985 0.717378 
4065 2 73.9218 1291.47 -454.731 -0.546313 0.729794 -0.10502 0.397382 
3992 3 74.1727 1276.1 -379.235 0.198274 -0.77523 0.159961 -0.57803 
4027 2 91.1697 1187.21 -413.821 0.424407 -0.507298 -0.73085 0.168481 
4066 2 80.648 1298.71 -455.732 -0.64867 0.46354 -0.559253 -0.227143 
3991 1 40.1678 1271.45 -372.27 0.195432 -0.756418 0.161311 -0.603006 
4067 2 85.5868 1307.25 -456.08 -0.16072 -0.192888 -0.697344 -0.671323 
3998 2 92.7495 1249.51 -425.256 0.512032 0.154894 0.83496 -0.129123 
4026 2 97.7572 1188.47 -406.521 0.345189 0.34395 -0.870638 -0.0673267 
4025 2 101.565 1190.67 -397.714 0.15179 0.928078 -0.309747 -0.140314 
3950 2 97.1998 1243.3 -396.556 -0.355904 0.628685 -0.052916 0.689411 
4024 2 105.772 1194.3 -389.491 0.0126549 0.758442 0.58797 -0.280885 
3999 2 100.947 1246.36 -429.893 0.378195 0.837136 0.279104 0.279772 
4000 2 108.22 1242.22 -435.135 -0.030808 0.651702 -0.374621 0.658782 
4001 2 116.641 1237.27 -436.693 -0.449021 0.0647086 -0.763344 0.45989 
4002 2 123.932 1230.91 -438.583 -0.657156 -0.620839 -0.423743 -0.056093 
4003 2 130.259 1223.53 -440.128 -0.385763 -0.683798 0.29871 -0.542567 
3951 2 106.003 1247.05 -394.259 -0.748887 0.413269 -0.482843 0.187723 
4009 2 144.12 1167.13 -443.657 -0.744876 -0.605512 -0.179118 0.21548 
4023 2 111.891 1195.79 -381.887 -0.344649 0.0718022 0.925311 -0.140933 
3952 2 114.564 1251.51 -392.211 -0.576823 -0.0434328 -0.610929 -0.540514 
4004 2 135.565 1215.22 -440.844 0.204982 -0.0965999 0.726201 -0.649063 
3966 2 174.593 1184.77 -401.646 -0.455139 0.70554 0.543055 0.0123287 
3967 2 169.946 1191.25 -407.389 -0.296443 0.888683 -0.2017 -0.2858 
3968 2 165.571 1197.66 -413.623 0.0346999 0.395786 -0.761667 -0.511872 
3969 2 161.996 1205.5 -418.556 0.37531 -0.38608 -0.788483 -0.297286 
3964 1 194.842 1213.76 -370.413 -0.392774 0.846244 0.120512 -0.339228 
4005 2 139.543 1206.16 -441.654 0.606796 0.614708 0.392504 -0.316028 
4006 2 140.824 1196.42 -443.093 0.615694 0.760336 -0.0989494 0.181714 
4007 2 143.079 1186.9 -444.673 0.296429 0.372837 -0.58349 0.65777 
3980 2 127.197 1289.4 -391.031 -0.925345 0.295402 0.230912 0.0561573 
3979 2 130.664 1284.51 -398.904 -0.583557 -0.00133478 0.366316 0.724757 
3978 2 133.538 1279.81 -407.121 0.201325 -0.190144 0.19309 0.941291 
4008 2 144.241 1177.05 -444.394 -0.284558 -0.294013 -0.607711 0.68064 
3977 2 137.031 1273.85 -414.255 0.826437 -0.353737 -0.0462266 0.435587 
3976 2 141.231 1267.27 -420.308 0.805997 -0.267938 -0.37393 -0.372497 
3975 2 146.917 1259.62 -423.017 0.206409 0.261172 -0.553894 -0.763142 
3974 2 148.949 1250.26 -425.553 -0.63527 0.560613 -0.267697 -0.458784 
3970 2 158.604 1213.14 -423.835 0.517684 -0.845884 -0.112152 0.0624991 
3971 2 156.222 1221.95 -427.841 0.361527 -0.542266 0.505445 0.565484 
3972 2 154.042 1231.51 -428.933 -0.260101 0.00188745 0.659624 0.705152 
3973 2 150.947 1240.93 -428.306 -0.732848 0.542771 0.302566 0.277105 
3965 3 170.276 1233.75 -385.174 -0.326411 0.859596 0.12506 -0.372707 
3953 2 121.652 1257.72 -389.207 0.0315867 -0.541662 -0.323341 -0.775277 
3954 2 129.821 1262.77 -386.874 0.669174 -0.46636 0.211117 -0.53865 
3955 2 137.478 1266.54 -381.76 0.857888 -0.0854541 0.430865 0.266609 
3981 2 122.898 1294.58 -383.721 -0.673689 0.417773 -0.0129279 -0.60946 
3956 2 144.501 1270.74 -376.116 0.340088 0.222632 0.255741 0.877138 
3957 2 150.344 1273.37 -368.555 -0.377998 0.508597 -0.260475 0.728422 
4022 2 118.716 1196.62 -374.832 -0.340864 -0.64033 0.633168 0.269978 
4021 2 125.465 1197.13 -367.649 -0.00282733 -0.920199 -0.0614029 0.386595 
3958 2 159.63 1273.43 -365.225 -0.781631 0.14443 -0.550318 0.255621 
3982 2 118.352 1300.35 -377.059 0.109655 0.380153 -0.258923 -0.881146 
3983 2 110.998 1303.82 -371.276 0.735502 0.0262631 -0.495636 -0.461186 
3984 2 103.432 1307.81 -366.31 0.78395 -0.332629 -0.383016 0.357881 
3959 2 169.034 1272.75 -362.215 -0.727535 -0.389519 -0.487823 -0.284599 
1935 2 -82.0243 -849.556 -354.709 -0.884794 -0.175406 0.326844 -0.282039 
1936 2 -87.3551 -854.612 -348.115 -0.346102 0.110806 0.371766 -0.85424 
1937 2 -91.9412 -859.546 -340.933 0.404024 0.375825 0.0669401 -0.831288 
1938 2 -97.6827 -863.423 -333.904 0.907871 0.2781 -0.252919 -0.185641 
1618 2 -169.97 -847.178 -235.762 0.585114 0.225271 -0.0384654 0.778085 
1617 2 -171.848 -844.198 -245.03 0.98567 0.147143 0.0807475 -0.0168214 
1619 2 -167.108 -850.262 -226.817 -0.227262 0.164622 -0.0796468 0.956508 
1620 2 -163.731 -851.32 -217.627 -0.884789 0.0753145 -0.0899221 0.450988 
1506 2 -93.3744 -846.447 -263.077 0.78745 0.122687 -0.505131 0.33123 
1505 2 -86.2787 -841.044 -267.352 0.69906 0.491886 -0.172843 -0.489376 
1507 1 -67.9417 -865.932 -228.414 -0.082343 -0.382805 -0.673477 -0.626984 
1504 2 -79.063 -836.018 -271.946 0.0840176 0.481346 0.26187 -0.832269 
1503 2 -71.475 -831.246 -276.195 -0.566459 0.138496 0.557038 -0.591314 
1939 1 -71.0289 -902.174 -330.558 0.102245 -0.715824 -0.416031 -0.551417 
1502 2 -63.7619 -825.999 -279.437 -0.805732 -0.374077 0.451059 0.0860759 
1573 2 -76.2241 -827.376 -217.85 0.923882 0.144411 0.169647 0.311138 
1572 2 -78.0755 -821.452 -225.615 0.739166 0.168026 0.265656 -0.595674 
1914 2 70.9498 -936.057 -357.425 -0.764775 0.425715 0.47894 0.067103 
1915 2 63.91 -929.327 -355.927 -0.486462 0.687431 -0.0580832 -0.536115 
1916 2 56.8247 -922.484 -355.264 0.133377 0.452064 -0.558318 -0.682737 
1917 2 49.2947 -916.136 -354.696 0.528912 -0.110776 -0.796268 -0.271917 
1918 2 42.0335 -910.34 -357.847 0.506021 -0.75644 -0.34055 0.236148 
1952 2 -11.9957 -827.379 -339.614 0.608847 -0.730486 0.0493213 0.30539 
1941 2 -30.3409 -925.871 -333.549 -0.556851 0.750469 -0.144428 0.325352 
1940 3 -49.2706 -878.764 -344.726 0.0883393 -0.697567 -0.472974 -0.530935 
1951 2 -10.6268 -837.226 -338.832 0.611184 -0.599448 -0.422351 -0.297886 
1950 2 -8.30276 -846.715 -340.42 0.110007 0.0797037 -0.623699 -0.76977 
1508 3 -47.1433 -840.408 -240.247 -0.10122 -0.398351 -0.688627 -0.597381 
1949 2 -7.03692 -856.493 -340.741 -0.541263 0.561685 -0.389615 -0.489637 
1948 2 -5.08375 -866.164 -341.578 -0.729777 0.645708 0.211122 0.0769037 
1946 2 -4.53644 -885.345 -341.846 0.274135 -0.16142 0.708759 0.629646 
1947 2 -2.85586 -875.626 -342.783 -0.371597 0.231789 0.621363 0.64969 
1945 2 -7.88445 -894.654 -340.732 0.66644 -0.653771 0.336641 0.122944 
1944 2 -11.9832 -903.349 -338.304 0.444529 -0.742848 -0.249365 -0.434037 
1943 2 -17.9213 -911.142 -337.422 -0.14736 -0.342541 -0.664026 -0.64809 
1942 2 -24.3635 -918.375 -335.575 -0.605257 0.344153 -0.688357 -0.203439 
1453 1 6.87092 -871.333 -288.906 -0.503163 0.294253 -0.239642 0.776411 
1447 2 18.7998 -860.531 -222.977 -0.482758 0.473533 0.632784 -0.377221 
1448 2 9.11364 -860.482 -225.381 0.0526268 0.853879 0.079501 -0.511664 
1449 2 0.712503 -862.117 -230.302 0.407515 0.645086 -0.608 -0.219388 
1450 2 -6.90819 -864.75 -236.068 0.321065 0.00372043 -0.930409 0.176754 
1451 2 -13.4465 -867.516 -243.025 0.0921362 -0.769722 -0.52589 0.349969 
1452 2 -19.9745 -869.963 -250.089 -0.214754 -0.884303 0.250175 0.330608 
1454 3 30.2084 -873.151 -262.882 -0.528849 0.289821 -0.232127 0.763177 
1461 2 73.0577 -887.344 -262.041 0.433831 -0.0267246 -0.0262964 -0.900214 
1460 2 71.3981 -886.746 -271.805 -0.479251 -0.089251 -0.0175648 -0.872952 
1459 2 67.7382 -884.664 -280.742 -0.934842 -0.174788 -0.153048 -0.268507 
1455 2 48.1839 -870.233 -311.589 0.948503 0.0724911 0.298545 -0.0771897 
1458 2 63.8337 -881.596 -289.42 -0.797771 -0.0104913 -0.259243 0.544283 
1456 2 54.088 -872.038 -303.837 0.638114 0.375025 0.0122274 0.672322 
1457 2 59.2549 -876.517 -296.566 -0.0700632 0.259532 -0.293807 0.917285 
1536 2 34.7429 -842.367 -326.936 0.794443 -0.501707 -0.113784 0.322807 
1537 2 30.2449 -834.769 -322.484 0.207101 -0.317218 0.475921 0.793714 
1538 2 27.2178 -826.16 -318.676 -0.544845 0.158136 0.480484 0.668784 
1462 2 73.2738 -886.795 -252.203 0.946999 -0.143232 -0.0491535 -0.283303 
1464 2 72.4682 -882.339 -233.031 0.00747658 -0.059942 -0.00774731 0.998144 
1463 2 73.0008 -883.79 -242.827 0.767847 -0.0905675 0.0422227 0.632792 
1445 2 37.6435 -861.299 -219.069 -0.325095 -0.596811 0.364904 0.636376 
1446 2 27.8053 -860.322 -218.885 -0.538113 -0.15214 0.824169 0.089635 
1465 2 71.2247 -882.139 -223.228 -0.770762 -0.0898075 0.0236039 0.63032 
1534 1 80.5929 -831.294 -327.809 -0.652449 0.396784 -0.0956667 -0.63853 
1443 2 57.2705 -860.437 -218.24 0.669423 -0.208899 -0.686845 0.190994 
1442 2 66.5074 -859.137 -215.17 0.47047 0.505041 -0.655182 -0.307129 
1444 2 47.4236 -860.459 -218.631 0.191581 -0.655978 -0.27502 0.676279 
1489 2 50.1329 -838.078 -239.357 -0.378153 0.353123 0.847116 -0.121239 
1490 2 42.2954 -837.183 -245.303 -0.197955 0.845663 0.204026 -0.451708 
1492 2 26.3407 -832.275 -255.62 0.540026 -0.0417599 -0.827489 -0.147952 
1491 2 33.9191 -835.965 -250.487 0.129069 0.638928 -0.601614 -0.461707 
1441 2 75.9678 -856.777 -213.677 0.142613 0.773447 0.0354472 -0.616592 
1488 2 58.084 -838.69 -233.441 -0.347395 -0.502999 0.736289 0.290149 
1487 2 66.7305 -836.638 -229.009 -0.0490608 -0.838015 -0.108312 0.532534 
1493 2 17.7081 -829.016 -259.241 0.4176 -0.737088 -0.403416 0.345784 
1494 2 9.15288 -825.56 -262.731 -0.0453869 -0.740374 0.283513 0.607788 
1497 2 -17.7979 -820.233 -273.237 -0.157139 0.763539 0.0990302 -0.618473 
1495 2 0.205605 -822.498 -265.734 -0.420205 -0.331521 0.805197 0.255303 
1496 2 -8.42053 -821.519 -270.599 -0.558973 0.390814 0.693601 -0.231802 
1501 2 -55.6149 -820.909 -281.493 -0.38946 -0.661272 0.0159433 0.640926 
1514 2 -12.7263 -825.771 -214.192 0.445787 -0.766997 0.461479 0.00526243 
1486 2 74.9021 -832.449 -225.176 0.360163 -0.327371 -0.757073 0.435834 
1466 2 69.5457 -883.566 -213.616 -0.96502 -0.0422621 0.128283 -0.224708 
1440 2 85.5652 -854.26 -213.567 -0.512244 0.353166 0.621479 -0.476071 
1485 2 82.8328 -827.709 -221.375 0.582106 0.358985 -0.728708 0.035599 
1484 2 89.1587 -820.909 -218.069 0.427314 0.816783 -0.0435423 -0.385191 
1901 2 61.7356 -820.779 -357.842 -0.421652 -0.767406 0.41253 -0.251228 
1439 2 95.1942 -852.001 -213.416 -0.689683 -0.29239 0.654669 0.101262 
1498 2 -27.4347 -819.008 -275.055 0.375018 0.597084 -0.556084 -0.440026 
1372 1 102.002 -834.863 -248.994 0.107724 0.644831 -0.0962402 0.75055 
1374 2 104.996 -880.132 -261.95 0.632281 0.428224 0.404434 0.503267 
1375 2 114.396 -881.71 -259.199 -0.00127829 0.636437 -0.157436 0.755089 
1376 2 123.82 -883.813 -257.506 -0.597203 0.304157 -0.562052 0.484701 
1377 2 133.353 -886.116 -255.77 -0.820364 -0.10767 -0.528908 -0.188854 
1378 2 142.588 -886.032 -252.041 -0.347516 -0.456965 -0.280117 -0.769383 
1379 2 151.425 -884.614 -247.629 0.480249 -0.364834 -0.0202395 -0.797401 
1380 2 157.408 -881.18 -240.554 0.935695 -0.259912 0.230126 -0.0629495 
1381 2 161.65 -876.376 -233.046 0.594913 -0.151069 0.300465 0.730053 
1382 2 162.421 -869.697 -225.861 -0.244159 0.0686751 0.222885 0.941272 
1383 2 162.803 -865.147 -216.959 -0.909984 0.163988 0.0739681 0.373584 
1373 3 135.963 -842.091 -244.926 0.0871406 0.652176 -0.0988146 0.746531 
1438 2 104.773 -850.03 -211.881 -0.312815 -0.712869 0.244181 0.578222 
1437 2 114.138 -848.213 -209.261 0.309919 -0.572801 -0.544024 0.529044 
2048 3 -223.807 -695.343 -339.872 0.362206 0.792702 -0.289196 0.395975 
2049 2 -275.381 -696.592 -333.952 -0.666411 -0.679929 -0.261333 -0.159053 
2050 2 -269.456 -704.416 -334.41 -0.342055 -0.657119 0.330634 -0.5847 
2051 2 -264.255 -712.766 -334.9 0.236936 -0.0525156 0.69094 -0.680959 
2052 2 -260.274 -721.91 -334.117 0.696489 0.469048 0.539088 -0.0654278 
2053 2 -253.162 -728.776 -334.042 0.499123 0.654764 -0.030015 0.566797 
2054 2 -245.802 -735.326 -333.024 -0.309638 0.472614 -0.418324 0.711172 
2055 2 -236.581 -738.629 -331.488 -0.709684 -0.00589247 -0.641476 0.291243 
2056 2 -227.603 -742.41 -330.003 -0.712248 -0.429937 -0.410384 -0.373418 
2057 2 -218.423 -745.234 -327.253 -0.0527852 -0.487738 -0.082657 -0.867464 
2058 2 -209.867 -744.837 -322.189 0.678871 -0.358238 0.295975 -0.568505 
2047 1 -239.311 -667.311 -325.815 0.352912 0.774364 -0.29655 0.433441 
2041 2 -184.722 -689.247 -360.47 -0.312107 0.137112 0.398876 0.851286 
2005 2 -112.899 -758.624 -355.62 -0.378058 0.618861 0.629384 -0.279211 
2042 2 -185.027 -681.853 -353.861 -0.838262 0.353687 0.241781 0.33729 
2004 2 -103.885 -760.573 -352.103 -0.526908 -0.109613 0.818742 0.200034 
1983 2 -123.295 -800.773 -337.12 0.263037 -0.0981292 -0.0376455 0.959044 
1981 2 -116.542 -802.092 -355.309 0.881027 0.062052 -0.239933 -0.402955 
1982 2 -121.485 -800.674 -346.84 0.91323 -0.0128384 -0.099345 0.394938 
1984 2 -125.468 -801.555 -327.485 -0.621213 -0.191053 -0.0704572 0.756722 
1985 2 -127.352 -804.587 -318.335 -0.995608 -0.0505109 -0.00625244 0.0785744 
1986 2 -127.182 -805.863 -308.495 -0.618451 -0.0253429 -0.0442867 -0.784165 
1987 2 -126.114 -805.2 -298.654 0.251227 -0.173731 -0.0764336 -0.949137 
2078 2 -140.783 -692.616 -353.315 0.933824 -0.236906 -0.220309 -0.152683 
2003 2 -94.6353 -764.048 -351.42 -0.16155 -0.610673 0.393067 0.66819 
1649 2 -65.5898 -798.627 -215.707 0.90712 -0.190352 -0.37464 -0.0233482 
2079 2 -144.303 -687.674 -345.547 0.681717 -0.336655 0.013 0.649428 
2074 1 -99.5057 -720.948 -348.136 -0.878865 0.164882 0.324194 -0.308721 
2059 2 -201.506 -744.053 -316.908 0.850191 0.0888716 0.507545 0.108047 
1571 2 -80.1603 -815.349 -233.148 0.0446578 -0.0807915 0.322961 -0.9419 
2002 2 -85.3939 -767.676 -351.426 0.460798 -0.69236 -0.200453 0.517804 
2001 2 -76.0736 -770.808 -350.777 0.65718 -0.255988 -0.708901 0.00658141 
1570 2 -82.0771 -806.851 -237.79 -0.610916 -0.452668 0.277506 -0.587251 
1988 2 -122.891 -802.569 -289.613 0.870423 -0.253966 0.0439642 -0.419443 
1989 2 -119.694 -798.242 -281.221 0.816022 -0.0969083 0.376044 0.428145 
1990 2 -114.961 -792.998 -274.24 0.134001 0.281212 0.312736 0.897307 
1616 3 -145.176 -809.773 -216.833 0.277705 0.213138 -0.107654 0.930517 