ITEM: TIMESTEP
10000000
ITEM: NUMBER OF ATOMS
4067
ITEM: BOX BOUNDS pp pp pp
-4.6310929470000001e+03 4.6704658980000004e+03
-4.6310929470000001e+03 4.6704658980000004e+03
-4.6310929470000001e+03 4.6704658980000004e+03
ITEM: ATOMS id type x y z c_q[1] c_q[2] c_q[3] c_q[4] 
3878 2 -819.48 1935.62 -529.572 -0.385033 -0.503991 -0.702547 -0.322755 
3877 2 -827.482 1935.54 -523.701 -0.447064 0.200724 -0.868349 0.0762405 
4018 1 -887.432 2034.38 -579.877 -0.186226 0.211979 -0.716844 -0.637589 
4017 2 -880.804 2040.04 -626.236 -0.181274 0.0401425 0.685919 -0.703594 
4016 2 -878 2049.54 -626.784 -0.656886 -0.516436 0.463249 -0.295289 
4015 2 -873.632 2058.43 -627.461 -0.631933 -0.682281 -0.0427036 0.365143 
4020 2 -891.866 2050.16 -535.598 0.0659512 -0.164296 -0.781614 -0.598111 
4021 2 -890.924 2059.6 -538.296 0.587131 -0.623126 -0.306674 -0.415863 
3975 2 -922.236 2061.63 -533.559 -0.412895 0.873138 -0.137616 0.219567 
3976 2 -917.515 2068.52 -538.968 -0.4481 0.447202 -0.752574 -0.181245 
3974 2 -925.598 2054.28 -527.916 -0.133788 0.625759 0.617526 0.457371 
3973 2 -931.183 2049.31 -521.359 0.348191 -0.0460284 0.906825 0.233052 
4019 3 -886.479 2069.2 -583.699 -0.203288 0.17087 -0.712061 -0.649959 
4022 2 -889.522 2069.4 -537.795 0.722683 -0.581998 0.328902 0.17559 
3977 2 -912.822 2075.32 -544.462 -0.136029 -0.176579 -0.828823 -0.513194 
4014 2 -869.966 2067.59 -625.888 -0.0758348 -0.381816 -0.637215 0.665148 
3934 2 -964.411 2074.46 -514.939 0.428807 -0.287312 -0.845308 -0.137951 
4013 2 -866.971 2076.51 -622.895 0.409042 0.301428 -0.744068 0.433807 
3876 2 -833.171 1934.17 -515.728 -0.211557 0.863939 -0.400464 0.220184 
3972 2 -937.026 2045.87 -514.26 0.344741 -0.748739 0.537626 -0.177487 
3879 2 -811.272 1936.9 -534.894 0.0210805 -0.86602 -0.0458406 -0.497457 
3880 2 -802.75 1938.29 -539.64 0.54864 -0.508091 0.563487 -0.351169 
3881 2 -793.108 1938.91 -541.908 0.586694 0.148734 0.761679 0.231331 
3882 2 -783.623 1940.95 -543.974 0.188469 0.677869 0.380848 0.59994 
3883 1 -778.512 1984.35 -526.435 -0.822229 -0.302347 0.401519 0.267036 
3936 2 -978.151 2083.62 -525.556 0.0397706 -0.728335 0.43551 0.527519 
3935 2 -970.933 2078.46 -521.201 0.433394 -0.808683 -0.246689 0.312004 
4023 2 -887.102 2078.98 -537.462 0.288527 -0.221836 0.654933 0.662272 
3978 2 -908.376 2083.25 -548.289 0.350655 -0.72649 -0.428578 -0.406908 
4012 2 -864.449 2085.27 -618.971 0.519255 0.80097 -0.295745 0.0368384 
4011 2 -862.205 2093 -613.13 0.34212 0.786515 0.420124 -0.296385 
3979 2 -905.229 2091.72 -552.406 0.579218 -0.763791 0.282679 0.0349695 
3990 2 -929.188 2185.75 -525.196 -0.614733 0.361121 -0.099592 -0.694102 
3989 2 -925.702 2179.92 -532.425 -0.928115 0.317456 0.182798 0.0664005 
4010 2 -861.168 2099.68 -605.8 0.0113183 0.149237 0.924624 -0.350243 
3988 2 -924.887 2172.28 -538.664 -0.429206 0.149743 0.353055 0.817748 
3987 2 -922.966 2163.57 -542.897 0.365165 -0.333824 0.416659 0.762634 
3986 2 -920.054 2154.67 -546.212 0.799808 -0.554127 -0.0315626 0.228594 
3985 2 -917.108 2146 -549.937 0.672824 -0.350657 -0.451632 -0.469443 
3984 2 -912.889 2137.04 -550.774 0.188469 0.108618 -0.663745 -0.715629 
4009 2 -859.045 2105.54 -598.042 -0.292791 -0.625911 0.713031 -0.118725 
3983 2 -908.595 2128.41 -552.877 -0.469255 0.534512 -0.319269 -0.626229 
3982 2 -903.967 2119.89 -554.932 -0.77824 0.585903 0.224794 -0.0229794 
3981 2 -902.294 2110.46 -557.532 -0.492496 0.312625 0.514837 0.628217 
3980 2 -902.83 2100.72 -555.739 0.254903 -0.275675 0.716207 0.588281 
4008 2 -858.05 2111.61 -590.262 -0.307604 -0.950475 -0.0188514 0.0402759 
4007 2 -857.052 2116.13 -581.529 -0.0897317 -0.548146 -0.793226 0.249552 
4006 2 -857.749 2121.15 -573.02 0.0538013 0.328681 -0.908201 0.253466 
4005 2 -859.309 2123.46 -563.548 0.0788512 0.942641 -0.304371 0.11211 
4004 2 -860.3 2126.16 -554.074 0.115804 0.793838 0.593896 -0.0608177 
4003 2 -861.885 2126.87 -544.393 0.0799291 -0.0637611 0.994515 -0.0220425 
4002 2 -859.918 2125.93 -534.828 -0.0759198 -0.715893 0.684683 0.113764 
4001 2 -857.355 2125.57 -525.261 0.0301414 -0.986806 -0.0872883 0.132992 
4024 2 -885.961 2088.81 -536.873 -0.377899 0.278444 0.525039 0.709926 
4025 2 -885.411 2098.38 -534.132 -0.786174 0.571569 0.17472 0.157198 
4026 2 -885.888 2107.71 -531.043 -0.588645 0.486207 -0.356705 -0.538388 
4028 2 -885.832 2126.38 -525.081 0.643148 -0.464733 -0.289727 -0.535203 
4027 2 -887.075 2117.28 -528.718 -0.02553 -0.0418754 -0.583829 -0.810394 
4029 2 -884.704 2135.46 -521.317 0.769887 -0.598297 0.0653696 0.21223 
4063 2 -851.808 2187.93 -533.109 0.408089 0.876425 -0.136848 0.215904 
4064 2 -849.43 2180.25 -538.919 0.0141533 0.498101 -0.75922 0.418663 
4065 2 -845.916 2173.65 -545.501 -0.317944 -0.182219 -0.909249 0.197421 
4066 2 -840.731 2169.1 -552.538 -0.294583 -0.853078 -0.386533 -0.189921 
4067 2 -835.038 2165.61 -559.803 -0.0193909 -0.812659 0.447594 -0.372652 
4062 2 -853.872 2193.1 -524.977 0.283287 0.754625 0.590304 -0.0427851 
4061 2 -856.202 2199.26 -517.605 0.120623 -0.0253487 0.940149 -0.31769 
4000 2 -856.914 2125.2 -515.38 0.0102781 -0.521912 -0.852518 0.0267243 
4030 2 -885.827 2144.99 -518.747 0.287551 -0.279054 0.594387 0.697243 
4031 2 -886.349 2154.78 -517.331 -0.348142 0.2384 0.568221 0.706461 
4032 2 -887.075 2164.32 -514.792 -0.790464 0.585189 0.144584 0.108701 
1182 2 -22.6925 -837.77 -374.318 -0.243073 0.520413 -0.757174 0.311084 
1181 2 -29.5698 -835.294 -367.58 0.0890777 0.9128 -0.103769 0.384828 
1399 1 126.169 -914.912 -369.646 0.708432 -0.114832 0.264914 -0.644018 
1401 2 168.863 -896.878 -378.655 -0.927946 -0.259533 -0.256704 -0.0752394 
1402 2 174.164 -901.023 -371.343 -0.491364 -0.404373 -0.00515469 -0.771374 
1403 2 180.031 -904.809 -364.359 0.24306 -0.199865 0.30991 -0.89718 
966 2 112.249 -842.514 -366.525 -0.0834035 -0.233011 -0.968891 -0.000574651 
1053 2 -31.0293 -724.614 -371.743 -0.218752 0.254119 -0.73908 0.584236 
1054 2 -24.5159 -731.743 -374.127 -0.701034 -0.303781 -0.638964 0.0894056 
1055 2 -16.1356 -737.016 -374.637 -0.497883 -0.660628 -0.199912 -0.52509 
1022 3 75.7147 -747.387 -387.334 0.259161 -0.645609 -0.303233 -0.651209 
1021 1 49.9899 -771.012 -387.133 0.24564 -0.654712 -0.304852 -0.64659 
1013 2 85.7055 -700.618 -394.572 -0.343749 0.506045 0.442896 -0.655437 
1014 2 75.9411 -702.237 -393.975 0.295421 0.637351 -0.123055 -0.700976 
1015 2 66.4466 -704.44 -392.309 0.825652 0.307784 -0.454469 -0.130483 
1056 2 -7.13665 -740.971 -374.116 0.0864533 -0.48801 0.312425 -0.810409 
1057 2 1.28697 -745.244 -370.925 0.63207 0.0306532 0.609499 -0.477555 
1016 2 58.1265 -708.146 -388.218 0.59029 -0.0981732 -0.56368 0.569372 
1017 2 49.9186 -712.806 -384.968 -0.0163878 -0.441029 -0.321578 0.837742 
1023 2 87.601 -796.241 -400.36 -0.400595 -0.119429 -0.549792 -0.72318 
1018 2 42.7929 -718.289 -380.758 -0.552012 -0.64428 0.0802632 0.523205 
1019 2 35.3174 -724.763 -379.674 -0.780302 -0.340864 0.523273 -0.0335447 
1020 2 27.636 -730.557 -377.449 -0.476637 0.18629 0.58725 -0.627098 
1058 2 8.34663 -751.474 -367.996 0.852118 0.436442 0.277133 0.081304 
1052 2 -36.0662 -716.111 -370.827 0.418442 0.69 -0.278557 0.52078 
1051 2 -41.996 -708.387 -369.073 0.639916 0.660251 0.389958 0.050097 
1059 2 14.0626 -758.588 -363.976 0.488176 0.422318 -0.0921811 0.758178 
1050 2 -47.1814 -699.972 -368.206 0.387926 0.0644002 0.738194 -0.54812 
1012 2 95.0189 -698.01 -392.683 -0.641711 -0.0209554 0.740401 -0.198933 
1035 2 91.06 -709.064 -362.899 -0.768031 0.299391 0.471275 -0.313676 
1024 2 93.6883 -789.294 -396.872 0.320142 -0.604019 -0.062884 -0.727128 
1011 2 104.157 -696.057 -389.396 -0.429777 -0.675342 0.44277 0.403931 
1010 2 112.028 -692.402 -384.541 -0.0342428 -0.808207 -0.289512 0.511676 
1025 2 101.832 -784.355 -393.921 0.75808 -0.513791 0.340636 -0.212839 
1009 2 120.513 -688.898 -380.734 0.430088 -0.265934 -0.783122 0.361972 
1008 2 129.621 -686.626 -377.544 0.555704 0.434722 -0.678351 -0.20506 
1026 2 108.917 -777.809 -391.542 0.583031 -0.100926 0.575991 0.564024 
1029 2 119.405 -753.812 -379.272 -0.598424 0.449252 -0.411664 -0.520186 
1028 2 118.63 -762.247 -384.424 -0.842518 0.474968 0.0761727 0.242417 
1027 2 114.716 -770.207 -388.839 -0.126984 0.309332 0.433286 0.83693 
1030 2 119.39 -744.203 -376.775 0.101582 0.141395 -0.604534 -0.777321 
1031 2 116.375 -735.111 -374.292 0.732573 -0.356792 -0.451234 -0.363902 
933 2 143.402 -755.437 -389.667 0.0983973 0.242418 0.900464 0.347442 
932 2 142.195 -761.215 -381.684 0.230158 -0.563436 0.768025 0.199258 
934 2 146.95 -750.23 -397.291 -0.300261 0.832787 0.343406 0.313659 
935 2 150.286 -743.299 -403.455 -0.488707 0.760688 -0.426842 -0.0180342 
936 2 154.391 -735.646 -408.086 -0.396858 0.0724467 -0.811789 -0.422201 
931 2 144.531 -764.394 -372.614 0.176097 -0.974318 -0.0062242 0.1402 
937 2 159.823 -727.967 -411.339 0.198227 -0.612721 -0.499176 -0.579743 
938 2 164.621 -719.708 -413.763 0.601428 -0.75861 0.11901 -0.220525 
930 2 147.239 -765.558 -363.241 0.121579 -0.645746 -0.753429 0.0239871 
939 2 169.545 -711.298 -415.446 0.550474 -0.356874 0.667378 0.352455 
1007 2 138.128 -684.231 -373.152 0.162628 0.856444 -0.118592 -0.475386 
1006 2 145.191 -681.791 -366.612 -0.13774 0.683904 0.611344 -0.373579 
940 1 175.186 -691.141 -373.165 -0.743823 -0.614965 0.100098 0.241921 
941 3 158.624 -721.013 -365.597 -0.727899 -0.640013 0.0949269 0.227015 
1032 2 113.115 -726.41 -370.941 0.703975 -0.593347 -0.106729 0.375456 
967 1 150.219 -814.564 -368.323 -0.78755 -0.103938 -0.014946 0.607238 
1033 2 107.229 -718.987 -368.149 -0.0101774 -0.514943 0.366873 0.774683 
1034 2 99.3783 -713.227 -366.487 -0.649403 -0.0892681 0.57064 0.494649 
3505 1 -532.57 1420.48 -410.382 -0.44639 0.248542 -0.585035 -0.629838 
3506 3 -522.092 1453.37 -404.829 -0.423582 0.20975 -0.604502 -0.641218 
3508 2 -554.907 1443.14 -371.64 -0.378864 0.470299 0.498313 0.622066 
3507 2 -557.911 1433.83 -372.884 0.280132 -0.0254681 0.671893 0.685155 
3509 2 -552.647 1452.75 -371.791 -0.708167 0.688524 -0.0483541 0.14865 
3510 2 -549.527 1462.13 -371.783 -0.486671 0.564947 -0.572528 -0.340877 
3504 2 -499.088 1426.81 -443.039 -0.181189 -0.422882 -0.617146 0.638336 
3503 2 -495.922 1436.15 -442.271 0.351479 0.164468 -0.723118 0.571413 
3502 2 -493.477 1445.38 -439.557 0.582593 0.716753 -0.371699 0.0932294 
3501 2 -490.48 1454.23 -436.347 0.483087 0.747661 0.285253 -0.355332 
3453 2 -465.915 1404.94 -401.432 -0.134333 0.387476 -0.210559 -0.887402 
3454 2 -472.086 1409.84 -395.446 0.58974 0.054231 -0.397084 -0.701134 
3455 2 -477.464 1414.66 -388.696 0.84711 -0.393606 -0.356633 0.017081 
3451 1 -427.651 1424.52 -382.065 0.645424 -0.347878 -0.205351 0.648259 
3456 2 -483.595 1420.71 -383.744 0.552306 -0.502284 0.0394655 0.664163 
3457 2 -489.697 1426.53 -378.524 -0.0715196 -0.21536 0.369788 0.900978 
3458 2 -493.743 1433.02 -372.241 -0.80032 0.0990443 0.307572 0.505053 
3459 2 -497.692 1437.86 -364.54 -0.864057 0.400741 0.115128 -0.282059 
3500 2 -487.485 1462 -431.021 -0.0110932 0.270734 0.844398 -0.462138 
3499 2 -483.765 1467.92 -424.03 -0.368694 -0.472611 0.780726 -0.17655 
3511 2 -547.658 1471.48 -374.357 0.02044 -0.0387573 -0.828477 -0.558307 
3516 2 -532.73 1514.31 -390.718 -0.585093 0.676935 0.181641 0.407962 
3515 2 -537.642 1506.02 -388.402 0.0521771 0.321167 0.712801 0.621325 
3514 2 -542.622 1497.88 -385.642 0.495741 -0.378781 0.709144 0.328453 
3513 2 -546.237 1489.4 -381.955 0.52897 -0.817022 0.161091 -0.163446 
3512 2 -548.347 1480.36 -378.745 0.390221 -0.633089 -0.507044 -0.435697 
3517 2 -528.998 1523.48 -391.086 -0.636037 0.547975 -0.543164 -0.012404 
3560 3 -542.656 1609.63 -378.39 0.00995238 -0.665673 -0.427226 -0.611767 
3559 1 -570.045 1590.64 -367.96 -0.0108652 -0.639828 -0.488493 -0.593191 
3518 2 -522.412 1530.79 -392.762 -0.45695 -0.0824428 -0.704307 -0.536984 
3563 2 -518.951 1575.21 -362.989 0.72464 -0.480045 0.492539 -0.0430996 
3519 2 -515.157 1537.41 -392.851 0.0788412 -0.605324 -0.287054 -0.738218 
3562 2 -526.484 1568.74 -362.348 0.403112 -0.721886 -0.0486706 -0.560367 
3520 2 -506.504 1542.27 -392.485 0.636783 -0.62168 0.307884 -0.336495 
3521 2 -498.523 1548.12 -392.095 0.70151 -0.217967 0.621432 0.272391 
3494 2 -489.925 1494.75 -383.448 0.281278 0.78292 0.544478 -0.107068 
3498 2 -483.869 1474.27 -416.402 -0.35946 -0.932302 0.0289025 0.0276851 
3522 2 -490.796 1554.19 -390.584 0.247612 0.359125 0.421506 0.795016 
3497 2 -485.366 1480.88 -409.134 -0.277114 -0.518862 -0.771383 0.242815 
3544 2 -488.463 1608.05 -451.619 -0.862987 0.376391 0.104863 -0.320291 
3496 2 -488.297 1485.2 -400.709 -0.0426922 0.280664 -0.918235 0.276133 
3523 2 -483.075 1559.27 -387.097 -0.521461 0.529985 -0.0284334 0.66812 
3532 1 -416.044 1535.54 -418.781 -0.646535 0.597593 0.324027 -0.34624 
3533 3 -446.395 1552.77 -415.664 -0.591138 0.615607 0.3497 -0.386387 
3534 2 -437.024 1528.07 -460.392 0.145704 -0.585594 0.322882 0.729107 
3535 2 -444.836 1533.88 -458.939 -0.446553 -0.0911408 0.672083 0.583599 
3536 2 -451.988 1540.7 -458.18 -0.700321 0.568601 0.421233 0.0938358 
3537 2 -457.655 1548.81 -458.347 -0.477139 0.728701 -0.163085 -0.463397 
3538 2 -462.6 1557.39 -459.424 -0.0421657 0.426125 -0.598778 -0.676834 
3539 2 -468.462 1565.34 -460.196 0.491487 -0.128636 -0.705381 -0.494298 
3540 2 -473.372 1574.03 -460.236 0.741666 -0.616335 -0.264523 -0.0095211 
3541 2 -476.891 1583.35 -459.683 0.404406 -0.613612 0.323011 0.596322 
3542 2 -481.046 1592.36 -459.671 -0.112204 -0.123555 0.613705 0.771693 
3543 2 -484.455 1601.45 -457.752 -0.749404 0.210594 0.369221 0.507661 
3524 2 -475.694 1563.81 -382.185 -0.858686 0.243623 -0.448287 0.0484334 
3495 2 -488.963 1488.98 -391.511 0.17328 0.901815 -0.38192 0.104117 
3525 2 -467.711 1567.34 -377.533 -0.58638 -0.297272 -0.515723 -0.549378 
3526 2 -458.717 1570.15 -374.664 0.0198675 -0.679974 -0.0222421 -0.73263 
3527 2 -448.798 1570.43 -373.794 0.504349 -0.415049 0.61665 -0.439441 
3528 2 -439.157 1568.59 -374.856 0.633247 0.292194 0.709917 -0.0981772 
3529 2 -430.409 1564.32 -376.918 0.489995 0.685887 0.174535 0.508922 
3530 2 -421.946 1559.23 -377.216 -0.11365 0.541462 -0.371896 0.745383 
3493 2 -490.997 1500.53 -375.441 0.100394 0.170159 0.922885 -0.33053 
3531 2 -413.001 1555.11 -375.957 -0.670239 0.0189675 -0.672457 0.313403 
3545 2 -492.355 1613.81 -444.521 -0.319894 0.257524 -0.211604 -0.886889 
3568 2 -496.735 1617.55 -363.607 -0.125149 0.0520589 -0.733349 -0.666204 
3567 2 -499.906 1608.15 -363.94 -0.631418 0.519589 -0.472867 -0.328231 
3565 2 -504.934 1589.11 -363.133 -0.245197 0.454962 0.583417 0.626509 
3566 2 -502.185 1598.54 -364.067 -0.672648 0.698257 0.0813556 0.231005 
3492 2 -493.367 1505.5 -367.199 -0.111658 -0.669541 0.683358 -0.268828 
3564 2 -511.456 1581.65 -362.462 0.402962 0.00809913 0.740805 0.537367 
3546 2 -495.438 1619.13 -436.738 0.510846 0.154835 -0.423231 -0.732078 
3558 2 -589.613 1631.72 -380.361 -0.488747 0.212284 0.511405 -0.674186 
3557 2 -581.701 1636.47 -383.925 -0.828009 -0.286792 0.481816 0.00225179 
3550 2 -525.171 1635.44 -417.151 -0.803596 0.0695269 0.511214 0.296747 
3551 2 -533.205 1639.76 -413.281 -0.709949 0.445698 0.321605 -0.440336 
3552 2 -541.87 1642.56 -409.435 -0.0701948 0.593116 -0.0907817 -0.796897 
3556 2 -574.856 1640.62 -389.68 -0.508434 -0.449124 0.0506293 0.732953 
3555 2 -567.436 1643.41 -395.641 0.318816 -0.328424 -0.297616 0.837806 
3553 2 -550.88 1645.21 -406.06 0.710239 0.283051 -0.438361 -0.472527 
3554 2 -559.693 1645.45 -401.537 0.865376 -0.032902 -0.421429 0.269145 
3594 2 -532.328 1681.94 -386.645 -0.685206 0.119662 0.0584238 -0.716073 
3595 2 -534.639 1682.88 -377.08 0.0750499 0.266877 -0.00277896 -0.9608 
3596 2 -539.288 1682.5 -368.355 0.72132 0.0363399 -0.295401 -0.625392 
3593 2 -529.585 1680.37 -396.105 -0.968242 0.0630693 0.174535 0.167533 
3592 2 -525.401 1681.29 -404.989 -0.604811 -0.205378 0.0663522 0.766564 
3591 2 -519.369 1683.3 -412.546 0.20472 -0.318808 -0.173578 0.909022 
3590 2 -514.324 1686.49 -420.324 0.813283 0.0106985 -0.293475 0.502323 
3549 2 -517.188 1631.15 -420.989 -0.229445 -0.378908 0.358657 0.821674 
3589 2 -509.541 1690.8 -427.793 0.888811 0.306626 -0.147092 -0.307179 
3548 2 -509.64 1627.83 -426.508 0.518161 -0.44756 -0.0814199 0.724272 
3547 2 -501.772 1623.69 -430.696 0.83277 -0.290317 -0.471315 0.00850707 
3587 3 -505.966 1717.8 -389.694 0.232596 -0.0818359 -0.344896 0.905676 
3588 2 -503.943 1693.45 -435.491 0.218947 0.326735 0.029782 -0.918923 
3586 1 -494.85 1736.06 -417.339 0.231611 -0.0441479 -0.297338 0.925201 
3584 2 -491.177 1760.76 -374.194 0.322344 -0.901051 0.261722 0.125316 
3583 2 -491.039 1754.5 -366.506 0.265447 -0.795421 -0.51267 -0.184424 
3585 2 -491.342 1766.97 -381.857 0.133218 -0.385886 0.857774 0.31236 
3569 2 -495.949 1627.37 -363.945 0.54725 -0.473869 -0.442925 -0.528945 
3570 2 -494.994 1637.11 -362.827 0.873629 -0.470802 0.0914589 0.0821745 
3835 2 -874.241 1884.3 -366.294 0.197556 0.615937 -0.602356 -0.467719 
3830 3 -849.223 1892.36 -401.908 -0.0709309 -0.499206 0.531605 0.680557 
3836 2 -882.066 1887.8 -371.23 0.429267 -0.0204872 -0.897813 -0.0961402 
3837 2 -889.751 1889.62 -377.175 0.422551 -0.70208 -0.505235 0.270689 
3838 2 -898.147 1892.19 -381.779 0.0737742 -0.800889 0.301436 0.512123 
3839 2 -905.766 1896.47 -386.321 -0.355409 -0.302823 0.836126 0.287881 
3840 2 -913.55 1898.48 -392.009 -0.434601 0.445425 0.777377 -0.0916698 
3841 2 -921.199 1901.02 -397.767 -0.20945 0.921785 0.0827966 -0.315575 
3824 2 -836.433 1917.53 -437.972 0.216018 0.122321 0.818903 -0.517466 
3842 2 -927.104 1904.08 -405.11 -0.0571838 0.532352 -0.748213 -0.391802 
3825 2 -833.334 1908.74 -441.137 0.578056 0.745204 0.30249 -0.137918 
3826 2 -831.492 1899.42 -443.822 0.439756 0.690044 -0.334274 0.46767 
3843 2 -930.508 1910.35 -411.987 0.206596 -0.201093 -0.87464 -0.389723 
3844 2 -931.74 1917.97 -418.171 0.397381 -0.834772 -0.374235 -0.072054 
3827 2 -827.811 1890.3 -444.932 -0.0769527 0.182019 -0.726417 0.65823 
3829 1 -823.416 1868.83 -400.478 -0.0960347 -0.477143 0.566588 0.664898 
3828 2 -824.403 1881.12 -446.044 -0.586623 -0.482751 -0.56691 0.318494 
3845 2 -933.278 1924.99 -424.898 0.372996 -0.777889 0.411352 0.294198 
3834 2 -865.402 1881.54 -362.786 -0.328396 0.797824 0.203147 -0.462995 
3754 2 -726.631 1872.73 -433.446 -0.969256 0.0911145 0.219484 0.0637744 
3753 2 -724.124 1873.99 -442.937 -0.579249 -0.136389 0.0554023 0.801747 
3752 2 -720.078 1876.76 -451.552 0.314777 -0.164413 -0.2346 0.904901 
3751 2 -716.736 1879.45 -460.472 0.918158 0.0654876 -0.208099 0.330745 
3755 2 -731.124 1874.11 -424.678 -0.627426 0.24746 0.0530603 -0.7364 
3750 2 -713.054 1881.62 -469.306 0.822428 0.216991 -0.0986126 -0.51653 
3785 2 -796.336 1904.51 -378.798 0.323956 0.261994 -0.296774 -0.859265 
3784 2 -792.191 1901.84 -387.347 -0.535717 0.278441 0.0149669 -0.797028 
3688 2 -704.943 1864.12 -381.945 0.650576 0.122112 -0.687746 -0.298069 
3689 2 -714.463 1866.46 -382.402 0.535914 -0.501745 -0.540773 0.410625 
3690 2 -724.299 1867.34 -382.903 0.0162482 -0.598679 0.079922 0.796826 
3687 2 -695.371 1862.66 -379.716 0.217322 0.70289 -0.347649 -0.581255 
3691 2 -733.782 1868.42 -380.21 -0.60767 -0.297055 0.590636 0.440051 
3756 2 -735.666 1876.3 -416.121 0.151547 0.274471 -0.270409 -0.910263 
3757 2 -741.052 1880.58 -409.026 0.78776 -0.0452934 -0.329324 -0.518584 
3783 2 -788.727 1901.97 -396.675 -0.966386 0.00407058 0.175954 -0.187411 
3692 2 -743.487 1869.98 -378.896 -0.699468 0.12751 0.611411 -0.347364 
3693 2 -752.857 1867.78 -376.623 -0.134511 0.552311 0.265975 -0.778535 
3686 2 -686.599 1860.9 -375.498 -0.34673 0.739788 0.394668 -0.420391 
3782 2 -785.207 1904.21 -405.709 -0.806737 -0.245272 0.0726504 0.532671 
3781 2 -782.178 1907.13 -414.652 -0.0498426 -0.187517 -0.140499 0.970883 
3786 2 -803.16 1907.61 -372.321 0.848025 0.006148 -0.422806 -0.319453 
3758 2 -745.908 1884.45 -401.384 0.932996 -0.190707 -0.183692 0.243735 
3759 2 -750.405 1887.14 -392.985 0.390169 -0.349853 0.0885435 0.847072 
3780 2 -780.034 1912.62 -422.503 0.739641 0.152855 -0.2805 0.592357 
3760 2 -754.764 1891.57 -385.282 -0.394318 -0.110182 0.319621 0.854527 
3685 2 -677.555 1858.69 -371.903 -0.586849 0.185766 0.78756 0.0291256 
3761 2 -758.968 1896.03 -377.531 -0.93451 0.197657 0.241403 0.171313 
3762 2 -762.906 1901.16 -370.119 -0.673003 0.439964 0.0149464 -0.594369 
3749 3 -724.998 1916.35 -432.646 -0.0987945 -0.000527687 0.153436 -0.983207 
3763 2 -768.49 1906.83 -364.28 0.0447672 0.269412 -0.414348 -0.868176 
3779 2 -778.36 1918.58 -430.245 0.928173 0.330926 -0.0336672 -0.166884 
3684 2 -668.316 1856.04 -369.383 -0.373338 -0.52493 0.595915 0.479534 
3778 2 -778.147 1925.08 -437.679 0.516656 0.164681 0.292011 -0.78783 
3787 2 -810.046 1910.51 -365.834 0.790349 -0.383783 -0.280979 0.386147 
3709 2 -663.409 1879.28 -367.367 -0.0318466 0.958112 -0.283191 0.0284695 
3710 2 -662.432 1879.24 -377.256 0.00911976 0.294692 -0.948465 -0.116134 
3711 2 -663.143 1881.16 -386.908 0.0161216 -0.6507 -0.757238 -0.0540389 
3712 2 -662.396 1882.81 -396.686 0.124397 -0.989518 -0.05201 0.0517233 
3713 2 -663.339 1884.73 -406.398 0.0919699 -0.697993 0.703369 0.0980802 
3714 2 -662.84 1887.28 -415.977 -0.0810838 0.0369414 0.978464 0.186194 
3716 2 -664.085 1894.21 -434.545 -0.0259607 0.909991 -0.406212 0.0789604 
3715 2 -664.458 1891 -425.079 -0.104708 0.825015 0.543315 0.114868 
3683 2 -659.476 1852.04 -367.146 0.267633 -0.779373 -0.0245117 0.565994 
3717 2 -662.183 1894.52 -444.223 -0.124706 0.399402 -0.897705 0.138028 
3718 2 -658.855 1893.45 -453.488 -0.256554 -0.493385 -0.822935 0.11632 
3719 2 -655.65 1889.87 -462.238 -0.206772 -0.952475 -0.220634 -0.0368364 
3720 2 -653.733 1886.13 -471.137 -0.13035 -0.829813 0.516137 -0.167397 
3735 2 -653.364 1922.41 -378.279 -0.553081 0.668843 0.378553 -0.321634 
3669 2 -532.761 1800.81 -365.917 0.0959101 -0.660996 0.12662 0.733384 
3722 3 -620.305 1891.55 -431.778 -0.633914 -0.134707 0.140499 0.74851 
3721 1 -607.184 1887.87 -463.916 -0.56479 -0.150043 0.157811 0.795987 
3667 1 -517.351 1843.14 -379.856 0.128003 -0.554065 0.0393239 0.821633 
3723 2 -568.782 1893.8 -437.035 0.824585 0.143774 -0.157035 -0.524146 
3724 2 -573.439 1893.22 -428.284 0.900274 0.0681027 -0.25774 0.34415 
3725 2 -577.498 1890.01 -419.75 0.323352 -0.174684 -0.105004 0.924069 
3666 2 -522.618 1889.3 -388.304 -0.376168 0.127438 -0.890102 0.223553 
3726 2 -581.176 1888.81 -410.637 -0.468604 -0.242602 0.236171 0.815952 
3727 2 -586.885 1890.62 -402.722 -0.846618 0.0826899 0.468835 0.237897 
3728 2 -594.032 1893.88 -396.689 -0.683786 0.383225 0.285266 -0.551542 
3729 2 -602.245 1896.43 -391.732 0.0300577 0.582647 -0.196865 -0.787948 
3730 2 -611.263 1899.73 -389.333 0.610205 0.109409 -0.648254 -0.442094 
3731 2 -620.045 1903.97 -387.755 0.788312 -0.34726 -0.487647 0.142039 
3732 2 -628.82 1907.94 -385.5 0.383975 -0.62644 -0.100027 0.670917 
3733 2 -637.819 1911.38 -383.33 -0.209707 -0.360312 0.48198 0.770645 
3734 2 -645.557 1916.8 -380.481 -0.748734 0.162479 0.57175 0.293427 
3665 2 -530.222 1891.68 -382.363 -0.062007 0.796654 -0.414196 0.43582 
3664 2 -538.189 1893.58 -376.838 0.259063 0.837985 0.303276 0.372412 
3670 2 -542.224 1803.98 -365.175 -0.574636 -0.421553 0.554082 0.43021 
3671 2 -552.09 1804.51 -365.197 -0.676995 0.252691 0.688615 -0.0602855 
3668 3 -549.089 1850.02 -367.028 0.128077 -0.560105 0.0311355 0.817869 
3672 2 -561.62 1807.14 -365.201 -0.412017 0.749481 0.209191 -0.474087 
3682 2 -651.277 1846.4 -367.114 0.698628 -0.413546 -0.578228 0.0809379 
3680 2 -632.646 1839.9 -365.934 0.102597 0.676382 -0.310763 -0.659854 
3679 2 -623.158 1836.97 -365.931 -0.514241 0.601002 0.342505 -0.506994 
3681 2 -642.147 1842.57 -366.43 0.553725 0.157403 -0.71613 -0.394678 
3663 2 -545.109 1893.91 -369.83 0.37699 0.30897 0.865145 0.11807 
3678 2 -613.435 1835.15 -366.064 -0.689966 0.0942696 0.713925 0.0732905 
3677 2 -604.362 1831.23 -366.098 -0.354277 -0.424134 0.549287 0.626803 
3673 2 -570.152 1811.65 -367.23 0.0157347 0.568958 -0.456571 -0.6838 
3676 2 -595.145 1827.67 -366.649 0.289792 -0.66861 -0.00243917 0.684818 
3675 2 -586.631 1822.57 -367.344 0.700242 -0.512898 -0.455164 0.19855 
3674 2 -578.264 1817.22 -367.798 0.597817 0.0139509 -0.706683 -0.378179 
3662 2 -552.117 1893.97 -362.868 0.357952 -0.462943 0.789813 -0.183711 
3823 2 -838.489 1925.99 -433.312 -0.204041 -0.598991 0.632459 -0.446736 
3867 2 -872.304 1932.94 -437.838 0.0448461 0.0642676 0.996453 -0.0306671 
3868 2 -871.789 1932.23 -447.682 0.109214 0.81994 0.540134 0.155004 
3869 2 -868.688 1932.34 -457.079 -0.0945912 0.945834 -0.273391 0.147338 
3870 2 -865.503 1933.28 -466.443 -0.193688 0.30644 -0.93177 0.0196189 
3866 2 -874.997 1934.49 -428.459 0.047114 -0.712693 0.680096 -0.165279 
3871 2 -861.308 1935.15 -475.235 -0.23464 -0.504667 -0.824373 -0.10327 
3971 2 -941.844 2040.4 -507.552 0.172858 -0.856387 -0.340765 -0.347277 
3875 2 -838.782 1933.12 -507.614 0.0819966 0.853758 0.409313 0.311184 
3822 2 -840.73 1934.3 -428.198 -0.497969 -0.86012 -0.0348161 -0.104915 
3821 2 -842.849 1942.22 -422.617 -0.327708 -0.529474 -0.718823 0.309124 
3820 2 -843.271 1949.97 -416.453 0.117172 0.160659 -0.885055 0.420878 
3874 2 -844.701 1934.49 -499.76 0.287737 0.178216 0.940935 -0.00932503 
3873 2 -850.854 1933.81 -492.037 0.278572 -0.624224 0.703998 -0.192688 
3872 2 -855.932 1934.57 -483.565 -0.0914379 -0.953564 -0.138378 -0.251408 
3819 2 -842.75 1957.41 -409.879 0.309107 0.732366 -0.560673 0.231814 
3818 2 -842.647 1963.84 -402.259 0.368941 0.913469 0.15605 -0.0714454 
3865 2 -876.63 1935.68 -418.856 -0.0749179 -0.982415 -0.160287 -0.0596377 
3846 2 -934.479 1933.23 -430.31 0.0681889 -0.159338 0.885859 0.430367 
3864 2 -877.918 1936.39 -409.11 -0.062248 -0.433556 -0.898648 -0.0242078 
3960 2 -858.171 2023.18 -506.676 0.466186 0.464359 0.488467 -0.573098 
3959 2 -860.734 2032.54 -508.715 -0.108225 -0.230159 0.574403 -0.778059 
3961 2 -858.475 2013.3 -505.915 0.840193 0.541129 0.0115333 0.0334847 
3958 2 -863.983 2041.82 -509.696 -0.616323 -0.660904 0.170026 -0.392993 
3962 2 -858.588 2004.25 -501.767 0.481874 0.248873 -0.451387 0.708597 
3963 2 -859.267 1995.6 -497.162 -0.247369 -0.202754 -0.477738 0.818209 
3970 2 -946.28 2035.82 -499.971 -0.140816 -0.242284 -0.913836 -0.293894 
3969 2 -947.758 2030.6 -491.669 -0.260491 0.598835 -0.74794 -0.118854 
3968 2 -947.351 2023.91 -484.375 -0.367137 0.918112 0.14576 0.032174 
3965 3 -902.482 2024.33 -495.078 0.360399 -0.610062 0.587544 0.390806 
3967 2 -945.516 2017.48 -477.149 -0.229685 0.479926 0.8075 0.254675 
3964 1 -902.258 1993.9 -477.76 0.340501 -0.63578 0.575322 0.385807 
3966 2 -945.803 2010.35 -470.284 0.146216 -0.204923 0.906948 0.337746 
3817 2 -841.332 1967.3 -393.067 0.0341681 0.500733 0.840723 -0.203185 
3847 2 -935.015 1941.41 -435.942 -0.244884 0.608671 0.657948 0.369671 
3848 2 -934.693 1949.39 -441.93 -0.473419 0.879216 0.0391082 0.0363975 
3849 2 -934.473 1957.93 -447.065 -0.427275 0.488649 -0.575708 -0.49721 
3850 2 -934.538 1967.57 -449.153 0.109098 -0.121515 -0.733486 -0.659796 
3895 2 -859.449 1997.11 -442.763 0.821847 -0.416935 -0.298125 0.248703 
3896 2 -866.169 2002.53 -438.019 0.265056 -0.517718 0.293982 0.758477 
3897 2 -872.978 2009.39 -435.563 -0.299459 -0.0489164 0.67522 0.672316 
3898 2 -877.807 2018.01 -435.319 -0.64849 0.644894 0.369796 0.163775 
3857 3 -908.403 1970.39 -413.669 0.471377 0.797662 0.294583 -0.234008 
3863 2 -878.691 1938.08 -399.375 0.0124769 0.437197 -0.893349 0.103108 
3862 2 -881.854 1941.54 -390.58 0.166811 0.938367 -0.228157 0.198962 
3861 2 -885.154 1947.14 -383.19 0.34964 0.793121 0.49848 -0.0151008 
3860 2 -888.361 1954.03 -376.754 0.265291 0.230017 0.881154 -0.316672 
3859 2 -890.53 1961.9 -371.225 -0.199764 -0.598813 0.664433 -0.400059 
3858 2 -891.916 1968.92 -364.517 -0.408681 -0.911776 0.00213761 -0.0404872 
3851 2 -934.275 1977.54 -449.573 0.622355 -0.62613 -0.237039 -0.405522 
3852 2 -932.469 1987.12 -447.887 0.794513 -0.461215 0.342586 0.196634 
3853 2 -928.901 1995.81 -444.738 0.3577 -0.0713377 0.613905 0.700059 
3854 2 -925.684 2004.64 -441.783 -0.411164 0.389454 0.407952 0.716132 
3856 1 -906.384 2000.7 -396.276 0.473214 0.790683 0.303866 -0.241982 
3855 2 -923.629 2013.62 -438.197 -0.813879 0.565712 -0.0406783 0.126159 
3899 2 -881.023 2027.31 -436.456 -0.451164 0.745597 -0.334281 -0.358876 
3900 2 -883.193 2036.54 -439.325 0.0026913 0.153188 -0.786709 -0.59801 
3901 2 -884.98 2045.9 -442.038 0.271657 -0.51646 -0.65101 -0.485446 
3921 2 -907.527 2046.93 -407.38 0.236374 -0.875835 -0.362809 0.213096 
3920 2 -900.566 2047.48 -400.296 0.361611 -0.0847214 -0.925945 0.0684468 
3922 2 -912.745 2049.16 -415.489 0.00300574 -0.795683 0.53405 0.285781 
3923 2 -917.835 2051.67 -423.631 -0.267188 -0.145671 0.944783 0.121553 
3924 2 -922.486 2053.33 -432.203 -0.214431 0.665741 0.711374 -0.0689574 
3925 2 -926.711 2055.67 -440.814 -0.159701 0.974056 -0.0480965 -0.152963 
3919 2 -893.084 2047.83 -393.736 0.340478 0.610296 -0.666178 -0.260422 
3918 2 -886.955 2048.26 -386.002 0.00752824 0.928452 0.132975 -0.346753 
3917 2 -880.362 2050.84 -379.078 -0.229674 0.44598 0.812463 -0.297078 
3816 2 -839.405 1970.66 -383.952 -0.12323 -0.294163 0.941555 -0.108428 
3815 2 -837.807 1975.59 -375.561 -0.279087 -0.895474 0.346112 -0.0210601 
3894 2 -852.362 1992.22 -447.629 0.732917 -0.0291392 -0.504235 -0.455774 
3893 2 -844.078 1990.55 -452.82 0.214826 0.43471 -0.202831 -0.850727 
3892 2 -835.023 1990.53 -456.788 -0.495571 0.454768 0.338949 -0.657806 
3891 2 -826.972 1992.06 -462.308 -0.892098 -0.104456 0.439319 -0.0157511 
3926 2 -929.612 2058.78 -449.754 0.0235736 0.683654 -0.708909 -0.171784 
3927 2 -931.858 2060.43 -459.245 0.13346 -0.16014 -0.975432 -0.0712524 
3902 2 -883.408 2055 -445.542 0.540663 -0.837821 0.0673031 -0.0347862 
3957 2 -869.542 2049.93 -508.235 -0.659807 -0.514292 -0.528671 0.143759 
3903 2 -882.427 2063.93 -449.654 0.500309 -0.444396 0.650092 0.359976 
3904 2 -879.026 2072.73 -452.755 0.011997 0.331082 0.686642 0.64712 
3916 2 -873.256 2054.82 -373.388 -0.465733 -0.364391 0.803938 -0.0632153 
3956 2 -875.475 2057.15 -505.073 -0.273709 0.108041 -0.806515 0.512782 