ITEM: TIMESTEP
10000000
ITEM: NUMBER OF ATOMS
4067
ITEM: BOX BOUNDS pp pp pp
-4.6310929470000001e+03 4.6704658980000004e+03
-4.6310929470000001e+03 4.6704658980000004e+03
-4.6310929470000001e+03 4.6704658980000004e+03
ITEM: ATOMS id type x y z c_q[1] c_q[2] c_q[3] c_q[4] 
2450 2 -530.293 20.8993 -588.149 0.850564 -0.200971 -0.478176 0.0866001 
2451 2 -538.342 23.8194 -583.271 0.548868 -0.485924 -0.181837 0.655406 
2452 1 -525.798 52.8215 -548.231 -0.503879 -0.307379 -0.806885 -0.0236692 
2449 2 -521.283 18.8341 -591.617 0.523384 0.362397 -0.462443 -0.617158 
2448 2 -511.824 17.0246 -594.203 -0.184258 0.611162 0.0309465 -0.769138 
2447 2 -502.759 15.9623 -598.11 -0.731804 0.308683 0.452513 -0.405475 
2446 2 -493.598 13.5867 -601.125 -0.70235 -0.178135 0.566882 0.39194 
2538 2 -464.945 68.71 -612.736 0.888259 0.186247 0.247798 0.338974 
2539 2 -459.315 67.4593 -604.68 0.209683 0.282012 0.19181 0.916358 
2540 2 -453.458 69.8025 -597.165 -0.606433 0.4025 -0.112629 0.676422 
2453 3 -495.568 46.6066 -564.791 -0.533024 -0.311777 -0.783614 -0.0680373 
2445 2 -484.61 10.7015 -604.147 -0.109189 -0.531951 0.243783 0.803539 
2444 2 -475.541 6.59961 -604.559 0.579741 -0.582937 -0.330321 0.463651 
2457 2 -470.347 74.5975 -540.23 -0.462432 -0.359986 -0.809889 0.0254213 
2438 2 -418.78 0.311341 -590.953 -0.0718239 -0.783617 0.138364 0.601367 
2439 2 -428.244 0.33854 -593.931 -0.484062 -0.3127 0.771875 0.268536 
2440 2 -437.383 1.54374 -597.535 -0.602719 0.382322 0.682273 -0.158311 
2441 2 -446.611 4.01847 -599.974 -0.244162 0.790339 0.16532 -0.537046 
2442 2 -455.876 5.98035 -602.769 0.322573 0.64526 -0.40202 -0.563885 
2443 2 -465.652 6.36589 -604.366 0.702749 0.0483196 -0.707096 -0.0618428 
2462 2 -437.046 51.6758 -566.386 0.144398 0.631282 -0.34499 0.679422 
2463 2 -429.306 45.6149 -567.115 -0.383736 0.323404 -0.665781 0.55217 
2464 2 -420.627 40.8896 -567.788 -0.737508 -0.258765 -0.621219 0.0566504 
2465 2 -411.805 36.6191 -566.383 -0.477635 -0.609229 -0.242265 -0.584818 
2466 2 -402.633 33.687 -564.225 0.0986918 -0.493214 0.353055 -0.788893 
2469 2 -377.019 19.0831 -562.275 0.072556 0.677204 -0.187051 0.707914 
2467 2 -394.251 28.5557 -562.047 0.649585 -0.0844756 0.658065 -0.371286 
2468 2 -385.694 23.7048 -561.303 0.59094 0.578922 0.461155 0.320898 
2437 2 -409.78 -1.77481 -587.291 0.42146 -0.638769 -0.548071 0.337586 
2436 2 -401.142 -4.02987 -582.899 0.486796 0.00276184 -0.858921 -0.158985 
2435 2 -393.098 -7.98318 -578.51 0.116919 0.647206 -0.533342 -0.531978 
2434 2 -384.061 -7.86656 -574.523 -0.258749 0.729045 0.394625 -0.495795 
2433 2 -375.025 -6.67652 -570.644 -0.548353 0.15377 0.798142 -0.196554 
2461 2 -444.994 57.2795 -564.348 0.588845 0.668022 0.364747 0.27197 
2460 2 -452.122 62.7366 -560.227 0.433719 0.0968089 0.846949 -0.29188 
2459 2 -457.526 67.1869 -553.149 0.0569741 -0.637414 0.657719 -0.39732 
2458 2 -463.151 70.6822 -545.87 -0.270277 -0.890942 -0.232907 -0.28094 
2498 2 -375.166 63.8389 -541.885 -0.952123 0.191728 0.0334797 -0.235758 
2456 2 -477.663 76.9103 -533.882 -0.298962 0.465946 -0.779916 0.291972 
2541 2 -446.777 73.5506 -590.933 -0.760685 0.171755 -0.625267 -0.029996 
2542 2 -437.694 76.6152 -588.437 -0.460127 -0.360699 -0.496415 -0.641679 
2499 2 -376.457 68.3116 -533.133 -0.361432 0.159349 -0.153432 -0.905778 
2455 2 -486.691 77.6656 -529.875 -0.00446324 0.833951 -0.0191555 0.551488 
2500 2 -378.362 71.8066 -524.103 0.430933 -0.0564957 -0.153158 -0.887495 
2454 2 -494.765 79.2057 -524.336 0.392321 0.547517 0.684537 0.278778 
2543 2 -428.718 79.6171 -585.5 0.162292 -0.575931 -0.0933484 -0.795771 
2537 2 -470.413 71.4072 -620.492 0.746667 -0.0468534 0.322066 -0.580144 
2544 2 -420.211 83.2499 -581.947 0.808678 -0.395507 0.247035 -0.358591 
2545 2 -413.164 87.7688 -576.593 0.746197 -0.139685 0.485276 0.433803 
2536 2 -476.405 74.6601 -627.683 0.0964984 -0.299537 0.223019 -0.92262 
2535 2 -481.551 77.2194 -635.669 -0.62596 -0.330608 -0.0895302 -0.700612 
2546 2 -407.282 94.1376 -571.963 0.15947 0.132918 0.361226 0.909075 
2497 2 -371.85 61.4839 -550.903 -0.734323 -0.0356097 0.218947 0.641533 
2496 2 -370.308 57.813 -559.895 0.0556947 -0.0744026 0.168982 0.981228 
2495 2 -368.411 52.381 -567.944 0.811311 -0.292391 0.0795888 0.499948 
2494 2 -367.139 46.6681 -575.973 0.913527 -0.258139 -0.190334 -0.250212 
2567 2 -402.424 51.1342 -518.914 0.6875 -0.382973 0.526336 -0.321941 
2569 2 -383.09 53.8245 -515.65 0.172531 0.610087 0.0812675 0.76904 
2568 2 -392.781 52.8728 -517.673 0.682886 0.208561 0.594398 0.369946 
2493 2 -366.522 40.6501 -583.794 0.352133 -0.133922 -0.327403 -0.86653 
2470 2 -367.793 15.6553 -562.6 -0.600745 0.333925 -0.631592 0.358736 
2492 2 -366.133 35.5635 -592.274 -0.434899 0.113732 -0.245943 -0.858743 
2491 2 -364.317 29.7431 -600.077 -0.921531 0.320247 0.0309878 -0.217398 
2566 2 -412.191 51.4134 -520.362 0.152204 -0.642131 0.15934 -0.734242 
2565 2 -421.992 52.055 -520.487 -0.404307 -0.592851 -0.397502 -0.571887 
2564 2 -431.569 53.7558 -518.34 -0.657908 -0.105872 -0.745229 0.0241087 
2432 2 -365.457 -5.33007 -568.336 -0.522111 -0.508356 0.590803 0.346303 
2490 2 -361.9 25.6004 -608.774 -0.76995 0.111024 0.212229 0.591447 
2501 2 -378.816 75.13 -514.694 0.945764 -0.19865 -3.72395e-05 -0.257037 
2563 2 -440.872 54.5646 -514.959 -0.38957 0.541828 -0.621368 0.41056 
2489 2 -359.739 20.4035 -616.833 0.0201376 -0.141608 0.260836 0.954728 
2431 2 -355.79 -4.23788 -566.311 -0.0681219 -0.79343 0.00395868 0.604825 
2426 3 -356.963 -1.2198 -522.677 -0.459323 0.549391 0.605161 -0.347811 
2430 2 -346.588 -3.63274 -562.754 0.442036 -0.501767 -0.659655 0.343058 
2471 2 -357.972 14.916 -562.68 -0.668153 -0.300535 -0.626823 -0.265224 
2481 2 -312.982 -28.8033 -646.253 0.574501 -0.658194 -0.0361282 0.485205 
2482 2 -319.234 -21.3234 -644.728 -0.0766217 -0.443515 0.566094 0.690624 
2483 2 -326.148 -14.23 -644.634 -0.651085 0.233126 0.63895 0.336873 
2429 2 -337.441 -5.94794 -559.583 0.559904 0.0553911 -0.802364 -0.199129 
2488 2 -355.559 15.8771 -624.598 0.721171 -0.310307 -0.041883 0.617955 
2487 2 -350.69 10.8463 -631.571 0.90307 -0.22141 -0.310245 -0.197967 
2486 2 -347.122 5.55323 -639.068 0.429729 0.0235399 -0.377995 -0.819695 
2472 2 -348.166 13.8469 -562.158 -0.261078 -0.652891 -0.0772536 -0.706826 
2484 2 -332.896 -6.98649 -644.153 -0.732963 0.538941 0.300956 -0.285891 
2485 2 -340.34 -0.891965 -642.104 -0.254625 0.535662 -0.258039 -0.762658 
2428 2 -328.247 -8.05561 -556.55 0.153734 0.685436 -0.397847 -0.590137 
2473 2 -338.708 11.3591 -560.495 0.285823 -0.486304 0.453992 -0.689714 
2474 2 -329.789 7.46133 -558.997 0.649098 0.0146798 0.751821 -0.114979 
2480 3 -324.603 -6.82217 -600.762 0.606514 -0.547987 -0.352618 0.455534 
2475 2 -320.166 5.12286 -559.848 0.593773 0.576024 0.366089 0.426157 
2476 2 -310.835 1.72826 -559.299 0.029181 0.715261 -0.0819038 0.693427 
2586 2 -243.056 -8.75101 -548.79 -0.259247 -0.885156 -0.127352 -0.36479 
2585 2 -250.122 -4.69735 -543.165 -0.475257 -0.450404 -0.755363 -0.0263441 
2583 2 -266.093 -0.772303 -532.222 -0.0304237 0.876832 -0.152193 0.455057 
2479 1 -292.483 -19.987 -604.736 0.632418 -0.54309 -0.373242 0.407175 
2478 2 -292.047 -3.69049 -560.459 -0.694553 -0.38505 -0.601179 -0.0889734 
2477 2 -301.119 0.270196 -560.208 -0.537736 0.20053 -0.676592 0.461358 
2581 2 -282.191 6.6805 -523.552 0.514091 0.0588178 0.821635 -0.239096 
2582 2 -274.335 2.1392 -527.541 0.427508 0.659346 0.553609 0.275711 
2580 2 -290.248 10.7951 -519.402 0.124528 -0.664188 0.509722 -0.532476 
2584 2 -257.936 -1.90432 -537.727 -0.352891 0.384868 -0.778342 0.348611 
2587 1 -239.174 32.4331 -571.521 0.936314 -0.118228 -0.300652 -0.137645 
2588 3 -258.239 40.5348 -543.253 0.92425 -0.112522 -0.324681 -0.166381 
2509 2 -286.534 67.0547 -515.383 0.0458913 -0.803157 0.563953 0.186522 
2510 2 -288.89 69.9808 -524.496 -0.155438 -0.077665 0.973957 0.145654 
2511 2 -292.549 72.2075 -533.392 -0.222722 0.743275 0.627736 -0.0623284 
2512 2 -295.522 74.6198 -542.439 -0.146808 0.881741 -0.17134 -0.414274 
2595 2 -255.517 79.9274 -520.061 0.763407 0.126912 0.0513043 -0.631246 
2594 2 -256.232 82.4122 -529.656 0.0485453 -0.0342501 0.0969101 -0.993518 
2513 2 -302.382 78.5102 -548.474 0.340268 0.401084 -0.746076 -0.408313 
2427 2 -318.667 -10.4976 -556.517 -0.415065 0.66054 0.249342 -0.573791 
2507 3 -332.993 75.8168 -515.707 -0.112944 0.694853 0.701676 -0.109883 
2514 2 -310.64 81.1137 -553.124 0.507811 -0.21412 -0.832626 0.0548991 
2515 2 -319.321 81.7426 -557.931 0.243458 -0.76142 -0.403417 0.445221 
2589 2 -245.922 78.8663 -576.031 0.949782 -0.0953336 -0.0537824 0.293142 
2590 2 -247.369 80.2637 -566.373 0.270958 -0.175278 0.117009 0.939238 
2593 2 -256.238 85.7688 -538.877 -0.753884 -0.153364 0.110783 -0.629178 
2591 2 -249.772 83.4187 -557.295 -0.454602 -0.155092 0.205918 0.852573 
2592 2 -253.87 85.3738 -548.451 -0.970223 -0.00670131 0.151274 0.189046 
2516 2 -327.933 82.1393 -562.75 -0.15384 -0.743265 0.379283 0.529184 
2517 2 -337.006 83.5814 -566.62 -0.476368 -0.0491191 0.846156 0.233841 
2518 2 -345.528 86.348 -570.911 -0.450766 0.724908 0.497516 -0.154263 
2519 2 -352.587 91.1227 -575.839 -0.169654 0.840097 -0.158058 -0.49038 
2579 2 -297.829 16.0476 -515.794 -0.412538 -0.799788 -0.239039 -0.364708 
2520 2 -360.258 95.7386 -580.07 0.319528 0.355045 -0.758247 -0.443742 
2547 2 -403.351 99.9561 -564.902 -0.536027 0.285968 -0.0327997 0.793613 
2548 2 -398.318 103.267 -557.059 -0.948894 0.231337 -0.159874 0.143263 
2521 2 -368.191 100.306 -583.955 0.497644 -0.481447 -0.720121 -0.0445492 
2549 2 -394.569 107.105 -548.681 -0.686902 0.0754074 -0.272155 -0.669635 
2533 1 -472.711 123.506 -634.46 -0.270107 -0.486298 0.0375703 -0.830147 
2534 3 -445.736 109.833 -616.861 -0.293499 -0.498662 0.0227106 -0.815279 
2532 2 -446.069 161.143 -624.518 -0.592019 0.503987 0.620402 -0.103012 
2531 2 -437.665 157.132 -621.07 -0.459139 -0.154911 0.810237 0.329711 
2530 2 -429.437 153.055 -617.203 -0.0676794 -0.733937 0.414443 0.533848 
2529 2 -421.649 147.931 -613.943 0.406288 -0.786116 -0.219341 0.410902 
2528 2 -415.35 140.389 -612.741 0.61917 -0.349839 -0.656262 -0.252114 
2527 2 -408.54 133.463 -610.717 0.182928 0.390089 -0.663786 -0.611356 
2551 2 -390.984 118.693 -533.059 0.817391 -0.262075 -0.0309963 -0.512082 
2552 2 -388.72 123.004 -524.456 0.908283 -0.0775904 0.0868316 0.401824 
2526 2 -401.809 126.819 -607.687 -0.302234 0.809795 -0.158532 -0.477236 
2550 2 -392.319 112.487 -540.646 0.0744424 -0.10048 -0.330022 -0.935654 
2525 2 -394.309 121.359 -604.117 -0.521751 0.677648 0.490831 -0.166297 
2524 2 -386.783 116.17 -600.482 -0.488069 0.106603 0.819688 0.280244 
2523 2 -380.938 110.259 -595.07 -0.021047 -0.611994 0.628665 0.479375 
2522 2 -374.802 105.467 -588.963 0.308233 -0.881137 -0.123823 0.336538 
2553 2 -387.851 125.304 -514.917 0.296102 -0.169021 0.164755 0.925533 
2342 2 -423.471 -103.301 -497.909 0.0788191 0.862942 0.490521 0.0922322 
2343 2 -421.206 -103.887 -507.553 -0.0543094 0.895781 -0.422237 0.127839 
2341 2 -427.096 -101.282 -488.948 0.203148 0.141112 0.964556 -0.0919225 
2340 2 -429.353 -95.3087 -481.382 -0.0739809 -0.614783 0.719128 -0.315316 
2339 2 -429.388 -88.9817 -473.738 -0.33004 -0.941869 0.0571861 -0.0262039 
2338 2 -427.975 -83.1228 -465.802 -0.157634 -0.714422 -0.637473 0.241621 
2337 2 -427.075 -78.3911 -457.152 0.0161967 0.0118606 -0.969628 0.243758 
2336 2 -424.182 -72.432 -449.642 0.327147 0.667778 -0.657284 0.122572 
2335 2 -419.812 -65.2309 -444.345 0.434943 0.857091 0.106523 -0.254701 
2345 3 -385.908 -79.2272 -478.601 -0.734631 0.0011058 0.216357 0.643044 
2344 1 -376.592 -88.8343 -510.867 -0.72125 -0.0027827 0.217139 0.657755 
2334 2 -413.854 -58.0713 -441.042 0.0552308 0.531088 0.614979 -0.580255 
2353 2 -365.234 -67.4002 -432.834 -0.740836 -0.13005 0.307582 0.582789 
2354 2 -371.284 -66.2163 -425.083 -0.894104 0.223507 0.344343 -0.179028 
2355 2 -377.858 -62.9992 -418.523 -0.4485 0.476878 0.0433524 -0.754689 
2356 2 -385.028 -59.4722 -412.592 0.349083 0.252581 -0.258691 -0.864536 
2352 2 -358.595 -68.8945 -439.971 -0.0481212 -0.342784 0.144498 0.926986 
2297 2 -228.39 -87.4579 -387.237 -0.133371 -0.383004 0.483002 0.776034 
2296 2 -220.714 -92.6026 -390.769 0.50937 -0.562931 -0.0338943 0.650002 
2640 2 -317.38 -69.4632 -472.603 0.54385 0.835874 0.0744063 -0.00231551 
2298 2 -235.888 -81.454 -385.04 -0.635436 0.121068 0.659319 0.383225 
2346 2 -337.215 -69.3451 -493.678 -0.829516 -0.128122 0.0946128 0.535291 
2347 2 -339.391 -70.8255 -484.234 -0.951224 0.00841803 0.0907344 -0.294737 
2348 2 -341.319 -71.0023 -474.548 -0.350504 0.0821641 0.0701803 -0.930307 
2349 2 -343.598 -72.2144 -464.945 0.487764 0.235732 -0.10641 -0.833783 
2350 2 -348.166 -72.6718 -456.104 0.944874 0.0216141 -0.238967 -0.222801 
2299 2 -242.928 -74.6457 -383.696 -0.762509 0.538215 0.260821 -0.246732 
2641 1 -270.827 -76.4709 -476.187 -0.554066 0.241271 0.348215 0.716621 
2351 2 -352.396 -71.4813 -447.225 0.679413 -0.313375 -0.146386 0.647121 
2300 2 -249.467 -67.6771 -380.962 -0.33967 0.524026 -0.317 -0.713815 
2639 2 -317.463 -60.3863 -468.599 0.319754 0.47304 0.708795 -0.414246 
2295 2 -212.414 -95.9701 -395.144 0.842194 -0.178936 -0.508544 -0.00859386 
2301 2 -254.492 -59.5867 -378.226 0.243731 0.120444 -0.658479 -0.701779 
2643 2 -225.756 -64.8065 -468.558 -0.940039 0.30878 0.0930629 -0.111 
2644 2 -227.803 -59.6433 -460.372 -0.55036 0.302746 -0.233971 -0.742096 
2294 2 -204.742 -97.0953 -401.239 0.563234 0.306808 -0.326619 -0.694231 
2293 2 -197.958 -99.8685 -407.887 -0.221754 0.379674 -0.0483219 -0.896849 
2292 2 -192.272 -102.051 -415.691 -0.857651 0.23619 0.219031 -0.400843 
2290 1 -191.885 -61.0745 -439.08 -0.0890689 0.26049 -0.0808108 -0.957957 
2394 2 -552.617 -51.1594 -451.795 0.199519 -0.748633 -0.427616 0.465709 
2393 2 -543.483 -50.4422 -448.057 0.517067 -0.138246 -0.831217 0.150358 
2395 2 -561.016 -51.9676 -456.794 -0.230824 -0.738631 0.389703 0.499276 
2392 2 -534.07 -48.4845 -445.618 0.526448 0.5547 -0.561548 -0.315949 
2396 2 -569.905 -51.2338 -461.057 -0.415813 -0.222546 0.828896 0.300839 
2397 2 -578.063 -47.9804 -465.767 -0.442147 0.62481 0.625754 -0.150166 
2391 2 -525.049 -44.6571 -444.146 0.179904 0.749454 0.107728 -0.627971 
2398 1 -577.543 -0.874751 -467.692 0.68355 -0.0400978 0.689196 -0.236984 
2399 3 -543.501 -9.26551 -466.876 0.665698 -0.10463 0.691963 -0.25901 
2400 2 -556.061 41.1598 -468.164 -0.218294 -0.798543 -0.0543167 -0.558324 
2401 2 -546.889 38.5544 -470.72 0.220798 -0.565684 0.657199 -0.446474 
2402 2 -538.77 34.9216 -475.232 0.485823 0.124339 0.853449 -0.141916 
2403 2 -530.772 31.6076 -480.069 0.440345 0.753805 0.395428 0.285502 
2404 2 -522.586 27.8322 -484.131 0.1978 0.681453 -0.303727 0.635805 
2390 2 -516.445 -39.9463 -442.714 -0.307136 0.447216 0.60032 -0.587606 
2405 2 -515.388 21.1101 -484.938 -0.219 0.145749 -0.758965 0.595624 
2570 2 -373.386 53.075 -513.924 -0.491325 0.436461 -0.329564 0.677857 
2333 2 -406.801 -51.9724 -437.667 -0.523471 -0.201392 0.787815 -0.254493 
2571 2 -364.333 53.0596 -509.879 -0.794622 -0.0469129 -0.597519 0.0966802 
2502 2 -376.801 78.8434 -505.733 0.811065 -0.0368063 0.133313 0.568372 
2389 2 -507.761 -36.569 -439.509 -0.561432 -0.310612 0.76701 0.00329336 
2562 2 -449.372 54.1954 -509.91 0.057167 0.862212 0.141179 0.483105 
2357 2 -390.644 -56.245 -405.079 0.8389 -0.0716137 -0.407598 -0.353528 
2415 2 -433.124 -13.4502 -494.675 0.322205 -0.607879 0.131292 -0.713743 
2416 2 -423.723 -11.5505 -492.252 0.781108 -0.267433 0.536254 -0.17545 
2414 2 -442.892 -14.7658 -495.736 -0.380161 -0.528746 -0.421777 -0.63088 
2417 2 -414.178 -9.59521 -490.219 0.589532 0.376924 0.505467 0.50486 
2413 2 -452.588 -15.9009 -494.15 -0.655663 -0.0626769 -0.74478 -0.107145 
2503 2 -374.73 81.7913 -496.503 0.0555542 0.144214 0.206162 0.966237 
2358 2 -396.508 -51.7163 -398.401 0.756729 -0.445692 -0.0277433 0.477442 
2412 2 -462.413 -16.3477 -494.858 -0.529264 0.481893 -0.467539 0.518717 
2411 2 -472.22 -14.6571 -494.526 0.177097 0.73234 0.0341333 0.65662 
2410 2 -481.794 -12.765 -493.391 0.616984 0.392342 0.631388 0.258357 
2418 2 -404.518 -8.47844 -488.478 -0.0939002 0.629445 0.0875329 0.766368 
2359 2 -401.229 -45.2669 -392.598 0.0780178 -0.30452 0.387973 0.866405 
2409 2 -490.494 -8.50416 -492.008 0.509022 -0.135457 0.763766 -0.373108 
2388 2 -499.851 -34.7081 -433.912 -0.249529 -0.845521 0.282005 0.378553 
2387 2 -491.535 -35.7966 -428.815 0.326054 -0.748937 -0.431616 0.38274 
2332 2 -399.566 -45.3152 -436.006 -0.559882 -0.742453 0.22425 0.291562 
2408 2 -497.625 -1.8624 -490.385 -0.0506808 -0.592147 0.504278 -0.626496 
2407 2 -504.052 5.14463 -487.781 -0.458184 -0.819685 -0.0607837 -0.338364 
2406 2 -510.514 12.6515 -486.635 -0.653585 -0.430162 -0.602238 0.15842 
2360 2 -405.584 -37.7909 -387.921 -0.624205 0.0950476 0.508 0.585892 
2386 2 -482.205 -37.9362 -426.342 0.6115 -0.154791 -0.774692 -0.0442708 
2385 2 -472.285 -38.3038 -426.94 0.480347 0.506187 -0.432662 -0.570829 
2504 2 -371.739 85.4031 -487.798 -0.685546 0.224603 -0.0618336 0.689751 
2419 2 -395.126 -5.85942 -486.69 -0.640886 0.547725 -0.423906 0.33101 
2384 2 -462.432 -38.5818 -427.16 -0.117879 0.702813 0.0912862 -0.695576 
2420 2 -385.891 -2.28716 -485.991 -0.751597 -0.00615722 -0.615429 -0.2373 
2383 2 -453.467 -35.1942 -429.615 -0.60699 0.149569 0.621677 -0.471921 
2361 2 -410.529 -31.0143 -382.87 -0.804848 0.545549 0.219019 -0.0814004 
2382 2 -444.21 -31.9015 -431.366 -0.73298 -0.403195 0.512919 0.192583 
2381 2 -435.747 -27.393 -433.988 -0.396003 -0.584446 -0.0156242 0.708069 
2380 2 -428.349 -22.1657 -438.005 0.347359 -0.293846 -0.464191 0.759949 
2371 1 -419.109 50.57 -418.426 0.00210925 0.0989886 0.648247 -0.754965 
2373 2 -397.22 32.8427 -456.262 0.0360913 -0.151565 -0.70173 0.695198 
2374 2 -399.5 23.1885 -456.775 -0.589779 -0.634188 -0.214749 0.451496 
2375 2 -402.722 13.9184 -455.843 -0.680172 -0.59934 0.410113 -0.0998211 
2376 2 -407.106 5.12143 -455.986 -0.394352 -0.0469283 0.619701 -0.676946 
2377 2 -411.738 -3.26958 -453.515 0.257772 0.443655 0.329034 -0.792755 
2378 2 -416.814 -10.6777 -449.279 0.787634 0.488753 -0.0945218 -0.363069 
2379 2 -422.024 -17.0169 -443.737 0.838862 0.188526 -0.419523 0.291149 
2421 2 -376.72 0.889107 -483.774 -0.384261 -0.475294 -0.40659 -0.679061 
2422 2 -367.329 2.54896 -481.161 0.140346 -0.539991 0.159295 -0.814455 
2372 3 -423.732 16.0278 -414.986 0.00797671 0.102711 0.618305 -0.779157 
2362 2 -414.907 -22.6005 -379.857 -0.422879 0.55746 -0.312552 -0.642435 
2363 2 -419.519 -14.0935 -377.943 0.246668 0.128265 -0.547231 -0.789457 
2364 2 -424.221 -6.29089 -374.11 0.699001 -0.270856 -0.602777 -0.273305 
2331 2 -392.226 -38.6603 -435.189 -0.182831 -0.62761 -0.368239 0.661119 
2330 2 -384.158 -32.9355 -434.956 0.377535 -0.263849 -0.689893 0.55848 
2505 2 -367.793 87.6826 -478.927 -0.953935 0.0707916 -0.198288 -0.213723 
2329 2 -376.697 -26.5942 -434.808 0.66697 0.355833 -0.645607 0.108287 
2370 2 -444.006 47.0386 -378.504 -0.116023 0.123994 -0.75657 -0.63148 
2369 2 -443.531 37.2523 -376.695 -0.547986 0.674961 -0.376169 -0.320367 
2368 2 -442.239 27.4015 -376.074 -0.654391 0.659275 0.31301 0.197874 
2367 2 -439.431 18.0695 -374.76 -0.276605 0.179003 0.731717 0.59669 
2365 2 -430.945 0.624776 -372.222 0.68197 -0.688779 -0.0606364 0.238378 
2366 2 -434.998 9.69546 -372.025 0.167853 -0.538576 0.556197 0.610252 
2328 2 -369.523 -19.8564 -434.516 0.493042 0.719886 -0.050312 -0.485945 
2327 2 -362.633 -12.8553 -435.14 -0.00218373 0.459187 0.524948 -0.71664 
2561 3 -415.796 93.2244 -502.95 -0.0694343 0.867185 -0.117723 0.478864 
2560 1 -446.454 94.8107 -485.971 -0.0300631 0.872202 -0.0787328 0.481831 
2326 2 -355.933 -5.66753 -435.095 -0.57155 -0.131274 0.713621 -0.3832 
2302 2 -259.913 -51.3932 -376.987 0.748406 -0.254392 -0.597692 -0.133932 
2578 2 -305.322 21.4057 -512.108 -0.537781 -0.329715 -0.759896 0.156965 
2577 2 -313.867 25.5096 -509.443 -0.256817 0.461547 -0.656675 0.538329 
2508 2 -282.973 65.5186 -506.396 0.128149 -0.922388 -0.320036 0.174226 
2572 2 -354.912 51.5723 -507.291 -0.624611 -0.567612 -0.277062 -0.459255 
2573 2 -346.265 47.4215 -505.086 -0.0648986 -0.627023 0.291983 -0.719289 
2576 2 -322.249 30.2729 -506.972 0.330822 0.772292 0.0237667 0.541809 
2574 2 -337.794 42.3243 -504.697 0.398956 -0.150805 0.750617 -0.504643 
2575 2 -330.39 35.9086 -505.868 0.661163 0.487197 0.568038 0.0532514 
2303 2 -268.178 -46.0263 -375.653 0.515842 -0.701273 -0.171458 0.461222 
2596 2 -256.123 77.679 -510.444 0.981304 0.172948 0.0046021 0.08432 
2423 2 -358.103 2.28985 -477.52 0.819527 -0.14248 0.425489 -0.356419 
2304 2 -276.337 -40.5338 -376.253 -0.0572646 -0.550891 0.406508 0.72663 
2425 1 -324.397 -3.69651 -510.161 -0.500801 0.506743 0.610838 -0.345379 
2424 2 -350.471 1.59297 -471.222 0.7759 0.25607 0.374036 0.438753 
2638 2 -316.716 -51.1473 -465.074 -0.140381 -0.200858 0.817968 -0.520459 
2317 1 -353.845 46.0306 -377.866 -0.208063 0.117509 -0.764374 0.59886 
2597 2 -254.605 74.9625 -501.144 0.506518 0.233766 0.0558114 0.828057 
2325 2 -349.165 1.58069 -435.079 -0.682757 -0.599284 0.385615 0.161252 
2324 2 -344.314 10.1737 -433.614 -0.281908 -0.652231 -0.40628 0.574507 
2323 2 -339.814 18.4332 -430.384 0.227498 -0.110795 -0.803474 0.538886 
2322 2 -335.174 26.9783 -428.505 0.636542 0.565623 -0.511425 0.115451 
2598 2 -249.91 73.3644 -492.606 -0.389764 0.319849 -0.163035 0.848057 
2506 1 -321.929 77.1787 -482.537 -0.099739 0.677432 0.718641 -0.121215 
2599 2 -243.538 73.033 -484.955 -0.889609 0.15209 -0.381363 0.200065 
2637 2 -315.465 -42.7583 -460.031 -0.459388 -0.803392 0.355578 -0.130722 
2636 2 -313.353 -35.0513 -454.183 -0.373414 -0.824603 -0.326937 0.271485 
2635 2 -310.834 -26.3176 -450.283 -0.0545594 -0.295506 -0.772416 0.559529 
2600 2 -236.793 73.7799 -477.754 -0.796984 -0.139372 -0.213756 -0.547449 
2642 3 -273.181 -49.5196 -453.986 -0.545859 0.273204 0.374573 0.697921 
2628 2 -287.121 35.3159 -430.902 -0.107835 -0.300298 -0.724944 0.61045 
2629 2 -289.915 26.0095 -433.336 -0.515852 -0.736081 -0.134792 0.417028 
2630 2 -293.798 17.0187 -434.525 -0.560709 -0.621084 0.521465 -0.167137 
2631 2 -297.779 8.40171 -437.364 -0.279416 0.0180886 0.828736 -0.484558 
2632 2 -302.3 0.512995 -441.43 0.274471 0.590499 0.531566 -0.541677 
2633 2 -305.798 -8.27249 -444.188 0.544863 0.827315 -0.129582 -0.0433954 
2634 2 -308.267 -17.2265 -447.497 0.437393 0.413043 -0.676195 0.425257 
2652 2 -238.979 -17.4811 -398.868 0.338109 -0.178667 -0.112869 -0.917072 
2651 2 -241.549 -19.0621 -408.274 -0.519406 -0.0902791 -0.105607 -0.843157 
2318 3 -338.224 15.4043 -384.887 -0.233993 0.126118 -0.780494 0.565837 
2653 2 -236.82 -14.5302 -389.716 0.873732 -0.309702 0.0548707 -0.371034 
2654 2 -234.388 -9.45064 -381.531 0.809039 -0.184607 0.228284 0.509178 
2655 2 -232.467 -4.18407 -373.299 0.0357248 0.0211745 0.314721 0.948275 
2627 2 -283.915 43.5629 -426.668 0.364539 0.365649 -0.782916 0.347065 
2626 2 -279.477 52.2069 -424.952 0.639257 0.722142 -0.196931 -0.176294 
2625 2 -276.022 61.46 -423.927 0.30849 0.544353 0.499394 -0.599266 
2601 2 -231.397 73.547 -469.382 0.0146982 -0.250393 -0.0559542 -0.966414 
2603 2 -220.191 72.2296 -453.209 0.904374 0.180584 0.227844 0.312384 
2602 2 -226.218 73.6991 -461.012 0.796357 -0.0969931 0.333369 -0.495251 
2650 2 -241.887 -22.5601 -417.539 -0.970398 0.180228 -0.0645246 -0.147249 
2649 2 -240.53 -26.7232 -426.35 -0.733434 0.127061 0.147396 0.65131 
2648 2 -236.59 -31.5455 -434.016 0.0671968 -0.228094 0.224541 0.945008 
2321 2 -333.026 35.9543 -425.049 0.521064 0.772836 0.219896 -0.28786 
2320 2 -331.775 45.3021 -422.07 0.135877 0.256997 0.769235 -0.569006 
2647 2 -233.061 -38.4111 -440.234 0.761201 -0.424494 0.0216451 0.489805 
2624 2 -272.154 70.4722 -422.596 -0.27849 0.0500599 0.737953 -0.612669 
2646 2 -231.382 -45.8375 -446.705 0.866231 -0.338883 -0.209864 -0.301264 
2623 2 -269.187 79.5012 -420.205 -0.556294 -0.603797 0.530239 -0.21169 
2319 2 -330.964 54.497 -418.314 -0.342794 -0.437799 0.710186 -0.43181 
2305 2 -284.658 -35.2473 -375.051 -0.663086 -0.134221 0.63276 0.376719 
2645 2 -229.012 -52.8403 -453.363 0.288739 -0.00758075 -0.392577 -0.873187 
2604 2 -214.546 70.1505 -445.357 0.291019 0.26344 0.0118315 0.919656 
2605 2 -209.821 69.1034 -436.715 -0.552596 0.0585132 -0.230338 0.798848 
2656 2 -231.515 2.08662 -365.725 -0.755626 0.326848 0.12431 0.553847 
2615 3 -227.308 89.9063 -394.994 -0.153506 -0.505281 0.830617 -0.176644 
2622 2 -268.341 88.6443 -416.408 -0.459216 -0.768232 -0.336728 0.292498 
2306 2 -293.908 -32.3479 -373.317 -0.780606 0.450266 0.344771 -0.262769 
2307 2 -301.513 -26.8743 -370.004 -0.342437 0.566534 -0.0606364 -0.74706 
2281 2 -213.528 -24.2813 -370.132 -0.0192296 0.030255 0.969374 0.24296 
2282 2 -213.221 -19.7984 -378.888 -0.159638 0.775324 0.564442 0.234081 
2308 2 -309.342 -21.8728 -366.452 0.41611 0.339777 -0.370182 -0.757872 
2283 2 -211.9 -15.3775 -387.696 -0.204918 0.935891 -0.286436 0.00846215 
2284 2 -210.14 -11.6256 -396.565 -0.105521 0.337938 -0.927865 -0.117171 
2280 2 -213.252 -29.2286 -361.625 0.19018 -0.71618 0.646299 0.182249 
2285 2 -209.098 -9.31461 -406.094 -0.0862083 -0.592016 -0.797031 -0.0826255 
2291 3 -208.709 -53.2115 -409.49 -0.0893248 0.235679 -0.0705012 -0.965146 
2606 2 -206.005 66.1468 -428.057 -0.941243 -0.090687 -0.324926 0.016162 
2607 2 -200.249 64.201 -420.264 -0.569459 -0.22765 -0.117106 -0.781139 
2608 2 -195.304 63.639 -411.7 0.1527 -0.267551 0.0415915 -0.950458 
2286 2 -206.946 -8.87648 -415.792 -0.0709917 -0.993613 -0.0139691 -0.086593 
2287 2 -205.338 -10.5622 -425.301 0.00914131 -0.576976 0.795766 -0.183769 
2609 2 -189.848 63.4712 -403.365 0.852235 -0.0439078 0.0536117 -0.51855 
2610 2 -188.276 63.5866 -393.569 0.956495 -0.0271273 -0.08993 0.276213 
2611 2 -190.613 63.7455 -383.886 0.416277 -0.0374125 0.00745768 0.908437 
2612 2 -191.905 64.0865 -374.102 -0.366297 -0.0666971 0.0604207 0.926136 
2288 2 -203.785 -13.4172 -434.659 0.134202 0.231729 0.961691 -0.0586748 
2289 2 -201.935 -15.2518 -444.155 0.140658 0.847682 0.510751 0.0280223 
2613 2 -193.514 65.0084 -364.391 -0.967923 0.0133706 0.105191 0.227774 
2554 2 -390.311 128.828 -505.959 -0.519331 -0.0687819 0.294598 0.799235 
2555 2 -394.223 132.961 -497.789 -0.929745 0.0249143 0.342442 0.132991 
2556 2 -400.98 134.548 -490.763 -0.621264 0.376986 0.292854 -0.621409 
2557 2 -409.185 135.596 -485.312 0.128585 0.460855 -0.120201 -0.869845 
2558 2 -417.258 136.469 -479.729 0.674523 0.332862 -0.466229 -0.465675 
2559 2 -426.579 136.528 -476.325 0.809403 -0.108248 -0.559201 0.142985 
2621 2 -268.185 97.2246 -411.377 -0.0858285 -0.138799 -0.86146 0.480891 
2620 2 -267.647 106.099 -406.952 0.434042 0.570354 -0.585909 0.378173 
2619 2 -263.627 113.138 -401.2 0.427885 0.87717 -0.0336084 -0.215308 
2618 2 -259.154 119.514 -395.206 0.0227133 0.526248 0.71759 -0.455645 
2617 2 -256.673 126.433 -388.615 -0.249463 -0.270932 0.864045 -0.343207 
2616 2 -253.613 132.343 -381.287 -0.330236 -0.855452 0.397293 0.0361265 
2614 1 -220.544 103.726 -363.576 -0.172535 -0.521768 0.824941 -0.132144 
3642 2 -16.1931 915.406 -411.345 -0.378895 0.368324 -0.15465 -0.834781 
3643 2 -20.722 920.599 -404.19 0.460919 0.0569891 -0.475265 -0.747282 
3640 1 25.7144 908.091 -390.961 -0.83348 0.29379 0.178422 -0.432624 
3644 2 -25.8289 927.212 -399.009 0.903813 -0.336146 -0.226916 -0.136515 
3645 2 -28.9379 933.885 -392.299 0.653391 -0.352607 0.0680287 0.666424 
3646 2 -32.3106 938.733 -384.464 -0.121002 0.0854687 0.253078 0.956036 
3647 2 -31.284 943.441 -375.688 -0.835321 0.098697 0.0511688 0.538404 
3648 2 -30.8879 945.691 -366.085 -0.955108 0.0983525 -0.0476377 -0.275364 
3641 3 6.26408 920.793 -364.812 -0.825863 0.268878 0.181823 -0.46108 
2211 2 -276.595 -249.698 -304.855 -0.612132 0.579334 0.267649 0.466937 
2212 2 -273.943 -240.263 -303.15 -0.740376 0.56976 -0.265668 -0.237987 
2213 2 -273.411 -230.476 -301.589 -0.307708 0.107721 -0.563621 -0.758975 
2209 1 -253.444 -269.173 -268.698 -0.826619 0.553423 0.0495962 -0.0892444 
2210 3 -259.907 -236.696 -257.561 -0.807055 0.569016 0.0537151 -0.148318 
2207 2 -237.036 -259.941 -222.623 0.565222 0.669996 0.476404 -0.068327 
2208 2 -232.629 -267.891 -226.355 0.328523 0.773805 -0.335339 0.425261 
2206 2 -243.376 -252.676 -220.312 0.370071 -0.00755659 0.777718 -0.50808 
2205 2 -249.397 -246.262 -215.593 -0.115477 -0.689665 0.488436 -0.521974 
2204 2 -256.522 -240 -212.605 -0.49022 -0.772393 -0.246342 -0.320014 
2203 2 -263.411 -232.815 -212.168 -0.631936 -0.288685 -0.662914 0.27904 
2214 2 -271.701 -221.314 -298.171 0.388796 -0.290695 -0.436896 -0.757269 
2215 2 -270.218 -212.694 -293.501 0.850246 -0.443313 -0.090947 -0.268856 
2202 2 -269.44 -225.435 -209.512 -0.189997 0.291005 -0.728131 0.590799 
2216 2 -269.573 -204.44 -287.943 0.715263 -0.378295 0.379539 0.4486 
2217 2 -268.136 -195.822 -283.362 0.184829 0.0818466 0.491363 0.847173 
2239 2 -336.153 -83.7165 -324.684 -0.751553 -0.158042 -0.139389 0.625109 
2238 2 -337.12 -78.3195 -332.904 0.0335975 0.0633818 -0.246281 0.96654 
2240 2 -336.551 -88.412 -316.078 -0.929314 -0.168888 0.0855653 -0.317066 
2230 2 -256.517 -75.4884 -284.433 0.562317 -0.763693 0.196136 0.249203 
2229 2 -258.19 -85.0833 -282.438 0.542823 -0.642348 -0.384426 -0.380721 
2224 2 -265.974 -131.049 -268.436 0.114386 -0.185102 0.72451 0.654017 
2225 2 -266.56 -121.155 -269.28 -0.319793 0.477253 0.598438 0.558422 
2226 2 -265.332 -111.418 -270.943 -0.551886 0.825681 -0.00484118 0.116833 
2227 2 -263.469 -102.541 -274.937 -0.417218 0.531921 -0.656703 -0.334261 
2228 2 -261.487 -93.6553 -278.861 -0.11432 -0.199616 -0.808662 -0.541434 
2243 2 -333.273 -101.226 -289.793 0.944917 0.0951719 0.270742 -0.157395 
2244 2 -328.342 -103.977 -281.605 0.650189 0.234945 0.265683 0.671914 
2245 2 -321.497 -103.785 -274.57 -0.160888 0.348261 -0.0930987 0.918783 
2246 2 -314.688 -104.476 -267.302 -0.843387 0.248263 -0.256658 0.401485 
2247 2 -308.665 -102.486 -259.688 -0.879046 0.10756 -0.31118 -0.344784 
2248 2 -304.043 -98.4268 -251.829 -0.225855 -0.245665 -0.334074 -0.881495 
2249 2 -298.149 -93.4654 -245.514 0.483581 -0.475165 -0.00306826 -0.735091 