ITEM: TIMESTEP
10000000
ITEM: NUMBER OF ATOMS
4067
ITEM: BOX BOUNDS pp pp pp
-4.6310929470000001e+03 4.6704658980000004e+03
-4.6310929470000001e+03 4.6704658980000004e+03
-4.6310929470000001e+03 4.6704658980000004e+03
ITEM: ATOMS id type x y z c_q[1] c_q[2] c_q[3] c_q[4] 
2613 2 -577.297 63.83 -529.003 -0.203284 0.730401 0.643209 -0.107109 
2649 2 -554.024 46.2448 -541.423 0.25715 -0.716962 -0.443906 -0.472003 
2650 2 -549.7 54.1827 -545.652 0.500559 -0.839331 0.201759 -0.0652472 
2651 2 -547.162 62.5941 -550.172 0.290696 -0.438887 0.759998 0.381152 
2648 2 -556.081 37.8706 -536.585 -0.144032 0.053831 -0.848131 -0.506983 
2652 2 -546.526 70.8218 -555.714 -0.219975 0.283967 0.797145 0.485318 
2612 2 -573.293 62.3433 -520.141 -0.199046 -0.0284013 0.976151 0.0818684 
2647 2 -557.322 28.5083 -533.697 -0.529731 0.682976 -0.421925 -0.273695 
2646 2 -558.874 19.1474 -530.965 -0.55813 0.741715 0.23449 0.28873 
2645 2 -557.64 9.46645 -529.643 -0.304819 0.226738 0.724444 0.575201 
2644 2 -556.433 -0.0319405 -527.289 0.342628 -0.502332 0.595454 0.525074 
2643 2 -554.027 -9.19809 -524.454 0.623934 -0.76805 -0.127794 0.0668926 
2653 2 -546.856 79.5346 -560.442 -0.553604 0.786347 0.204021 0.183186 
2614 1 -619.678 82.1572 -519.403 0.894501 0.0681965 0.182958 0.402173 
2654 2 -546.525 88.7801 -564.065 -0.494687 0.698724 -0.332017 -0.396023 
2655 2 -548.053 98.3455 -565.843 -0.0213278 0.0810576 -0.702253 -0.706976 
2663 2 -566.66 172.823 -572.91 0.682641 -0.179442 -0.620804 -0.341181 
2662 2 -560.112 165.582 -571.62 0.151559 0.373415 -0.650988 -0.643278 
2664 2 -573.868 179.312 -571.389 0.656104 -0.557756 -0.372266 0.346201 
2665 2 -582.358 184.126 -569.864 0.208275 -0.534844 0.124612 0.809343 
2666 2 -590.842 188.409 -567.135 -0.466857 -0.302542 0.557811 0.615922 
2667 2 -599.835 192.209 -565.211 -0.773143 0.20206 0.599364 0.0467358 
2661 2 -556.96 156.636 -568.795 -0.448456 0.755211 -0.298572 -0.37336 
2660 2 -554.896 147.116 -566.934 -0.612224 0.695693 0.344302 0.150497 
2659 2 -553.603 137.268 -566.434 -0.257186 0.221932 0.710548 0.616217 
2658 2 -552.555 127.369 -566.187 0.270018 -0.357053 0.610466 0.653402 
2669 3 -564.293 181.705 -528.945 -0.566554 -0.512 -0.564563 -0.313275 
2657 2 -551.514 117.598 -565.911 0.665582 -0.707131 0.107721 0.212986 
2656 2 -548.421 108.233 -566.008 0.648783 -0.434919 -0.528283 -0.332931 
2668 1 -596.467 190.213 -518.203 -0.530169 -0.552434 -0.559896 -0.31663 
2695 1 -476.385 344.133 -518.326 -0.792834 -0.39794 0.233759 -0.398014 
2857 1 -370.521 386.84 -516.434 0.564472 -0.33214 0.405289 0.637805 
2694 2 -433.74 324.578 -523.452 -0.336896 0.437338 0.658792 0.511107 
2693 2 -433.52 315.078 -520.8 0.203302 -0.232097 0.751972 0.582526 
2692 2 -435.451 305.819 -517.654 0.552366 -0.679562 0.444188 0.189165 
2856 2 -332.391 410.701 -530.715 -0.4769 -0.871214 -0.100251 0.0591754 
2855 2 -332.348 419.026 -525.476 -0.21817 -0.47379 -0.746899 0.412392 
2854 2 -332.761 426.535 -519.077 0.0995149 0.302664 -0.834287 0.449952 
2932 2 -444.653 597.174 -542.704 -0.242133 -0.38933 0.599966 0.655618 
2933 2 -452.948 602.488 -543.619 -0.665437 0.147995 0.718569 0.137661 
2931 2 -435.379 593.673 -541.755 0.330131 -0.728568 -0.0975719 0.592184 
2934 2 -462.097 606.463 -544.196 -0.614816 0.533762 0.299733 -0.497253 
2937 2 -489.33 617.327 -541.57 0.659873 -0.477473 -0.549211 0.18696 
2935 2 -471.052 609.704 -541.526 0.0341572 0.618668 -0.270038 -0.736996 
2936 2 -480.346 613.082 -540.835 0.536101 0.113891 -0.728269 -0.411399 
2930 2 -428.024 588.178 -537.857 0.507254 -0.476092 -0.717367 -0.0376061 
2929 2 -420.083 583.132 -534.823 0.371671 0.242967 -0.762837 -0.470008 
2928 2 -411.606 578.805 -532.326 -0.0664565 0.741503 -0.29051 -0.601132 
2927 2 -404.276 572.829 -529.562 -0.5546 0.715188 0.360328 -0.226031 
2926 2 -400.418 564.905 -525.037 -0.367851 0.267966 0.816605 0.355016 
2925 2 -395.281 559.25 -518.67 -0.0684377 -0.529812 0.745484 0.398585 
2962 2 -262.413 615.478 -537.25 0.388476 -0.258799 0.78608 -0.405201 
2963 2 -254.471 611.108 -541.203 0.49515 0.510069 0.70086 0.0587443 
2964 2 -247.133 606.913 -546.228 0.243121 0.876121 0.0273626 0.415398 
2965 1 -218.051 643.63 -540.674 0.825526 0.096922 -0.394801 -0.391465 
2961 2 -270.121 621.011 -534.326 -0.143771 -0.740186 0.295231 -0.586765 
2966 3 -244.315 650.907 -518.758 0.813497 0.0555165 -0.407138 -0.411557 
2960 2 -277.866 626.294 -531.093 -0.497995 -0.751743 -0.33916 -0.268056 
2959 2 -285.625 630.863 -527.136 -0.487209 -0.113632 -0.825998 0.259698 
2968 2 -213.382 685.416 -516.142 -0.638635 0.345362 0.278859 -0.628577 
2958 2 -294.401 633.896 -523.703 -0.246125 0.610692 -0.525476 0.538845 
2957 2 -303.41 635.727 -520.277 0.242527 0.780685 0.173303 0.549252 
2956 2 -312.536 636.988 -516.638 0.528507 0.34417 0.764811 0.131496 
2967 2 -204.834 684.486 -521.109 -0.863076 0.0642855 0.497915 0.0552021 
2591 2 -527.917 -61.8326 -421.205 -0.424594 -0.2064 0.473377 0.743662 
2590 2 -521.871 -68.1209 -425.718 0.361405 -0.505834 0.195609 0.758457 
2589 2 -517.098 -75.067 -430.983 0.844653 -0.461956 -0.196972 0.185367 
2560 1 -384.583 -65.6259 -365.571 -0.292329 0.559012 -0.258329 -0.731652 
100 2 240.775 -106.487 -365.43 -0.276697 -0.495487 -0.82303 -0.0234976 
101 2 245.538 -108.644 -373.89 -0.111213 -0.941578 -0.266112 -0.173917 
102 2 249.187 -109.915 -382.991 0.0452181 -0.862515 0.461184 -0.203304 
103 1 295.189 -101.76 -376.368 -0.657139 -0.051902 0.21443 0.72076 
2592 2 -534.855 -56.386 -416.672 -0.764727 0.391738 0.474625 0.190956 
2611 2 -569.444 60.5767 -511.207 -0.0383045 -0.838771 0.500553 0.210813 
2642 3 -522.176 27.1104 -505.28 -0.615646 0.600939 -0.189648 -0.473166 
2610 2 -567.059 60.8668 -501.571 0.0578582 -0.940285 -0.307362 0.134333 
2609 2 -565.274 59.2438 -491.909 0.116713 -0.298658 -0.945544 -0.0559332 
2593 2 -540.886 -48.7335 -414.744 -0.640109 0.667274 -0.099457 -0.36758 
2594 2 -545.22 -39.9494 -413.891 -0.0307905 0.23909 -0.635454 -0.733544 
2595 2 -548.557 -30.5829 -413.211 0.493828 -0.445872 -0.501552 -0.552972 
2606 2 -567.728 50.4519 -463.679 -0.0794892 0.708088 0.681595 0.166497 
2596 2 -548.747 -20.8303 -411.922 0.710023 -0.689112 0.109708 0.0946372 
2597 2 -548.466 -10.8373 -411.832 0.289927 -0.43265 0.643007 0.561515 
2598 2 -549.911 -1.19893 -413.695 -0.316136 0.201233 0.786109 0.491524 
2599 2 -553.152 7.57035 -416.781 -0.55437 0.702245 0.444471 0.0444035 
2600 2 -557.551 15.4031 -420.916 -0.343131 0.861434 -0.285059 -0.242764 
2601 2 -559.992 22.677 -427.183 -0.0912079 0.295276 -0.82234 -0.477756 
2602 2 -561.472 31.0994 -432.204 0.379595 -0.422706 -0.762482 -0.309596 
2603 2 -564.155 39.0836 -437.528 0.334266 -0.92009 -0.181783 0.0930318 
2604 2 -566.481 44.8573 -445.282 0.0796811 -0.756139 0.613234 0.214126 
2605 2 -568.218 49.1359 -453.966 0.00406855 -0.0969991 0.992557 0.0735226 
2607 2 -566.923 53.5501 -473.061 -0.180056 0.975711 -0.124043 0.0135004 
2608 2 -565.987 57.0308 -482.276 -0.0591467 0.491027 -0.864173 -0.0927291 
2632 2 -525.642 68.6878 -471.887 0.509174 -0.00307462 0.796761 -0.325431 
2615 3 -604.187 80.9795 -488.097 0.869858 0.137534 0.24893 0.403069 
2631 2 -533.666 72.5342 -467.565 0.0258211 -0.739941 0.414674 -0.529024 
2630 2 -540.353 77.256 -462.021 -0.390631 -0.800662 -0.400094 -0.21511 
2629 2 -548.31 81.4036 -457.797 -0.523184 -0.138361 -0.815525 0.20507 
2628 2 -556.939 85.6855 -455.638 -0.172594 0.556411 -0.541406 0.606216 
2627 2 -566.318 88.5878 -454.472 0.32246 0.722776 0.141926 0.594534 
2626 2 -575.117 92.3572 -452.111 0.623396 0.316425 0.714705 0.0212021 
2625 2 -584.164 95.5831 -449.726 0.410943 -0.36091 0.698221 -0.461906 
2633 2 -517.451 63.8329 -474.574 0.621234 0.570552 0.458644 0.279616 
2641 1 -508.824 -4.59435 -511.657 -0.620514 0.594217 -0.214002 -0.464835 
2640 2 -472.023 19.3739 -494.571 0.513522 0.799948 0.274184 0.145607 
2639 2 -476.551 26.7681 -489.919 0.396674 0.257004 0.814598 -0.336198 
2638 2 -479.726 34.2651 -484.344 -0.072327 -0.426017 0.755309 -0.492734 
2588 3 -509.955 -24.1936 -438.637 0.209552 -0.405978 0.289201 0.841209 
2637 2 -486.293 40.7341 -480.613 -0.397576 -0.824888 -0.0120372 -0.401682 
2634 2 -509.128 58.6561 -475.759 0.224095 0.660806 -0.221943 0.681071 
2587 1 -490.028 -46.4993 -456.939 0.235113 -0.46505 0.274589 0.808116 
2636 2 -493.909 46.0874 -477.363 -0.584878 -0.551446 -0.590415 -0.0723523 
2635 2 -501.015 52.9243 -476.411 -0.389291 0.128734 -0.734383 0.540889 
2578 2 -497.645 15.6507 -404.51 0.0394715 -0.156158 -0.971134 -0.175941 
2579 2 -498.234 19.3701 -413.723 0.0527552 -0.877563 -0.448468 -0.161174 
2577 2 -494.686 10.3729 -396.669 -0.0895505 0.622718 -0.725212 -0.279769 
2580 2 -496.405 21.623 -423.196 -0.0517898 -0.865344 0.434898 -0.243643 
2576 2 -492.547 4.51191 -389.032 -0.280966 0.952296 0.00323548 -0.119078 
2581 2 -492.336 18.8906 -431.797 0.0791961 -0.157885 0.962902 -0.204012 
2575 2 -489.016 -1.60822 -382.027 -0.381106 0.614666 0.685103 0.0870505 
2582 2 -489.901 15.8707 -440.976 0.227732 0.607154 0.760736 -0.0279813 
2583 2 -486.734 12.577 -449.67 0.309824 0.92613 -0.0607864 0.206389 
2584 2 -483.244 6.99863 -457.056 -0.076403 0.579803 -0.723991 0.365826 
2574 2 -484.691 -7.46696 -375.197 -0.169782 -0.163998 0.89477 0.379031 
2585 2 -478.427 1.68091 -463.87 -0.348042 -0.319049 -0.853324 0.221162 
2586 2 -474.259 -4.22304 -470.762 -0.375346 -0.866483 -0.311815 -0.10533 
2558 2 -371.009 -18.73 -378.641 0.100988 -0.0511032 0.909359 -0.40032 
2573 2 -480.724 -13.8072 -368.753 0.237651 -0.819634 0.376565 0.360446 
2559 2 -368.937 -25.7808 -385.283 0.38204 0.675368 0.605507 -0.176874 
2557 2 -375.276 -12.0744 -372.654 -0.196046 -0.747124 0.4867 -0.408039 
2556 2 -381.045 -8.02852 -365.65 -0.326967 -0.86913 -0.332367 -0.16504 
2572 2 -475.306 -20.0961 -363.312 0.450505 -0.797278 -0.389411 0.0987559 
45 2 225.22 -33.8107 -377.516 -0.286907 0.73607 0.304703 0.532016 
46 2 231.338 -26.3116 -379.444 -0.701869 0.629668 -0.32591 0.0684197 
47 2 236.427 -17.928 -379.834 -0.541979 0.131932 -0.701588 -0.443426 
44 2 219.67 -41.4085 -374.426 0.200721 0.224218 0.761067 0.574643 
43 2 213.446 -45.7189 -368.152 0.408475 -0.451014 0.792058 0.0487632 
48 2 242.813 -10.3674 -379.745 0.0772683 -0.535345 -0.486602 -0.686042 
42 2 207.688 -50.9186 -361.88 0.346581 -0.884625 0.130187 -0.2835 
2624 2 -593.467 98.4864 -448.044 -0.0632675 -0.750575 0.194386 -0.62837 
2616 2 -651.445 102.276 -490.884 -0.829111 -0.227443 -0.156175 -0.486265 
2617 2 -646.594 100.22 -482.511 -0.150721 -0.244072 -0.00822836 -0.957938 
2618 2 -641.7 99.7257 -473.926 0.697741 -0.192072 0.233589 -0.649385 
2622 2 -612.784 101.728 -449.436 -0.738411 0.0822324 -0.633087 0.217229 
2623 2 -603.099 100.563 -447.581 -0.53024 -0.575606 -0.453014 -0.426968 
2621 2 -622.389 101.839 -451.85 -0.325995 0.541321 -0.254349 0.732123 
2620 2 -630.018 99.8437 -457.854 0.296003 0.373546 0.261561 0.839304 
2619 2 -636.692 99.5297 -465.356 0.893943 0.108404 0.331836 0.281067 
2670 2 -573.863 181.042 -477.854 -0.0413165 -0.831688 0.0102832 -0.553608 
2671 2 -564.687 179.335 -481.05 0.463013 -0.504681 0.62401 -0.376201 
2673 2 -546.719 179.933 -488.929 0.0921101 0.793167 0.373919 0.471791 
2672 2 -555.165 179.163 -483.88 0.446962 0.203511 0.851232 0.184965 
2674 2 -538.51 182.299 -493.975 -0.235213 0.776082 -0.360891 0.460574 
2675 2 -529.887 183.426 -498.706 -0.580307 0.182874 -0.792387 -0.0438683 
2676 2 -520.639 186.471 -500.972 -0.205246 -0.44486 -0.693768 -0.527883 
2677 2 -512.773 191.259 -504.606 0.309046 -0.759116 -0.0147418 -0.572727 
2678 2 -504.35 196.224 -506.274 0.690565 -0.508781 0.513821 -0.0157971 
2679 2 -496.981 202.786 -506.515 0.510354 0.225999 0.603659 0.569262 
2680 2 -488.693 208.041 -505.14 -0.161261 0.619731 0.237178 0.730531 
2681 2 -481.015 214.213 -503.896 -0.735091 0.5585 -0.206237 0.324322 
2682 2 -474.361 220.885 -501.102 -0.694628 0.228837 -0.550756 -0.402235 
2683 2 -468.444 228.546 -499.276 -0.0420331 -0.465084 -0.598326 -0.651104 
2717 2 -440.646 236.855 -368.352 0.675141 0.0665606 0.347185 -0.64747 
2684 2 -461.981 235.829 -500.346 0.607967 -0.732971 -0.0677516 -0.297555 
2716 2 -445.376 242.281 -375.149 0.047613 -0.260331 0.265196 -0.927163 
2685 2 -458.226 244.906 -500.932 0.626817 -0.492851 0.517052 0.311218 
2723 3 -402.111 248.281 -380.43 0.427245 -0.494497 -0.754519 0.0603027 
2715 2 -448.401 247.213 -383.201 -0.717474 -0.331441 0.0226365 -0.612263 
2700 2 -519.044 326.074 -479.284 -0.75095 -0.437133 0.101717 -0.4844 
2699 2 -520.632 332.364 -486.679 -0.867989 -0.304911 -0.170752 0.3528 
2698 2 -519.481 338.218 -494.587 -0.346486 -0.156302 -0.276581 0.882621 
2697 2 -520.218 345.878 -500.867 0.369078 0.233169 -0.369651 0.820227 
2701 2 -516.136 318.92 -473.063 -0.181857 -0.330957 0.327638 -0.866054 
2714 2 -451.885 251.594 -391.378 -0.952224 -0.201785 -0.206067 0.100439 
2713 2 -453.055 256.484 -399.905 -0.539908 -0.118121 -0.224943 0.802463 
2702 2 -511.449 311.882 -467.924 0.562537 -0.0694246 0.55196 -0.611615 
2686 2 -455.088 254.264 -501.161 0.150489 0.0711316 0.71638 0.677564 
2712 2 -454.284 261.736 -408.255 0.221073 0.124123 -0.26628 0.929954 
2711 2 -456.976 267.947 -415.416 0.814631 0.36727 -0.0364306 0.447394 
2691 2 -438.676 298.523 -511.849 0.370128 -0.824427 -0.31188 -0.293354 
2690 2 -443.018 291.099 -506.926 -0.0234003 -0.346242 -0.785883 -0.511818 
2689 2 -447.56 282.804 -503.833 -0.501417 0.402785 -0.698114 -0.314614 
2688 2 -449.881 273.325 -502.381 -0.617836 0.781301 -0.045285 0.0761397 
2687 2 -452.265 263.794 -501.343 -0.407838 0.598079 0.453434 0.51997 
2703 2 -504.342 306.374 -463.709 0.859729 0.287401 0.42221 0.00247773 
2696 3 -478.12 315.688 -498.059 -0.815699 -0.398547 0.240877 -0.343181 
2710 2 -460.519 273.319 -422.919 0.909832 0.206174 0.277858 -0.229114 
2709 2 -464.696 278.261 -430.467 0.410787 -0.061937 0.3767 -0.827958 
2708 2 -470.406 284.345 -435.67 -0.34692 -0.474605 0.167466 -0.791424 
2707 2 -476.091 289.439 -442.011 -0.852151 -0.366888 -0.200051 -0.314979 
2706 2 -482.913 294.135 -447.411 -0.727694 0.000369637 -0.480577 0.489394 
2705 2 -489.622 298.749 -453.055 -0.120255 0.356215 -0.315148 0.871396 
2704 2 -497.438 302.119 -457.996 0.505276 0.478914 0.147629 0.702526 
2728 2 -382.315 266.267 -413.703 0.205949 0.471556 -0.604917 -0.607697 
2727 2 -374.041 262.398 -410.007 -0.283456 0.826402 0.0755372 -0.480631 
2729 2 -390.189 271.796 -415.94 0.667693 -0.176917 -0.666242 -0.281084 
2730 2 -397.828 278.207 -415.606 0.650925 -0.620753 -0.12861 0.417638 
2731 2 -404.308 285.341 -413.601 0.00623481 -0.496882 0.316339 0.808084 
2732 2 -412.163 290.791 -410.853 -0.721992 -0.0150657 0.467813 0.50956 
2733 2 -419.133 295.209 -405.339 -0.849257 0.350628 0.235435 -0.316848 
2734 2 -425.624 299.425 -399.252 -0.229563 0.37938 0.00705502 -0.896282 
2735 2 -432.382 301.354 -392.347 0.606423 0.240992 -0.226121 -0.723218 
2736 2 -438.332 301.764 -384.444 0.931387 -0.0293004 -0.348544 0.100877 
2737 2 -444.91 301.449 -377.087 0.46407 -0.354536 -0.164128 0.794987 
2738 2 -452.219 302.744 -370.756 -0.244769 -0.419211 0.120296 0.865956 
2805 2 -391.235 373.896 -473.777 0.466083 -0.0690883 0.597201 0.64911 
2859 2 -411.081 382.227 -492.886 0.645101 -0.749796 -0.065775 0.131619 
2806 2 -386.897 382.338 -470.766 -0.2799 0.42165 0.405746 0.761077 
2860 2 -413.769 391.566 -494.3 0.359044 -0.539781 0.5219 0.554386 
2807 2 -382.835 390.979 -467.891 -0.736211 0.601575 -0.0965642 0.294579 
2803 1 -373.211 342.92 -443.014 0.848826 -0.499915 0.171401 -0.014154 
2726 2 -366.873 258.342 -404.506 -0.479841 0.549528 0.679647 -0.0764965 
2739 2 -460.262 303.272 -364.977 -0.800922 -0.113669 0.471443 0.351205 
2808 2 -377.554 398.862 -464.944 -0.728092 0.299897 -0.471877 -0.396579 
2794 2 -371.54 396.858 -387.988 -0.0110682 0.416906 -0.471468 0.777036 
2761 2 -475.215 398.202 -365.87 0.25295 -0.615419 0.72765 0.166734 
2804 3 -363.895 373.788 -429.544 0.850211 -0.494694 0.178062 0.0267074 
2795 2 -364.685 389.861 -386.72 -0.590703 -0.119617 -0.641632 0.474416 
2724 2 -351.946 255.633 -391.865 -0.102997 -0.83521 0.366695 0.396675 
2725 2 -359.246 257.104 -398.352 -0.400625 -0.23995 0.867768 0.170005 
2796 2 -358.297 382.341 -385.72 -0.65977 -0.663552 -0.347306 -0.0614914 
2797 2 -353.322 373.941 -386.975 -0.295166 -0.692897 0.432216 -0.495943 
2798 2 -348.683 365.886 -390.305 0.193474 -0.0322837 0.777439 -0.59759 
2799 2 -344.708 357.145 -392.301 0.38413 0.6731 0.581808 -0.246738 
2802 2 -347.396 330.939 -405.448 -0.179992 -0.422495 -0.699501 0.54754 
2800 2 -344.025 348.934 -397.933 0.541894 0.814604 -0.183903 0.0946036 
2801 2 -345.012 340.001 -402.058 0.309768 0.253993 -0.775864 0.487408 
2762 2 -473.877 403.662 -374.001 0.133712 0.268705 0.928491 0.218686 
2861 2 -415.282 401.332 -494.893 -0.321104 0.0870954 0.66887 0.66477 
2793 2 -377.978 404.29 -387.182 0.494319 0.742214 -0.0335269 0.451268 
2763 2 -470.141 407.517 -382.244 -0.169459 0.880661 0.326323 0.298718 
2764 2 -465.503 412.586 -389.435 -0.292799 0.83421 -0.46308 0.0626095 
2792 2 -385.832 410.173 -386.241 0.681325 0.492005 0.541493 0.0226297 
2765 2 -461.451 417.256 -397.229 -0.250289 0.222583 -0.901401 -0.274386 
2766 2 -457.357 423.262 -404.087 -0.019886 -0.485926 -0.743217 -0.459465 
2767 2 -452.56 430.082 -409.558 0.359761 -0.872837 -0.192307 -0.267854 
2791 2 -393.431 416.602 -385.336 0.414078 -0.120038 0.745556 -0.508209 
2862 2 -417.646 410.926 -494.145 -0.744489 0.535175 0.322448 0.235268 
2768 2 -449.174 437.716 -414.878 0.274213 -0.752404 0.572629 0.175474 
2769 2 -448.084 444.05 -422.541 0.0396689 -0.0974974 0.894171 0.435177 
2863 2 -420.104 420.229 -491.686 -0.596185 0.570618 -0.404935 -0.393683 
2770 2 -448.908 451.857 -428.613 -0.367833 0.672586 0.567648 0.300171 
2864 2 -419.596 430.047 -491.234 -0.0541481 0.0862786 -0.740347 -0.664463 
2865 2 -419.15 439.853 -491.776 0.507365 -0.419297 -0.532173 -0.532506 
2866 2 -419.321 449.732 -491.213 0.7916 -0.583326 0.0283081 0.179721 
2867 2 -420.92 458.779 -487.783 0.424209 -0.351675 0.492147 0.673916 
2868 2 -420.901 468.441 -485.651 -0.33003 0.20432 0.640758 0.662391 
2875 2 -451.351 528.948 -481.294 -0.293555 -0.155786 0.758174 0.561006 
2775 2 -431.248 495.122 -438.927 0.65972 -0.572181 0.476086 0.103544 
2774 2 -436.31 486.664 -437.891 0.475711 -0.723787 -0.195405 -0.460053 
2773 2 -440.848 477.916 -437.912 -0.00391287 -0.342997 -0.590119 -0.730819 
2772 2 -444.965 468.85 -437.05 -0.485885 0.296596 -0.686175 -0.452891 
2771 2 -448.583 460.146 -433.956 -0.558879 0.803955 -0.193019 0.0636705 
2869 2 -422.705 478.05 -484.19 -0.730263 0.51964 0.437504 0.0726711 
2870 2 -428.405 486.144 -483.485 -0.586556 0.629121 -0.141854 -0.489934 
2871 2 -432.158 495.288 -482.849 -0.114518 0.324784 -0.525298 -0.778115 
2872 2 -435.708 504.187 -480.305 0.519783 -0.194915 -0.640921 -0.530145 
2873 2 -440.239 512.848 -479.085 0.655914 -0.675786 -0.319615 0.104579 
2874 2 -445.527 521.048 -480.561 0.277509 -0.638729 0.350053 0.62648 
2777 3 -446.165 477.979 -392.141 -0.722877 -0.688504 -0.058056 -0.00645529 
2776 1 -446.741 512.498 -397.901 -0.766303 -0.641566 -0.0329525 -0.00925956 
2921 2 -376.801 537.32 -491.725 -0.234541 0.768016 -0.502272 -0.320725 
2920 2 -374.046 531.222 -484.416 -0.364205 0.882634 0.297078 0.0075642 
2919 2 -372.481 523.843 -477.984 -0.146609 0.190122 0.892407 0.382058 
2918 2 -370.536 516.559 -471.499 0.18045 -0.608038 0.700147 0.327905 
2917 2 -367.225 509.302 -465.617 0.432395 -0.884907 -0.113986 0.130314 
2876 2 -457.437 536.378 -483.775 -0.585018 0.461361 0.665718 0.0414682 
2922 2 -380.112 544.159 -498.138 0.238739 0.146905 -0.905194 -0.319446 
2790 2 -400.646 421.688 -380.934 -0.101271 -0.802502 0.321366 -0.4924 
2789 2 -406.572 427.743 -375.831 -0.415919 -0.802602 -0.373296 -0.208545 
2788 2 -414.037 431.852 -370.714 -0.507209 -0.258899 -0.816098 0.0984604 
2923 2 -385.099 549.268 -504.921 0.382751 -0.610262 -0.691894 -0.0486252 
2858 3 -374.464 418.028 -501.132 0.542393 -0.365993 0.362168 0.663847 
2787 2 -421.229 437.134 -366.378 -0.187246 0.475708 -0.701603 0.496381 
2877 2 -464.983 541.996 -486.919 -0.323391 0.860546 0.0171691 -0.393172 
2786 2 -427.41 443.147 -361.628 0.308325 0.839532 -0.101792 0.435615 
2878 2 -471.713 547.101 -491.952 0.103328 0.624056 -0.571359 -0.522901 
2809 2 -373.235 406.91 -461.139 -0.210018 -0.22008 -0.320462 -0.897085 
2810 2 -367.637 411.548 -454.545 0.560968 -0.337359 -0.0288268 -0.755429 
2879 2 -479.326 551.587 -496.396 0.439045 -0.0654256 -0.847999 -0.289579 
2811 2 -362.814 415.585 -446.863 0.919863 -0.246582 0.272976 -0.136138 
2916 2 -360.921 503.853 -460.358 0.427518 -0.319493 -0.830159 -0.161211 
2853 2 -334.292 432.383 -511.215 0.261415 0.889413 -0.327109 0.183322 
2915 2 -354.706 500.023 -453.746 0.177599 0.465733 -0.782133 -0.373924 
2852 2 -336.889 438.201 -503.619 0.320299 0.770207 0.548443 -0.0583093 
2914 2 -348.268 496.851 -446.972 -0.132206 0.908053 -0.164871 -0.361634 
2913 2 -342.167 493.684 -439.828 -0.350838 0.669866 0.642864 -0.122139 
2812 2 -357.104 418.748 -439.453 0.669262 0.102323 0.361601 0.640986 
2851 2 -336.176 443.476 -495.22 -0.0167594 0.0884333 0.95781 -0.272945 
2821 2 -340.952 462.284 -366.328 -0.642117 0.281544 0.290275 0.651275 
2820 2 -341.705 455.789 -373.697 0.154914 0.00225091 0.339843 0.927633 
2819 2 -342.697 448.762 -380.535 0.834394 -0.320192 0.215554 0.393447 
2818 2 -343.967 442.751 -388.307 0.862335 -0.327672 -0.075502 -0.378561 
2817 2 -343.872 437.953 -397.01 0.211293 -0.103688 -0.24777 -0.939795 
2816 2 -343.49 432.993 -405.635 -0.453439 0.178413 -0.231811 -0.841918 
2815 2 -345.193 429.229 -414.598 -0.943594 0.181492 -0.113328 -0.25268 
2814 2 -347.932 426.503 -423.739 -0.799363 0.215447 -0.0592196 0.557758 
2813 2 -351.597 422.536 -432.008 -0.152578 0.233947 0.224866 0.933501 
2911 1 -311.036 529.036 -443.337 0.156887 -0.797658 0.0898655 0.575372 
2850 2 -334.483 447.337 -486.289 -0.187719 -0.705166 0.676847 -0.0968546 
2849 2 -332.271 452.128 -477.824 -0.226339 -0.958426 -0.0948439 0.145582 
2848 2 -329.82 455.929 -468.979 -0.0221118 -0.55065 -0.797532 0.245434 
2847 2 -326.104 459.648 -460.604 0.208174 0.228807 -0.940582 0.140063 
2846 2 -322.828 463.207 -451.922 0.249025 0.905259 -0.332675 -0.0884272 
2845 2 -318.514 466.402 -443.678 0.0764803 0.882106 0.394002 -0.246582 
2844 2 -313.063 471.658 -437.191 -0.255493 0.168072 0.886583 -0.347054 
2843 2 -309.925 477.059 -429.472 -0.350513 -0.65148 0.667542 -0.0842756 
2842 2 -306.365 481.864 -421.603 -0.212031 -0.938919 -0.146952 0.22777 
2841 2 -303.517 487.838 -414.218 0.0148149 -0.279677 -0.886631 0.368029 
2840 2 -301.767 493.444 -406.219 0.245795 0.542888 -0.771629 0.222364 
2839 2 -299.322 500.558 -399.811 0.401794 0.902723 0.0451918 -0.147006 
2838 2 -294.383 508.288 -395.938 0.0630253 0.490208 0.649278 -0.578067 
2837 2 -289.459 515.919 -392.08 -0.417501 -0.170469 0.796475 -0.402816 
2836 2 -284.685 523.906 -388.825 -0.587531 -0.704113 0.398198 0.0216886 
2912 3 -341.024 543.536 -454.456 0.20754 -0.817134 0.0807276 0.531697 
2835 2 -281.173 531.675 -383.91 -0.37912 -0.830097 -0.279014 0.298929 
2834 2 -278.527 539.808 -378.884 0.0157369 -0.368379 -0.801334 0.471077 
2833 2 -277.162 546.887 -371.996 0.247196 0.413783 -0.814554 0.322768 
2886 2 -520.72 557.542 -413.12 -0.119149 -0.669617 -0.0625784 -0.730411 
2884 1 -525.274 569.584 -458.549 0.57113 0.571786 0.427273 0.40535 
2880 2 -486.401 557.14 -500.385 0.661099 -0.593792 -0.441669 0.123644 
2888 2 -501.215 554.47 -411.419 0.64113 -0.0192783 0.767161 0.00665128 
2889 2 -491.456 554.547 -412.97 0.411064 0.62273 0.458529 0.482686 
2887 2 -510.923 556.406 -412.307 0.438099 -0.423216 0.538147 -0.582542 
2891 2 -472.131 555.247 -416.965 -0.55452 0.428522 -0.644874 0.304982 
2892 2 -462.715 556.707 -419.423 -0.525878 -0.196812 -0.761887 -0.322871 
2890 2 -481.825 554.022 -415.154 -0.109785 0.782829 -0.0520387 0.61026 
2924 2 -390.366 554.199 -511.711 0.237814 -0.916265 0.0903048 0.309431 
2939 3 -451.229 631.966 -509.395 -0.554768 -0.37219 -0.723489 -0.173986 
2949 2 -378.037 643.808 -496.585 0.593335 0.0070177 0.80154 -0.0737382 
2948 2 -387.445 643.142 -493.848 0.342792 -0.70749 0.408035 -0.464176 
2938 1 -484.205 637.29 -499.141 -0.531139 -0.320889 -0.762595 -0.182675 
2947 2 -396.805 645.047 -491.111 -0.200301 -0.785796 -0.125104 -0.571623 
2883 2 -508.862 576.333 -502.258 -0.642782 0.438296 0.617326 0.116774 
2881 2 -493.668 563.822 -501.03 0.241194 -0.6854 0.16593 0.666723 
2882 2 -501.726 569.652 -501.09 -0.309339 -0.228134 0.716049 0.582699 
2885 3 -491.117 562.439 -455.48 0.576406 0.574144 0.407574 0.414727 
2893 2 -453.425 559.069 -421.901 -0.0981242 -0.609567 -0.296611 -0.728575 
2894 2 -444.103 562.552 -421.638 0.39842 -0.749719 0.217745 -0.481426 
2895 2 -435.033 565.886 -423.893 0.596845 -0.315614 0.736653 -0.0387998 
2896 2 -426.191 569.228 -426.808 0.417077 0.513652 0.663419 0.349403 
2897 2 -417.35 569.666 -431.335 -0.119737 0.832829 -0.0373023 0.539136 
2898 2 -408.476 571.321 -435.423 -0.486688 0.491701 -0.661513 0.289423 
2899 2 -399.393 571.635 -439.277 -0.567819 -0.0809352 -0.790361 -0.215315 
2900 2 -390.141 573.523 -442.152 -0.125125 -0.726139 -0.397465 -0.546889 
2901 2 -381.498 575.695 -446.538 0.347627 -0.789581 0.297254 -0.409093 
2946 2 -406.006 647.519 -488.292 -0.580785 -0.378535 -0.710998 -0.117817 
2945 2 -415.174 649.502 -484.964 -0.439248 0.383572 -0.722189 0.371989 
2944 2 -423.243 652.598 -480.232 0.062782 0.837615 -0.197763 0.505321 
2943 2 -432.585 653.986 -477.34 0.554628 0.491129 0.618802 0.261274 
2942 2 -441.795 653.601 -473.876 0.527475 -0.330406 0.763748 -0.171147 
2941 2 -450.688 654.007 -469.512 0.189532 -0.794067 0.270006 -0.510521 
2940 2 -458.732 656.055 -464.114 -0.32529 -0.775572 -0.420462 -0.340421 
2902 2 -373.039 579.131 -450.354 0.680731 -0.241247 0.691578 0.0111861 
2950 2 -368.649 643.065 -499.463 0.381253 0.663978 0.334992 0.549144 
2903 2 -363.811 582.856 -451.389 0.385875 0.484892 0.499954 0.605001 
2832 2 -276.585 554.184 -365.375 0.412018 0.871375 -0.258797 0.0630191 
2955 2 -321.753 637.566 -513.406 0.469107 -0.383985 0.734502 -0.304959 
2951 2 -358.898 641.227 -500.736 -0.177027 0.711004 -0.359922 0.577574 
2954 2 -330.9 639.112 -509.92 -0.00780422 -0.806415 0.144027 -0.57349 
2953 2 -340.381 639.916 -507.199 -0.456469 -0.503049 -0.65707 -0.326859 
2952 2 -349.491 639.425 -503.335 -0.526299 0.260073 -0.796599 0.144224 
2910 2 -298.741 573.726 -452.04 0.450349 0.709645 0.337354 0.424008 
2909 2 -307.725 577.397 -449.928 0.614857 0.249029 0.744872 -0.071421 
2904 2 -354.434 585.969 -450.918 -0.307019 0.607841 -0.162599 0.714024 
2908 2 -316.643 581.187 -448.113 0.381626 -0.388222 0.660059 -0.517656 
2907 2 -325.676 585.21 -447.806 -0.235425 -0.72615 0.075822 -0.641508 
2906 2 -335.354 586.764 -449.478 -0.672325 -0.386918 -0.543993 -0.319914 
2905 2 -345.028 588.218 -448.91 -0.639086 0.190548 -0.692385 0.275433 
2979 2 -249.708 683.689 -418.072 -0.0167463 -0.129283 0.0837093 0.987926 
2978 2 -246.467 682.647 -427.368 0.729255 -0.15358 -0.0686678 0.663239 
2980 2 -253.068 684.785 -408.806 -0.756805 -0.106015 0.188009 0.616977 
2981 2 -256.885 685.319 -399.663 -0.951634 0.178521 0.1105 -0.224305 
2982 2 -259.417 688.578 -390.685 -0.416977 0.127501 0.027166 -0.89952 
2983 2 -262.222 689.357 -381.257 0.468724 0.0234203 -0.0514027 -0.881537 
2984 2 -263.686 690.634 -371.582 0.982239 -0.133024 0.0178334 -0.13112 
2977 2 -245.015 683.454 -437.205 0.985493 0.0668994 -0.0350952 -0.151972 
2975 2 -243.153 678.995 -456.419 -0.378096 0.0700182 -0.109116 -0.916643 
2976 2 -243.745 681.443 -446.804 0.445654 0.00778653 -0.105857 -0.88889 
2974 2 -240.801 678.047 -465.954 -0.972955 0.0417522 0.113447 -0.19684 
2973 2 -238.072 679.228 -475.413 -0.733539 -0.1247 0.0638529 0.665051 
2972 2 -235.067 680.126 -484.746 0.191641 -0.138235 -0.056741 0.970023 
2971 2 -230.232 682.547 -493.077 0.883984 0.0350814 -0.28172 0.371449 
2970 2 -226.194 684.628 -501.887 0.850771 0.180351 -0.124381 -0.477693 
2969 2 -221 686.702 -510.057 0.118221 0.305663 0.0617076 -0.942754 
2985 2 -262.786 693.573 -362.252 0.74016 -0.0271915 0.153453 0.654122 
3009 2 -138.655 780.868 -403.065 -0.397819 0.25407 -0.880269 0.048107 
3010 2 -131.453 782.375 -409.654 -0.43829 -0.442705 -0.739142 -0.256091 
3011 2 -122.822 781.656 -414.568 0.0194644 -0.903207 -0.0458812 -0.426301 
3012 2 -115.431 781.836 -421.105 0.208384 -0.70767 0.659783 -0.143059 
3013 2 -110.056 783.292 -429.333 0.361701 0.121307 0.922977 0.0506981 
3014 2 -103.059 784.233 -436.316 0.068514 0.652324 0.572089 0.492436 
3020 3 -92.2363 823.107 -421.973 -0.846706 -0.386272 0.303229 0.204782 
3015 2 -95.8293 788.282 -441.855 -0.284154 0.846275 -0.288565 0.34613 
3016 2 -88.408 791.431 -447.605 -0.443287 0.227887 -0.85736 0.128445 
3017 2 -80.4389 791.935 -453.459 -0.291838 -0.482377 -0.780158 -0.271101 
3018 2 -73.1434 793.343 -459.942 0.0562664 -0.91 -0.122349 -0.392129 
3019 1 -68.6335 837.41 -443.62 -0.870607 -0.350695 0.267591 0.217835 
3008 2 -146.696 777.956 -398.194 -0.326053 0.819378 -0.324296 0.342258 
3007 2 -154.703 773.911 -393.94 0.064554 0.712633 0.439901 0.542655 
3006 2 -161.236 766.843 -391.302 0.456576 -0.0697883 0.784589 0.413628 
3026 2 -96.5548 840.926 -380.112 0.161599 0.340006 0.504246 -0.777186 
3005 2 -165.19 757.994 -389.384 0.635957 -0.66514 0.385488 0.0674281 
3025 2 -93.1383 849.179 -384.486 -0.585876 -0.21921 0.455857 -0.63316 
3004 2 -167.752 749.065 -385.724 0.418959 -0.761866 -0.337369 -0.360854 
3003 2 -169.077 741.138 -380.046 0.0256641 -0.180691 -0.869677 -0.458643 
3027 2 -99.7408 832.12 -377.198 0.779255 0.509346 0.102889 -0.350346 
3002 2 -170.954 732.67 -375.135 -0.422736 0.571657 -0.642223 -0.286446 
3028 2 -101.08 823.315 -372.76 0.819039 0.371162 -0.261952 0.35042 
3024 2 -89.7516 856.17 -390.639 -0.891141 -0.413433 0.186702 0.00914535 
3001 2 -173.705 724.146 -370.966 -0.499225 0.839708 0.0378355 0.210316 
3029 2 -102.049 815.754 -366.379 0.301717 -0.0321719 -0.311005 0.900671 
3000 2 -175.415 715.83 -365.846 -0.176116 0.501033 0.702844 0.473244 
2999 2 -176.427 706.805 -362.007 0.211288 -0.281759 0.786303 0.507638 