ITEM: TIMESTEP
10000000
ITEM: NUMBER OF ATOMS
4067
ITEM: BOX BOUNDS pp pp pp
-4.6310929470000001e+03 4.6704658980000004e+03
-4.6310929470000001e+03 4.6704658980000004e+03
-4.6310929470000001e+03 4.6704658980000004e+03
ITEM: ATOMS id type x y z c_q[1] c_q[2] c_q[3] c_q[4] 
2673 2 -768.396 70.1985 -538.957 0.694794 0.172314 -0.188151 0.672434 
2674 2 -768.538 65.6856 -530.201 -0.131277 0.0666979 -0.116468 0.982218 
2672 2 -766.317 73.3327 -548.129 0.984564 0.154636 -0.079535 -0.0198853 
2675 2 -766.415 63.7088 -520.688 -0.84015 0.0926609 -0.151008 0.5126 
2589 2 -717.682 67.1572 -547.567 -0.590061 0.192702 -0.653128 0.433726 
2590 2 -708.349 63.8214 -547.333 -0.623438 -0.417999 -0.631203 -0.19541 
2591 2 -698.776 61.2919 -547.803 -0.278425 -0.67587 -0.0251298 -0.681944 
2592 2 -689.397 58.1072 -546.819 0.358379 -0.338925 0.442023 -0.749206 
2593 2 -680.768 54.4901 -543.397 0.869153 0.142088 0.419665 -0.219695 
2671 2 -765.403 76.6306 -557.419 0.688238 0.180255 0.0806837 -0.698088 
2594 2 -674.024 50.0111 -537.701 0.703513 0.448222 0.104654 0.541492 
2670 2 -762.744 81.3972 -565.688 -0.101938 0.102287 0.270088 -0.951945 
2587 1 -737.188 29.0108 -527.811 -0.739804 0.290163 -0.516337 0.319205 
2595 2 -667.574 44.915 -532.198 -3.10456e-05 0.357213 -0.170892 0.918256 
2596 2 -661.384 41.5076 -525.366 -0.753963 0.112634 -0.397217 0.510952 
2597 2 -654.163 39.1625 -518.979 -0.879501 -0.287832 -0.284072 -0.250869 
2669 3 -739.395 98.665 -522.623 -0.341398 -0.145137 0.270194 -0.88847 
2668 1 -740.36 119.978 -550.331 -0.384027 -0.159987 0.294373 -0.86039 
2667 2 -714.491 144.086 -519.09 -0.072803 0.1928 0.898151 0.388398 
2317 1 -226.873 -516.976 -394.225 -0.0952483 -0.0108301 -0.609635 -0.786864 
2425 1 -508.912 -375.63 -400.795 -0.0589191 -0.139058 -0.479939 -0.864205 
2427 2 -487.422 -391.572 -361.964 0.299832 -0.0468 0.488363 0.818176 
2346 2 -223.975 -421.979 -419.113 -0.460866 0.260284 0.0503022 -0.84695 
2347 2 -228.816 -420.743 -410.543 0.380443 0.364578 -0.149561 -0.836647 
2348 2 -235.85 -420.512 -403.572 0.860292 0.0205046 -0.419472 -0.289 
2349 2 -242.908 -417.925 -397.108 0.800408 -0.281415 -0.221905 0.480531 
2350 2 -248.835 -415.332 -389.605 0.124682 -0.318294 0.20277 0.917621 
2316 2 -235.916 -492.017 -433.232 -0.41083 -0.452763 0.684866 -0.396462 
2315 2 -233.471 -483.056 -429.862 -0.564825 -0.816229 0.104683 0.061525 
2318 3 -220.049 -484.078 -384.354 -0.077271 -0.0789188 -0.586613 -0.802301 
2345 3 -225.065 -378.486 -390.651 -0.294709 0.205193 0.140413 -0.922674 
2351 2 -253.852 -411.182 -382.204 -0.630556 -0.0295324 0.417852 0.653396 
2352 2 -259.338 -406.274 -375.764 -0.879198 0.265735 0.389836 -0.0665112 
2353 2 -266.301 -402.097 -370.126 -0.439581 0.456074 0.047135 -0.772362 
2354 2 -273.887 -399.232 -364.47 0.358185 0.323245 -0.388126 -0.785223 
2314 2 -228.603 -474.632 -427.729 -0.299621 -0.653019 -0.392318 0.574351 
2313 2 -224.408 -466.01 -425.437 0.172069 -0.0641846 -0.78053 0.597533 
2312 2 -219.138 -458.577 -421.693 0.542243 0.548389 -0.624201 0.124957 
2311 2 -214.226 -451.675 -416.532 0.383526 0.878091 0.0492314 -0.281851 
2344 1 -209.007 -377.257 -421.698 -0.293079 0.214727 0.102411 -0.926018 
2310 2 -208.313 -448.803 -409.138 -0.133885 0.591338 0.723434 -0.330208 
2309 2 -203.03 -447.14 -401.03 -0.302443 -0.107566 0.945617 -0.0525876 
2308 2 -198.336 -443.627 -393.061 -0.253183 -0.842688 0.447168 0.160673 
2307 2 -194.241 -439.929 -384.779 -0.0931421 -0.866731 -0.407209 0.272547 
2306 2 -192.107 -436.657 -375.683 0.0522636 -0.240399 -0.953084 0.176373 
2277 2 -141.823 -369.369 -361.77 0.666454 0.507976 -0.21839 0.500106 
2305 2 -188.938 -432.796 -367.171 0.294307 0.533377 -0.789928 0.0700441 
2465 2 -533.436 -252.881 -395.704 0.0947912 0.55182 -0.42256 -0.712708 
2466 2 -542.056 -247.961 -395.472 0.654887 -0.01306 -0.672679 -0.344173 
2467 2 -550.944 -243.507 -394.559 0.668957 -0.579922 -0.397729 0.240828 
2468 2 -558.596 -237.32 -394.671 0.197146 -0.659528 0.17139 0.704827 
2469 2 -566.681 -231.597 -394.409 -0.453816 -0.326498 0.585709 0.586851 
2470 2 -575.704 -227.517 -393.354 -0.702555 0.32016 0.633897 0.0456951 
2471 2 -583.945 -222.084 -393.683 -0.597397 0.575785 0.0800573 -0.55243 
2472 2 -591.352 -215.952 -391.341 0.226813 0.376398 -0.334114 -0.833815 
2464 2 -525.082 -258.083 -394.49 -0.405136 0.755315 0.162217 -0.488927 
2463 2 -516.954 -263.629 -393.932 -0.680316 0.376498 0.625018 0.0690687 
2493 2 -540.352 -213.9 -370.346 -0.412974 0.904974 -0.0968124 0.0332065 
2492 2 -543.755 -220.542 -363.862 -0.114587 0.69933 0.612372 0.350439 
2517 2 -521.421 -221.74 -416.476 0.587202 -0.157714 -0.765975 -0.208811 
2424 2 -522.047 -341.685 -430.846 0.0463727 -0.4433 -0.635996 0.629955 
2518 2 -529.702 -216.503 -418.136 0.598202 -0.646457 -0.324288 0.345086 
2423 2 -515.789 -334.39 -428.874 0.533637 0.259603 -0.733653 0.331045 
2519 2 -537.934 -211.139 -418.486 0.0955844 -0.587255 0.32735 0.734055 
2473 2 -598.327 -210.914 -386.565 0.752089 -0.1169 -0.527438 -0.377499 
2516 2 -511.838 -224.194 -416.785 0.261333 0.555675 -0.435918 -0.657956 
2462 2 -507.257 -265.641 -394.366 -0.544122 -0.394818 0.553754 0.491331 
2422 2 -508.022 -328.68 -426.733 0.545183 0.692726 -0.371219 -0.291724 
2421 2 -501.422 -322.571 -422.748 0.186922 0.769597 0.317657 -0.521416 
2420 2 -492.963 -318.135 -419.977 -0.412888 0.218162 0.775991 -0.423988 
2426 3 -497.4 -346.333 -385.53 -0.0674842 -0.202104 -0.511229 -0.832614 
2419 2 -484.911 -314.671 -415.298 -0.490166 -0.490749 0.713499 0.0991016 
2418 2 -476.576 -312.388 -410.588 -0.187638 -0.82946 0.088554 0.5186 
2417 2 -467.223 -310.881 -407.666 0.30575 -0.61247 -0.51816 0.512746 
2461 2 -497.292 -266.208 -394.208 -0.0671187 -0.68557 0.093298 0.718877 
2410 2 -401.012 -304.94 -389.51 0.227641 -0.576643 -0.51821 0.58917 
2411 2 -410.204 -307.851 -391.832 -0.131816 -0.774715 0.131997 0.604168 
2412 2 -419.819 -308.31 -394.093 -0.511573 -0.418958 0.705021 0.256343 
2413 2 -429.318 -308.372 -396.996 -0.551221 0.282495 0.764491 -0.178622 
2414 2 -438.794 -308.615 -400.096 -0.105971 0.804404 0.220221 -0.541486 
2415 2 -447.915 -309.266 -403.844 0.421884 0.612745 -0.50744 -0.434813 
2460 2 -487.688 -268.516 -394.01 0.52276 -0.588774 -0.412624 0.458048 
2416 2 -457.45 -309.999 -406.325 0.629223 -0.0685999 -0.77046 0.0759167 
2459 2 -477.841 -269.343 -393.359 0.696115 -0.0116573 -0.715938 -0.0521629 
2458 2 -467.983 -270.209 -392.655 0.387225 0.568663 -0.445979 -0.572523 
2457 2 -458.976 -270.039 -388.592 -0.118641 0.810367 0.282151 -0.499621 
2456 2 -449.568 -270.692 -385.501 -0.541214 0.327086 0.755425 -0.171566 
2455 2 -439.956 -268.888 -384.78 -0.617256 -0.439226 0.594582 0.269347 
2409 2 -392.608 -301.317 -385.694 0.530342 0.0986156 -0.828152 0.152238 
2408 2 -384.264 -298.256 -381.419 0.411524 0.744681 -0.350664 -0.391321 
2407 2 -376.545 -295.959 -375.664 -0.0690745 0.815116 0.363684 -0.445588 
2385 2 -375.301 -340.379 -380.454 -0.795624 -0.145195 0.483775 0.334458 
2454 2 -430.166 -267.189 -385.002 -0.125135 -0.707129 0.0543489 0.693798 
2386 2 -384.012 -339.671 -375.791 -0.743902 0.300473 0.418662 -0.425497 
2511 2 -462.936 -224.431 -410.166 0.356753 -0.58199 -0.44837 0.577043 
2513 2 -482.624 -224.5 -411.488 -0.573549 -0.443398 0.608697 0.322379 
2512 2 -472.814 -225.269 -410.73 -0.0453345 -0.754725 0.0926054 0.647888 
2514 2 -492.343 -225.401 -413.454 -0.583025 0.234718 0.764098 -0.145411 
2515 2 -502.089 -224.636 -415.624 -0.258987 0.716997 0.268571 -0.588821 
2510 2 -453.427 -221.832 -409.649 0.689517 0.0557081 -0.71452 0.104516 
2509 2 -444.69 -217.191 -409.149 0.516494 0.656612 -0.311159 -0.453073 
2508 2 -435.778 -212.888 -408.329 -0.0328975 0.620729 0.342386 -0.704546 
2387 2 -392.784 -338.888 -371.599 -0.172745 0.623638 -0.00236415 -0.762384 
2388 2 -402.115 -336.475 -368.996 0.474022 0.314759 -0.449871 -0.688365 
2384 2 -367.362 -342.452 -386.018 -0.199886 -0.418821 0.249645 0.849889 
2453 3 -468.839 -236.649 -368.6 0.150335 -0.626431 -0.428412 0.633598 
2406 2 -371.11 -291.314 -368.842 -0.198211 0.287542 0.871522 -0.344212 
2452 1 -436.229 -224.028 -366.973 0.158618 -0.634526 -0.39542 0.644872 
2389 2 -410.608 -333.326 -364.904 0.817445 -0.12454 -0.561124 -0.0375859 
2390 2 -419.71 -330.92 -361.662 0.607193 -0.424853 -0.211763 0.637161 
2383 2 -359.838 -342.441 -392.415 0.469163 -0.367104 -0.196362 0.778822 
2382 2 -353.347 -343.941 -399.79 0.912559 -0.14628 -0.329517 0.193022 
2381 2 -347.202 -345.83 -407.266 0.710466 0.162261 -0.266823 -0.630647 
2380 2 -341.206 -347.057 -415.03 -0.07937 0.330684 -0.0156788 -0.940267 
2379 2 -333.774 -346.49 -421.47 -0.691649 0.216729 0.329593 -0.604995 
2378 2 -326.741 -342.868 -427.418 -0.903629 -0.21748 0.368975 0.00375641 
2377 2 -318.151 -338.811 -430.006 -0.482258 -0.60623 0.184495 0.604875 
2376 2 -309.52 -334.132 -431.122 0.0773994 -0.518751 -0.367008 0.768252 
2375 2 -302.189 -327.618 -432.632 0.545101 -0.0180912 -0.64697 0.532887 
2374 2 -294.411 -321.434 -431.772 0.689679 0.539357 -0.468268 -0.119003 
2373 2 -285.441 -317.507 -430.267 0.259077 0.750286 0.0454228 -0.606537 
2372 3 -320.703 -313.695 -392.235 0.138078 -0.258418 -0.57008 0.76757 
2371 1 -303.529 -284.757 -401.57 0.0721339 -0.276224 -0.530658 0.798059 
2370 2 -331.774 -270.01 -366.828 0.31317 -0.635326 0.59776 0.375457 
2340 2 -211.142 -336.852 -378.27 0.105023 -0.790308 -0.595131 -0.101009 
2339 2 -210.955 -341.317 -369.466 0.0380549 -0.0982622 -0.963652 -0.245501 
2341 2 -210.862 -334.058 -387.771 0.0778124 -0.931712 0.354709 0.00623196 
2342 2 -210.254 -332.55 -397.584 0.144686 -0.379685 0.911512 -0.0636524 
2338 2 -212.872 -347.151 -361.762 -0.286924 0.683538 -0.651785 -0.160083 
2276 2 -143.21 -361.447 -367.522 0.866302 0.386396 0.194226 -0.249991 
2343 2 -207.421 -332.429 -407.015 0.144417 0.530106 0.83027 0.093714 
2275 2 -143.739 -352.409 -371.647 0.378734 0.231999 0.474239 -0.760154 
2274 2 -144.382 -344.42 -377.453 -0.342399 -0.228847 0.408935 -0.814349 
2266 2 -157.32 -272.746 -385.368 -0.534739 -0.843261 -0.0123917 -0.053027 
2267 2 -156.605 -281.526 -389.896 -0.336327 -0.474923 0.65336 -0.484203 
2268 2 -156.288 -290.819 -393.066 0.288363 0.0903437 0.713589 -0.632041 
2269 2 -153.522 -300.313 -393.818 0.71939 0.560428 0.388359 -0.132575 
2270 2 -149.48 -309.361 -393.395 0.632833 0.59512 -0.132794 0.477201 
2271 2 -145.94 -318.305 -391.064 0.0993195 0.0456123 -0.569954 0.814376 
2272 2 -146.034 -327.327 -387.216 -0.634769 -0.366546 -0.374947 0.567562 
2273 2 -145.02 -336.017 -382.698 -0.864251 -0.457839 0.0617159 -0.199112 
2245 2 -68.4715 -338.999 -417.497 0.101735 -0.336857 -0.0052403 0.936029 
2244 2 -62.8962 -337.548 -425.492 0.803443 -0.115169 -0.264547 0.520798 
2246 2 -74.0678 -338.44 -409.311 -0.642707 -0.248427 0.259048 0.676835 
2247 2 -80.6381 -338.531 -401.939 -0.921669 0.0268519 0.376668 -0.0890349 
2248 2 -87.3615 -338.71 -394.564 -0.476732 0.227753 0.184827 -0.82867 
2249 2 -93.2171 -339.63 -386.728 0.249587 0.385874 0.0562885 -0.886363 
2250 2 -100.304 -342.653 -380.6 0.883608 0.332111 -0.224321 -0.242116 
2251 2 -105.704 -347.357 -373.737 0.795136 -0.0974914 -0.316652 0.507922 
2265 2 -158.479 -263.372 -382.403 -0.415604 -0.519054 -0.619081 0.417847 
2228 2 -77.6113 -277.766 -366.308 -0.0998564 -0.305281 -0.925553 -0.200461 
2229 2 -74.8381 -274.548 -375.251 0.179005 -0.860365 -0.442661 -0.178268 
2230 2 -73.3763 -270.343 -384.048 0.254462 -0.870088 0.418752 0.0533118 
2231 2 -72.0763 -265.069 -392.43 0.106985 -0.183751 0.925532 0.313337 
2232 2 -70.8983 -258.701 -399.94 -0.202477 0.564918 0.773317 0.204575 
2233 2 -71.6488 -252.985 -407.936 -0.357929 0.92906 0.0699875 -0.0619395 
2234 2 -73.3279 -246.511 -415.17 -0.0936498 0.6001 -0.741563 -0.284945 
2235 2 -75.5614 -241.353 -423.313 0.179819 -0.168808 -0.936831 -0.248027 
2237 3 -64.174 -291.636 -429.41 -0.0380726 -0.0954084 -0.331759 0.937755 
2252 2 -111.52 -348.977 -365.908 0.0977612 -0.187617 0.0874254 0.973447 
2243 2 -56.6704 -335.749 -432.917 0.858961 0.241939 -0.264882 -0.365362 
2236 1 -57.1532 -269.965 -456.063 0.017959 -0.0914942 -0.333211 0.938231 
2242 2 -53.0407 -334.209 -442.012 0.246639 0.192036 0.0545759 -0.948321 
2241 2 -49.5229 -330.216 -450.414 -0.618459 0.0144255 0.263671 -0.74012 
2240 2 -47.3475 -325.126 -458.602 -0.953784 -0.281206 0.105916 -2.71631e-05 
2239 2 -44.6786 -318.42 -465.382 -0.528032 -0.316184 -0.243999 0.74945 
2238 2 -45.2084 -312.268 -473.163 0.224993 0.102241 -0.338342 0.907992 
2714 2 -743.037 -113.152 -409.264 -0.831389 -0.518499 -0.187124 -0.0702521 
2715 2 -739.891 -121.873 -405.836 -0.460408 -0.408641 0.392141 -0.683566 
2716 2 -737.696 -130.945 -402.589 0.112032 0.153083 0.678022 -0.710141 
2717 2 -737.934 -140.808 -401.383 0.585667 0.650124 0.380183 -0.299657 
2718 2 -737.912 -150.6 -402.409 0.539069 0.729081 -0.224051 0.357277 
2719 2 -734.953 -159.956 -403.97 0.0157393 0.379392 -0.690094 0.616104 
2720 2 -731.215 -168.683 -406.803 -0.372355 -0.407621 -0.684968 0.475412 
2721 2 -729.809 -177.98 -409.756 -0.590633 -0.803717 -0.0535157 -0.0482469 
2723 3 -700.201 -137.763 -423.672 0.730365 -0.381737 -0.353592 -0.442511 
2713 2 -747.919 -104.964 -411.843 -0.525626 -0.169638 -0.609122 0.569131 
2712 2 -752.364 -96.2609 -413.241 0.126113 0.412847 -0.492947 0.755418 
2734 2 -685.215 -84.3373 -386.787 -0.912496 0.269186 0.30751 0.0181235 
2711 2 -755.923 -87.0466 -412.235 0.591566 0.745976 -0.0617968 0.299584 
2722 1 -695.811 -167.908 -440.8 0.756342 -0.412499 -0.291888 -0.415444 
2733 2 -680.014 -89.3192 -393.625 -0.588099 -0.0278341 0.390803 0.707557 
2710 2 -757.527 -77.3459 -412.921 0.623887 0.529677 0.457695 -0.347451 
2732 2 -675.394 -94.959 -400.232 0.234251 -0.338531 0.255605 0.874751 
2731 2 -671.273 -99.2997 -408.209 0.85142 -0.308236 -0.10671 0.410715 
2735 2 -690.526 -79.2584 -380.297 -0.622699 0.333103 0.146785 -0.692634 
2730 2 -668.785 -102.815 -417.186 0.869829 -0.0942527 -0.205175 -0.438654 
2736 2 -696.642 -76.8992 -372.85 0.277207 0.33386 -0.242997 -0.867552 
2559 2 -675.567 -121.231 -383.159 -0.0216053 -0.21916 0.112099 0.968987 
2709 2 -760.113 -67.9153 -410.931 0.105157 -0.0675881 0.768117 -0.627989 
2558 2 -671.52 -123.279 -392.007 0.699321 -0.251204 -0.0715419 0.665379 
2737 2 -703.132 -74.7504 -365.621 0.894632 0.048453 -0.258685 -0.361066 
2708 2 -762.058 -58.7462 -407.746 -0.409403 -0.689558 0.426985 -0.417831 
2729 2 -667.134 -107.24 -425.874 0.0991538 0.0922494 -0.237611 -0.961873 
2557 2 -666.139 -126.453 -399.665 0.89759 -0.0103261 -0.3294 -0.292781 
2494 2 -538.392 -206.382 -376.599 -0.317322 0.44634 -0.760969 -0.34787 
2724 2 -665.597 -138.841 -462.484 0.86922 -0.487048 -0.0120897 0.0842299 
2725 2 -665.779 -130.824 -456.768 0.514806 -0.186757 0.387956 0.741341 
2728 2 -665.54 -111.147 -434.81 -0.743744 0.197492 -0.0649035 -0.635319 
2727 2 -664.233 -117.069 -442.608 -0.892079 0.290316 0.170843 0.301205 
2726 2 -665.119 -123.588 -449.981 -0.29149 0.152137 0.339367 0.881316 
2556 2 -661.508 -132.155 -406.221 0.374558 0.0958495 -0.395106 -0.833313 
2474 2 -605.666 -205.429 -382.82 0.81052 -0.347031 -0.227813 0.413193 
2495 2 -536.459 -198.559 -382.285 0.136098 -0.351856 -0.811905 -0.445517 
2475 2 -612.389 -201.508 -376.716 0.0916464 -0.446735 0.00887232 0.889916 
2520 2 -545.973 -205.414 -417.579 -0.473366 -0.171159 0.589681 0.63159 
2546 2 -574.993 -138.201 -446.038 -0.579623 -0.195935 0.617883 0.493829 
2547 2 -584.204 -135.144 -444.254 -0.799956 0.184739 0.519364 -0.237071 
2548 2 -593.403 -134.729 -440.566 -0.318426 0.44052 0.338242 -0.768206 
2549 2 -602.063 -136.987 -436.473 0.312352 0.531493 -0.291703 -0.731342 
2550 2 -611.54 -136.632 -433.7 0.808035 0.124457 -0.552841 -0.161111 
2551 2 -620.952 -136.861 -430.505 0.580026 -0.38093 -0.450908 0.561377 
2552 2 -630.196 -138.304 -427.412 -0.0668103 -0.58611 0.0834013 0.803153 
2553 2 -639.481 -138.041 -424.259 -0.703165 -0.234965 0.405534 0.53469 
2554 2 -648.029 -137.797 -419.096 -0.851853 0.259595 0.410775 -0.1955 
2555 2 -655.962 -135.406 -413.727 -0.400358 0.329812 -0.0446478 -0.853782 
2561 3 -627.416 -106.017 -395.365 0.19379 0.352496 0.915445 -0.012326 
2545 2 -565.427 -140.478 -447.126 0.0380717 -0.678914 0.0533199 0.731288 
2544 2 -555.536 -141.432 -447.214 0.625467 -0.394047 -0.585231 0.333199 
2524 2 -570.914 -177.52 -405.348 0.618516 -0.232834 -0.587916 -0.466457 
2543 2 -545.942 -143.163 -445.046 0.532582 0.258409 -0.739979 -0.319393 
2523 2 -564.992 -184.921 -408.36 0.127037 0.331984 -0.514856 -0.78011 
2525 2 -575.868 -169.496 -402.453 0.770821 -0.550904 -0.210622 0.240786 
2526 2 -581.571 -161.813 -399.643 0.41303 -0.385396 0.233712 0.791363 
2522 2 -559.571 -191.99 -412.653 -0.611137 0.520033 -0.0671838 -0.592928 
2542 2 -536.612 -141.993 -441.92 0.198792 0.809417 -0.138161 -0.535012 
2534 3 -548.931 -130.059 -397.576 -0.0814465 -0.482756 -0.787653 0.374052 
2521 2 -553.618 -199.458 -415.46 -0.804016 0.364413 0.457068 0.108857 
2527 2 -585.68 -154.865 -393.825 -0.289331 -0.0460457 0.542356 0.787412 
2564 2 -594.713 -74.5455 -381.415 -0.095599 0.987021 -0.0179054 -0.127785 
2528 2 -589.513 -146.69 -389.96 -0.790707 0.455029 0.246495 0.327063 
2529 2 -590.594 -137.972 -385.499 -0.778153 0.413469 -0.255305 -0.39792 
2530 2 -589.29 -129.772 -380.101 -0.155251 0.0322102 -0.437551 -0.885104 
2565 2 -597.295 -72.667 -390.774 0.0727439 0.576199 -0.814012 0.00936587 
2566 2 -598.469 -72.4035 -400.565 0.101682 -0.27386 -0.956051 0.0250514 
2563 2 -594.086 -77.6688 -371.989 -0.103833 0.56495 0.812276 0.101283 
2533 1 -542.325 -105.432 -373.565 -0.106574 -0.445461 -0.798859 0.389911 
2567 2 -601.06 -72.9111 -410.17 0.00891947 -0.912899 -0.369847 0.172478 
2568 2 -604.408 -74.0682 -419.396 -0.0326386 -0.915565 0.349701 0.19592 
2476 2 -619.817 -200.386 -370.446 -0.629819 -0.323653 0.368446 0.602349 
2497 2 -531.958 -181.811 -391.489 0.594297 -0.589602 0.533486 0.120721 
2569 2 -608.094 -73.6442 -428.508 -0.208117 -0.316732 0.90332 0.200951 
2570 2 -612.487 -71.6056 -437.193 -0.292633 0.562112 0.773548 0.00442929 
2496 2 -535.277 -190.382 -387.752 0.492587 -0.804729 -0.167525 -0.28584 
2562 2 -595.458 -81.1253 -362.802 0.0761971 -0.270352 0.945352 0.165569 
2541 2 -528.755 -137.541 -438.014 -0.194769 0.516563 0.659025 -0.510797 
2498 2 -526.712 -173.727 -393.863 0.352838 0.00556351 0.806216 0.474857 
2477 2 -628.206 -200.021 -365.166 -0.957999 0.0415196 0.282978 -0.0209114 
2540 2 -522.268 -132.845 -432.253 -0.416364 -0.248688 0.860933 -0.153588 
2531 2 -588.281 -121.843 -374.339 0.640496 -0.258172 -0.24255 -0.681382 
2571 2 -617.025 -68.4307 -445.421 -0.164061 0.942356 -0.0712431 -0.282796 
2532 2 -588.013 -115.159 -367.053 0.921941 -0.339883 0.0866516 0.164303 
2572 2 -622.386 -65.6853 -453.184 0.253831 0.466649 -0.751171 -0.391855 
2499 2 -520.953 -166.483 -397.114 -0.0363988 0.581019 0.531486 0.615317 
2573 2 -629.959 -61.8582 -458.254 0.507011 -0.319552 -0.798839 -0.0517952 
2574 2 -637.77 -58.5532 -463.4 0.369792 -0.824645 -0.219135 0.367688 
2560 1 -639.047 -99.2371 -362.996 0.184567 0.337937 0.922717 -0.0180593 
2500 2 -514.446 -159.434 -399.747 -0.510733 0.731579 -0.142089 0.428667 
2539 2 -515.087 -128.433 -427.108 -0.393803 -0.795042 0.327734 0.32468 
2538 2 -510.153 -123.995 -419.765 -0.0340576 -0.781615 -0.530474 0.326367 
2501 2 -506.915 -153.029 -400.911 -0.64968 0.415721 -0.634331 -0.0521171 
2506 1 -446.058 -166.891 -406.731 -0.0520699 -0.656498 -0.22945 0.716695 
2507 3 -477.498 -182.169 -406.602 -0.0550337 -0.679809 -0.188589 0.706587 
2537 2 -506.754 -119.627 -411.611 0.158239 -0.0382783 -0.962711 0.216063 
2536 2 -503.672 -115.777 -403.051 0.267252 0.717029 -0.643046 0.0306158 
2535 2 -500.632 -110.863 -395.031 0.246411 0.940971 0.142683 -0.183021 
2505 2 -475.83 -130.334 -409.302 0.561378 -0.0587383 0.781408 0.266093 
2504 2 -484.084 -135.256 -407.105 0.546567 -0.678611 0.367799 -0.324771 
2503 2 -492.072 -140.491 -404.351 0.147322 -0.746347 -0.265066 -0.592455 
2502 2 -499.244 -146.778 -401.667 -0.290172 -0.262834 -0.751419 -0.53112 
2697 2 -821.483 28.2467 -398.445 0.526208 0.762241 0.315331 0.206543 
2588 3 -705.276 29.8 -513.725 -0.742322 0.277305 -0.482005 0.373808 
2676 2 -763.189 63.7641 -511.374 -0.920012 0.0173132 -0.155746 -0.359195 
2698 2 -815.344 21.1441 -401.734 0.196916 0.70453 -0.411207 0.543848 
2641 1 -728.057 -48.4092 -405.38 -0.0459645 0.530203 0.741653 0.408318 
2677 2 -760.333 64.8214 -501.907 -0.261177 -0.250755 -0.1307 -0.922944 
2640 2 -766.343 -32.1144 -427.592 -0.841257 -0.0807983 0.360197 -0.394989 
2639 2 -761.385 -27.349 -434.77 -0.802847 -0.348651 0.133739 0.46475 
2638 2 -757.311 -24.4548 -443.312 -0.147959 -0.238085 -0.109989 0.953586 
2637 2 -751.687 -21.3064 -450.841 0.694891 -0.0877794 -0.320496 0.637733 
2699 2 -809.093 13.9231 -404.298 -0.359269 0.143439 -0.687779 0.614257 
2700 2 -802.152 6.85102 -404.463 -0.714498 -0.408454 -0.567582 0.0225369 
2701 2 -794.747 0.382325 -403.786 -0.501189 -0.685186 0.0129268 -0.528358 
2702 2 -787.708 -6.54223 -402.808 0.0290441 -0.306181 0.583185 -0.751868 
2586 2 -735.544 -10.6867 -502.242 0.37549 0.577453 -0.41316 -0.595696 
2585 2 -725.67 -11.8274 -501.511 -0.279669 0.678369 0.216859 -0.643873 
2678 2 -755.446 65.6055 -493.325 0.548251 -0.172129 0.105818 -0.811539 
2679 2 -751.244 65.8502 -484.38 0.948409 -0.110762 0.283685 -0.0881745 
2703 2 -782.871 -15.1269 -401.543 0.548667 0.340037 0.641323 -0.414781 
2704 2 -778.359 -23.9969 -401.996 0.703503 0.660958 0.115669 0.234176 
2707 2 -764.619 -49.6545 -404.694 -0.617868 -0.740576 -0.263004 0.0248064 
2584 2 -716.143 -14.4067 -501.549 -0.709601 0.28299 0.640389 -0.0792829 
2583 2 -708.471 -20.4703 -499.734 -0.430206 -0.0936741 0.779162 0.446154 
2706 2 -767.73 -40.5949 -402.359 -0.324046 -0.138925 -0.752215 0.556657 
2705 2 -773.127 -32.3188 -401.219 0.151821 0.536866 -0.518539 0.647952 
2582 2 -701.923 -27.3454 -497.052 0.160995 -0.643093 0.44391 0.602873 
2680 2 -745.763 67.5035 -476.25 0.667547 0.140725 0.240155 0.690582 
2636 2 -744.625 -18.9176 -457.398 0.92723 0.152597 -0.31825 -0.125203 
2635 2 -737.228 -15.6384 -463.038 0.502212 0.481823 -0.0697137 -0.714681 
2634 2 -728.57 -13.9494 -467.522 -0.320468 0.454221 0.270618 -0.78597 
2633 2 -719.984 -10.0673 -470.401 -0.743619 -0.0208399 0.602855 -0.28838 
2632 2 -712.081 -4.48831 -472.121 -0.714534 -0.542245 0.325545 0.299054 
2696 3 -771.218 32.1205 -386.306 -0.0705549 -0.745206 0.464685 -0.47303 
2642 3 -715.045 -24.218 -427.206 -0.0220056 0.527556 0.754794 0.389213 
2655 2 -688.355 51.9415 -452.209 -0.260756 0.67525 -0.566239 -0.39423 
2656 2 -690.55 60.026 -457.491 0.215034 -0.0092655 -0.884685 -0.413529 
2681 2 -740.507 68.6487 -467.909 -0.163443 0.215137 -0.00881701 0.962769 
2682 2 -736.472 68.2774 -458.886 -0.864043 0.100283 -0.175219 0.461162 
2683 2 -732.781 68.0534 -449.764 -0.92695 -0.0548284 -0.178892 -0.325201 
2684 2 -729.119 68.2071 -440.545 -0.365344 -0.0624198 0.0712135 -0.926043 
2685 2 -727.829 66.6657 -430.815 0.428409 -0.00236296 0.0743505 -0.900518 
2686 2 -726.86 65.9292 -420.991 0.96273 0.0893315 0.0341574 -0.252989 
2687 2 -727.154 63.8039 -411.283 0.800012 0.0284142 -0.0932762 0.592007 
2688 2 -728.75 62.019 -401.71 0.0874224 -0.14182 -0.142777 0.975633 
2689 2 -731.589 59.5486 -392.629 -0.66748 -0.13903 0.046665 0.730044 
2690 2 -734.327 58.5182 -383.132 -0.970379 -0.0100846 0.19028 -0.148515 
2691 2 -737.804 57.7124 -373.922 -0.556515 0.216953 0.0436149 -0.800825 
2657 2 -694.434 66.9839 -463.341 0.42534 -0.70648 -0.559808 -0.0811633 
2658 2 -698.375 73.4154 -469.836 0.358271 -0.891334 0.19051 0.202167 
2654 2 -686.551 43.5714 -447.389 -0.525027 0.840301 0.130953 -0.0330462 
2653 2 -686.324 35.2993 -441.965 -0.252111 0.450336 0.760899 0.393282 
2659 2 -700.969 80.0521 -476.708 0.0450048 -0.481037 0.738786 0.469865 
2803 1 -689.04 81.4021 -412.336 0.901401 0.258293 -0.244672 0.246772 
2652 2 -685.329 26.8698 -436.762 0.155523 -0.322118 0.802788 0.477058 
2649 2 -679 1.71576 -422.519 0.0531521 0.0146856 -0.844318 -0.532997 
2651 2 -682.46 18.9181 -431.525 0.411948 -0.854324 0.182401 0.259151 
2650 2 -679.853 10.7132 -426.675 0.499085 -0.625274 -0.564849 -0.202221 
2648 2 -676.461 -7.18994 -418.961 -0.391724 0.741162 -0.389473 -0.3815 
2692 2 -741.545 59.1834 -364.884 0.26283 0.254964 -0.133588 -0.920906 
2646 2 -674.358 -23.0476 -407.986 -0.15484 0.272891 0.831572 0.458304 
2581 2 -694.358 -32.6447 -493.375 0.49531 -0.754539 -0.310794 0.297904 
2631 2 -705.593 2.69895 -473.893 -0.256462 -0.55423 -0.275642 0.742346 
2630 2 -697.81 8.79371 -474.088 0.456066 -0.128598 -0.695878 0.539648 
2629 2 -692.994 17.4382 -474.627 0.704907 0.497546 -0.469405 0.187652 
2804 3 -699.812 60.7296 -386.127 0.900352 0.269103 -0.231277 0.251915 
2628 2 -686.35 24.6586 -475.737 0.551692 0.667769 -0.0140557 -0.499523 
2627 2 -680.513 32.4244 -477.41 -0.0874057 0.315571 0.555977 -0.763979 
2645 2 -675.358 -31.0135 -402.16 0.307524 -0.493614 0.73477 0.349125 
2644 2 -679.261 -39.2918 -398.354 0.509581 -0.829117 0.203729 -0.106711 
2643 2 -682.122 -47.9426 -394.628 0.275626 -0.615115 -0.560157 -0.481547 
2580 2 -686.548 -36.1588 -488.406 0.501904 -0.207736 -0.838354 -0.0458229 
2660 2 -705.139 87.096 -482.247 -0.294767 0.377446 0.788709 0.385467 
2796 2 -690.672 16.9862 -375.637 -0.022813 0.909856 0.204977 0.360036 
2797 2 -684.128 19.2103 -382.688 -0.372334 0.691708 -0.591008 0.183352 
2798 2 -677.235 22.4874 -389.128 -0.304608 0.0381153 -0.917087 -0.254388 
2799 2 -671.731 27.3159 -395.667 0.128925 -0.702441 -0.560671 -0.41905 
2695 1 -793.927 50.3467 -367.204 -0.0839144 -0.760779 0.431138 -0.477802 
2579 2 -678.262 -40.2933 -484.745 0.242899 0.497439 -0.658096 -0.510357 
2795 2 -696.755 15.145 -368.096 0.262546 0.371792 0.859054 0.234238 
2647 2 -673.694 -14.8412 -413.331 -0.485484 0.781558 0.384192 0.0766112 
2626 2 -673.093 38.9265 -477.975 -0.661242 -0.172726 0.635658 -0.358976 
2578 2 -670.197 -44.0695 -480.378 -0.171331 0.82844 -0.143673 -0.513508 
2808 2 -728.504 90.1228 -370.282 0.625182 0.214101 -0.12161 0.740621 
2800 2 -666.944 33.7896 -401.413 0.456479 -0.857028 0.198195 -0.133599 
2661 2 -706.763 95.4031 -487.529 -0.564057 0.785296 0.208637 0.147037 
2807 2 -729.072 94.5565 -379.079 0.97335 0.212713 0.0345852 -0.0784032 
2809 2 -726.082 85.5617 -361.759 -0.118673 0.0939894 -0.335411 0.929829 
2575 2 -645.676 -54.3485 -467.631 -0.0752546 -0.690516 0.451947 0.559703 
2625 2 -665.363 45.1241 -477.758 -0.637782 -0.639348 0.311467 0.29573 
2598 2 -647.49 36.1782 -512.104 -0.40724 -0.318371 0.0869444 -0.851608 
2624 2 -656.812 50.1544 -476.937 -0.0640349 -0.685022 -0.31032 0.656008 
2599 2 -642.742 32.4387 -504.282 0.338742 -0.0838597 0.278333 -0.894848 
2576 2 -653.94 -50.4044 -471.232 -0.490074 -0.0789331 0.81472 0.299714 
2623 2 -649.546 56.234 -473.967 0.414219 -0.11585 -0.786002 0.444075 
2801 2 -662.417 40.5573 -406.963 0.457031 -0.288906 0.807298 0.236487 
2802 2 -656.761 47.0261 -411.636 0.102054 0.417781 0.739508 0.517853 
2622 2 -643.093 62.621 -470.038 0.567541 0.578393 -0.584989 -0.0338529 
2621 2 -636.757 69.9564 -468.494 0.419643 0.751288 0.115019 -0.496223 
2577 2 -662.421 -46.6047 -474.821 -0.42894 0.583057 0.669065 -0.168544 
2600 2 -639.56 27.9971 -496.055 0.895369 0.0108548 0.25181 -0.367136 
2601 2 -635.641 25.4594 -487.395 0.868889 0.249056 0.10048 0.415822 
2611 2 -624.7 22.7432 -397.729 -0.900153 0.332127 -0.108325 0.260157 
2610 2 -626.333 16.375 -405.097 -0.397347 0.254493 0.264819 0.840963 
2602 2 -631.947 21.8564 -478.967 0.305713 0.133337 -0.0499076 0.941419 
2603 2 -629.639 19.795 -469.587 -0.561457 -0.0359379 -0.187622 0.805154 
2604 2 -628.568 15.9678 -460.544 -0.978863 -0.121823 -0.00658804 0.164144 
2606 2 -627.999 10.1062 -441.776 -0.0400639 0.0368557 0.134026 -0.989481 
2605 2 -628.75 12.6796 -451.273 -0.753237 -0.122758 0.058761 -0.643516 
2609 2 -628.132 10.8745 -413.069 0.409915 -0.0363082 0.299493 0.860788 
2608 2 -628.296 7.2577 -422.326 0.955069 -0.206381 0.0199133 0.211788 
2607 2 -628.53 7.59354 -432.137 0.80062 -0.0362955 0.030407 -0.597298 
2615 3 -624.412 53.5936 -430.032 0.2381 0.00582026 -0.915438 0.324418 
2612 2 -621.601 28.7089 -390.451 -0.762824 0.0664392 -0.348103 -0.540842 
2613 2 -616.988 33.1164 -382.967 0.00199624 -0.265108 -0.237758 -0.934444 
2614 1 -608.671 73.4644 -405.931 0.279829 0.0482829 -0.91106 0.298889 
2620 2 -630.972 77.9496 -467.315 -0.0862232 0.38872 0.652713 -0.644538 
2619 2 -624.979 84.8474 -463.533 -0.507539 -0.337674 0.751059 -0.253555 
2618 2 -620.211 90.4862 -456.823 -0.387133 -0.873532 0.238526 0.173708 
2617 2 -615.375 95.7672 -449.907 -0.0514808 -0.725992 -0.584561 0.358572 
2666 2 -714.286 137.209 -511.978 0.208055 -0.575242 0.731184 0.301961 
2806 2 -729.128 98.8678 -387.965 0.574379 0.116905 0.188735 -0.787909 
2805 2 -728.149 102.905 -396.867 -0.380147 -0.0117068 0.204601 -0.901936 
2662 2 -707.185 104.869 -490.529 -0.38405 0.719363 -0.447569 -0.367022 
2663 2 -709.185 113.713 -494.414 0.0397725 0.080174 -0.893176 -0.440712 
2665 2 -712.562 129.845 -505.515 0.389812 -0.916938 -0.0558546 0.0644307 
2664 2 -710.758 121.809 -499.955 0.357692 -0.547779 -0.69042 -0.308731 
2616 2 -611.292 101.97 -443.417 0.260989 0.0184243 -0.908521 0.325783 
2319 2 -213.728 -521.753 -349.192 0.572488 -0.433366 -0.458411 -0.523747 
2428 2 -485.091 -383.178 -357.343 -0.36531 0.407466 0.404248 0.732874 
2429 2 -481.793 -374.389 -354.035 -0.833933 0.526178 0.0790037 0.14646 
2430 2 -481.137 -365.585 -349.629 -0.623508 0.435701 -0.281421 -0.584982 
2355 2 -281.791 -395.504 -359.631 0.79052 -0.228472 -0.50977 -0.251022 
2320 2 -214.485 -512.059 -347.599 0.781096 -0.593767 -0.00849025 0.193025 
2356 2 -288.759 -389.096 -356.736 0.667534 -0.592122 -0.0482485 0.448845 
2357 2 -295.454 -382.278 -354.414 -0.104188 -0.394288 0.419073 0.811209 
2358 2 -302.878 -376.366 -351.668 -0.602829 0.213867 0.586311 0.497088 
2359 2 -308.081 -368.128 -349.891 -0.690236 0.617921 0.267885 -0.264547 
2333 2 -226.439 -388.301 -341.144 0.49564 -0.577998 -0.458178 -0.45862 
2332 2 -224.891 -397.979 -339.876 0.0408326 0.0469055 -0.731604 -0.678887 