ITEM: TIMESTEP
10000000
ITEM: NUMBER OF ATOMS
4067
ITEM: BOX BOUNDS pp pp pp
-4.6310929470000001e+03 4.6704658980000004e+03
-4.6310929470000001e+03 4.6704658980000004e+03
-4.6310929470000001e+03 4.6704658980000004e+03
ITEM: ATOMS id type x y z c_q[1] c_q[2] c_q[3] c_q[4] 
3020 3 -100.106 206.847 -547.278 0.0930768 0.105292 -0.102215 -0.984785 
3023 2 -86.9553 164.744 -537.49 0.745721 -0.304236 -0.143773 0.575039 
3019 1 -93.3237 197.101 -580.238 0.0145187 0.103997 -0.150485 -0.98302 
3018 2 -112.446 239.932 -585.274 -0.0303305 -0.562861 0.815006 -0.134285 
3022 2 -81.889 162.361 -545.623 0.924963 -0.0436291 -0.301778 -0.226871 
3021 2 -78.9345 160.008 -554.857 0.483406 0.100367 -0.179697 -0.850855 
3024 2 -92.7826 167.925 -530.126 0.0181221 -0.353626 0.189675 0.915775 
3025 2 -98.8235 171.591 -523.168 -0.582783 -0.0657143 0.380118 0.715232 
3017 2 -113.408 242.736 -575.913 -0.145915 -0.987412 0.0297823 -0.0532901 
3011 2 -107.814 242.11 -518.913 0.030953 -0.667831 0.723748 0.170975 
3016 2 -114.84 245.554 -566.427 -0.145931 -0.59833 -0.783859 0.0791832 
3012 2 -109.578 244.452 -528.337 -0.140212 0.0718997 0.980449 0.11786 
3026 2 -104.115 176.372 -516.265 -0.918858 0.317277 0.234573 0.00315208 
3013 2 -112.23 247.065 -537.448 -0.141315 0.862815 0.478983 -0.0784596 
3015 2 -115.985 246.843 -556.695 -0.0849249 0.342908 -0.933121 0.0669892 
2938 1 -5.40259 247.127 -617.442 0.352541 -0.0638659 -0.334402 -0.871672 
2940 2 33.7628 243.459 -591.501 -0.373151 -0.0515546 0.298384 0.876965 
2941 2 30.6907 248.199 -583.426 -0.928449 0.126326 0.262877 0.230046 
3014 2 -114.684 248.615 -547.02 0.118661 0.912325 -0.390913 -0.0277441 
2922 2 -58.6018 393.039 -583.319 -0.659729 -0.616596 0.0306006 -0.428521 
2921 2 -63.285 400.071 -588.312 -0.819762 -0.319905 -0.404753 0.248647 
2923 2 -54.0601 384.542 -581.299 -0.0545009 -0.321532 0.64747 -0.688789 
2942 2 26.7065 251.535 -575.026 -0.738442 0.284901 -0.0774341 -0.60625 
2937 2 -48.6831 263.644 -626.517 -0.154173 -0.409147 0.830908 -0.344125 
2936 2 -48.7767 270.733 -619.614 -0.36643 -0.889269 0.258819 -0.0891253 
2943 2 23.7964 256.504 -566.841 -0.0463048 0.291204 -0.243777 -0.923921 
2924 2 -50.4541 375.326 -581.367 0.477122 0.335822 0.710894 -0.392693 
2925 2 -46.7765 366.301 -583.288 0.64309 0.745845 0.137587 0.105927 
2926 2 -42.8543 357.269 -584.629 0.357432 0.601863 -0.4801 0.528685 
2944 2 18.6913 260.888 -559.543 0.607194 0.015414 -0.507256 -0.611367 
2945 2 12.7636 266.708 -554.182 0.833827 -0.29321 -0.465867 0.0415716 
2946 2 5.04162 271.034 -549.641 0.545748 -0.542706 -0.0702638 0.634581 
2935 2 -47.8247 278.954 -614.161 -0.314621 -0.751422 -0.480362 0.32501 
2934 2 -47.8113 286.929 -608.327 -0.00442427 -0.0596095 -0.884379 0.462927 
2933 2 -45.3142 295.571 -604.162 0.481848 0.540188 -0.625116 0.291975 
2927 2 -39.7028 348.095 -586.436 -0.228152 -0.114199 -0.742855 0.618927 
2928 2 -37.193 338.582 -587.216 -0.676576 -0.603344 -0.313371 0.282877 
2932 2 -40.2735 303.387 -600.561 0.493072 0.830714 -0.103367 -0.236873 
2931 2 -37.4257 311.347 -595.549 0.240615 0.595367 0.635205 -0.429134 
2947 2 -2.81332 275.609 -545.624 -0.17572 -0.29647 0.26772 0.899752 
2948 2 -9.33969 279.661 -539.345 -0.846009 -0.00624266 0.348767 0.403226 
2929 2 -36.5753 328.742 -586.585 -0.514466 -0.735177 0.388381 -0.209762 
2930 2 -36.7347 319.437 -589.927 -0.117673 -0.13565 0.875022 -0.449543 
2949 2 -15.0213 282.343 -531.682 -0.750119 0.242038 0.389833 -0.476204 
2939 3 -10.7913 270.096 -591.698 0.367201 -0.0298969 -0.381612 -0.847727 
2950 2 -22.7716 282.607 -525.449 -0.10106 0.38541 0.0116836 -0.91712 
2951 2 -29.5835 283.415 -518.293 0.695297 0.202186 -0.203431 -0.659014 
2920 2 -70.4612 406.202 -591.345 -0.36456 0.238352 -0.53455 0.724252 
2919 2 -77.9043 411.424 -595.086 0.336165 0.54858 -0.125999 0.7551 
2911 1 -107.186 451.99 -542.609 0.0875468 -0.725134 0.480089 -0.48583 
2913 2 -128.435 431.48 -579.363 -0.418561 0.376439 -0.784387 0.260456 
2914 2 -120.155 430.663 -584.696 -0.489277 -0.412237 -0.766547 -0.0554461 
2915 2 -112.237 427.066 -589.61 -0.286204 -0.810717 -0.235214 -0.453321 
2916 2 -104.129 423.815 -594.072 0.11749 -0.624659 0.493264 -0.593875 
2917 2 -95.8705 419.213 -596.944 0.607914 -0.0102697 0.690915 -0.391116 
2918 2 -87.0969 414.693 -596.938 0.725486 0.394587 0.472093 0.308382 
2912 3 -80.5626 438.67 -560.912 0.141769 -0.703754 0.496495 -0.48798 
2910 2 -69.6658 462.547 -516.059 0.298144 0.310222 -0.250434 -0.867269 
2909 2 -62.7167 460.118 -522.67 -0.41155 0.394847 0.0671215 -0.818668 
2908 2 -55.7851 458.714 -529.639 -0.878789 0.216096 0.37516 -0.200716 
2907 2 -49.0501 459.568 -536.757 -0.747372 -0.264512 0.281336 0.540665 
2891 2 67.9776 522.99 -614.986 0.480724 -0.312905 -0.322387 0.753035 
2893 2 52.7567 517.545 -603.415 -0.77914 -0.36268 0.332339 0.38853 
2894 2 44.9193 514.018 -598.618 -0.72577 0.0029746 0.57395 -0.379249 
2899 2 9.94299 485.399 -580.961 -0.149076 -0.526368 -0.118995 0.828585 
2900 2 1.80374 482.092 -576.448 -0.76955 -0.405485 0.2873 0.40104 
2901 2 -5.51738 478.448 -570.903 -0.741081 -0.0859585 0.531057 -0.401732 
2902 2 -12.6364 473.58 -566.143 -0.221665 0.341627 0.293478 -0.864885 
2898 2 17.2762 489.826 -585.846 0.558329 -0.182965 -0.464301 0.662734 
2897 2 24.6295 495.482 -589.405 0.82326 0.289634 -0.479825 0.0901305 
2896 2 29.3646 503.671 -592.247 0.609959 0.608395 0.103017 -0.497185 
2903 2 -20.2011 470.5 -560.528 0.543859 0.460998 -0.0508924 -0.699363 
2904 2 -26.9142 466.088 -554.847 0.886267 0.1449 -0.439288 -0.0237018 
2905 2 -34.4879 462.992 -549.409 0.622757 -0.186936 -0.392456 0.650544 
2906 2 -41.9566 460.179 -543.619 -0.0426667 -0.395613 -0.0681472 0.914891 
2895 2 36.7654 509.172 -595.87 -0.153284 0.365791 0.443365 -0.803821 
2892 2 60.3858 520.476 -609.127 -0.280853 -0.479394 -0.0221466 0.831151 
2890 2 75.2883 526.934 -620.193 0.868593 0.20475 -0.450022 0.0332362 
2889 2 80.1604 532.792 -626.556 0.624387 0.425468 0.0112348 -0.654974 
2888 2 85.6289 538.493 -632.418 -0.054526 0.324689 0.345048 -0.878946 
2887 2 90.8604 544.858 -637.947 -0.74823 -0.166493 0.443183 -0.464781 
2886 2 94.9889 550.154 -645.17 -0.917976 -0.299257 0.0970556 0.241547 
2885 3 54.9473 566.415 -616.398 0.184637 0.182459 0.207121 -0.943249 
2884 1 63.4366 585.287 -644.578 0.156205 0.183536 0.21659 -0.946046 
2874 2 56.8362 590.878 -547.759 -0.1737 -0.0433267 0.983726 0.0153206 
2875 2 53.0546 591.493 -556.938 -0.174336 0.710237 0.645299 -0.220815 
2876 2 48.3047 591.153 -565.681 0.0670768 0.962011 -0.178459 -0.195416 
2873 2 60.2193 594.125 -539.13 -0.251619 -0.804885 0.536187 0.0367536 
2872 2 63.7064 595.349 -529.934 0.0202907 -0.917824 -0.345542 0.194392 
2871 2 67.5693 596.049 -520.771 0.201628 -0.220646 -0.947529 0.113364 
2877 2 44.2413 590.968 -574.728 0.25736 0.452996 -0.830854 -0.195554 
2878 2 38.5498 592.266 -582.7 0.261041 -0.398935 -0.874469 -0.0895113 
2879 2 34.7901 596.236 -590.932 0.175735 -0.961795 -0.14642 0.150431 
2880 2 31.4403 599.23 -599.812 0.0375953 -0.732933 0.646223 0.209263 
2881 2 28.7433 602.405 -608.795 -0.137762 0.0312584 0.977096 0.159148 
2882 2 26.1471 605.33 -617.929 -0.12533 0.775948 0.614461 0.0680788 
2883 2 25.7556 607.92 -627.47 -0.113859 0.954338 -0.267984 -0.0667784 
3073 1 -174.017 83.5969 -402.17 0.140314 -0.304477 -0.604968 -0.722232 
3075 2 -133.935 77.1818 -378.115 -0.44438 0.203739 -0.566237 -0.663621 
3076 2 -131.707 86.4763 -375.504 0.292449 -0.260185 -0.515195 -0.762464 
3077 2 -130.717 95.6957 -372.121 0.780286 -0.547851 -0.151887 -0.260661 
2635 2 75.3912 93.5653 -361.695 -0.410919 0.649472 0.623243 -0.144568 
3072 2 -206.905 110.2 -423.183 -0.0292513 0.401474 0.497715 -0.768272 
3027 2 -108.593 181.894 -509.355 -0.589734 0.40688 -0.233138 -0.657502 
3028 2 -111.24 189.564 -503.643 0.218251 0.050491 -0.509482 -0.83081 
3029 2 -114.466 197.526 -498.687 0.787128 -0.301778 -0.505007 -0.185277 
3030 2 -120.875 204.367 -495.439 0.5185 -0.527924 -0.147423 0.656293 
3071 2 -200.611 117.742 -424.691 -0.640572 -0.207587 0.610987 -0.416257 
3031 2 -129.203 207.93 -491.627 -0.120645 -0.402448 0.332046 0.844527 
3032 2 -137.106 212.037 -487.202 -0.783765 0.0160684 0.469497 0.406236 
3033 2 -144.009 215.819 -481.31 -0.851779 0.392321 0.288713 -0.192878 
3034 2 -150.374 221.658 -476.433 -0.31364 0.456796 -0.19665 -0.808886 
3070 2 -194.759 125.768 -425.796 -0.652434 -0.664078 0.15927 0.328578 
3069 2 -189.699 134.294 -425.914 -0.13218 -0.464959 -0.536261 0.691929 
3068 2 -183.929 142.192 -424.472 0.434212 0.115694 -0.755907 0.476108 
3074 3 -162.777 116.339 -396.615 0.158748 -0.31891 -0.563475 -0.74538 
3067 2 -179.142 150.738 -422.699 0.651362 0.65739 -0.377334 -0.0344263 
2980 2 -92.5 218.171 -440.726 0.171841 0.374868 -0.629909 0.658148 
2981 2 -89.6353 208.702 -441.564 -0.427189 -0.261353 -0.670237 0.547711 
2982 2 -87.3623 199.081 -440.871 -0.772412 -0.606267 -0.188944 -0.0109528 
2983 2 -84.129 189.848 -439.293 -0.459582 -0.540748 0.28104 -0.646059 
3059 2 -142.985 218.686 -433.643 0.294861 0.528442 0.218087 -0.765666 
3060 2 -149.474 211.977 -430.148 0.67069 0.685037 -0.224215 -0.175005 
3061 2 -154.395 203.421 -430.466 0.466305 0.288965 -0.675329 0.49294 
3062 2 -157.491 194.031 -431.487 -0.119801 -0.421429 -0.49523 0.750195 
3063 2 -162.609 185.595 -430.347 -0.710939 -0.613591 -0.0078443 0.343527 
3064 2 -166.253 176.738 -427.591 -0.747383 -0.332555 0.473341 -0.326763 
3065 2 -171.295 168.715 -424.857 -0.134988 0.0903648 0.653754 -0.739066 
3066 2 -174.544 159.474 -423.108 0.436106 0.609967 0.307785 -0.585679 
3085 2 -147.077 170.724 -373.062 0.565771 -0.705066 0.199789 0.377981 
3086 2 -149.832 180.144 -374.224 0.0269583 -0.195435 0.746107 0.635927 
3087 2 -151.828 189.744 -375.999 -0.511835 0.429255 0.582055 0.463656 
3088 2 -153.187 199.491 -376.986 -0.595978 0.794083 -0.0499644 -0.108377 
3058 2 -138.612 226.785 -437.218 -0.377208 -0.00924023 0.590557 -0.713352 
3089 2 -154.919 208.925 -379.604 -0.225003 0.583787 -0.611999 -0.483759 
3090 2 -157.843 217.145 -384.29 0.365693 -0.0742134 -0.860047 -0.347965 
3035 2 -156.598 227.577 -471.394 0.431121 0.165676 -0.540091 -0.703554 
3036 2 -162.807 234.117 -467.347 0.845967 -0.250548 -0.453329 -0.126718 
3091 2 -163.382 223.92 -388.975 0.549872 -0.66093 -0.506756 0.0633298 
2979 2 -95.1679 226.409 -435.985 0.492209 0.849853 0.00741008 0.188217 
3037 2 -169.732 239.835 -463.149 0.636438 -0.616185 -0.0360806 0.462558 
3092 2 -169.109 230.685 -393.362 0.297003 -0.801078 0.328185 0.402936 
2978 2 -98.9015 231.882 -428.661 0.344349 0.603337 0.713878 -0.0882421 
2977 2 -101.593 237.065 -420.577 0.086947 -0.154849 0.934522 -0.308434 
2984 2 -79.6292 181.348 -436.871 0.133366 -0.0478945 0.569295 -0.809829 
2985 2 -77.5377 172.536 -432.989 0.785301 0.23184 0.408897 -0.402934 
3057 2 -132.249 233.732 -439.943 -0.793692 -0.456849 0.401669 0.00201589 
3056 2 -126.789 241.878 -440.971 -0.580921 -0.666182 -0.0378797 0.466152 
3093 2 -173.932 238.145 -397.755 -0.18435 -0.203082 0.836576 0.47425 
2986 2 -73.391 165.677 -427.171 0.87097 0.329633 -0.00877616 0.364248 
2987 2 -71.1599 159.696 -419.652 0.375837 0.213781 -0.0745688 0.898601 
2988 2 -67.7749 156.855 -410.772 -0.539445 -0.0195126 -0.189029 0.820296 
2989 2 -66.3115 153.711 -401.465 -0.973745 -0.143755 -0.0601626 0.165938 
3084 2 -143.53 161.785 -370.764 0.628242 -0.652671 -0.398408 -0.143536 
2990 2 -65.324 150.527 -392.138 -0.683932 -0.244134 -0.016045 -0.687298 
2976 2 -105.053 240.486 -411.827 -0.0453775 -0.804873 0.526749 -0.269547 
3083 2 -140.364 152.393 -369.653 0.278632 -0.105449 -0.728599 -0.616756 
3082 2 -136.881 143.387 -367.678 -0.218216 0.50864 -0.568804 -0.608382 
2991 2 -61.3924 147.511 -383.53 0.153752 -0.175712 0.200852 -0.951391 
2975 2 -108.433 242.798 -402.822 -0.194131 -0.909615 -0.340179 -0.138534 
2993 3 -62.1089 197.32 -398.216 0.246516 0.00230258 -0.943666 -0.220724 
2999 2 -68.6891 243.66 -411.001 -0.275078 0.854605 0.379865 -0.2229 
3081 2 -134.286 133.892 -366.679 -0.61255 0.765857 0.0153706 -0.194961 
3078 2 -130.025 104.769 -368.242 0.627519 -0.537379 0.322553 0.461957 
3080 2 -132.658 124.166 -365.774 -0.476692 0.445943 0.583827 0.482748 
3079 2 -131.447 114.357 -366.093 0.0407214 -0.114227 0.66744 0.734723 
2998 2 -62.2515 241.531 -403.746 -0.370088 0.268821 0.888846 0.0268679 
3010 2 -105.899 239.171 -509.652 0.161878 -0.982083 -0.00382522 0.0964076 
3000 2 -74.5586 246.398 -418.531 -0.00937099 0.845076 -0.447721 -0.292071 
2974 2 -112.171 243.87 -393.703 -0.203946 -0.288245 -0.935578 -0.00387427 
3094 2 -178.601 245.5 -402.566 -0.409953 0.495595 0.743785 0.181953 
3009 2 -104.648 240.109 -499.806 0.0349078 -0.567194 -0.82013 0.066777 
2973 2 -114.692 246.738 -384.561 -0.00750895 0.560341 -0.805276 0.193629 
3008 2 -102.352 241.914 -490.325 0.158511 0.384575 -0.909152 0.0204514 
3007 2 -100.351 245.566 -481.315 0.194419 0.948664 -0.246271 -0.0398607 
3006 2 -98.2454 248.064 -471.989 0.0481843 0.780032 0.599853 -0.17148 
3038 2 -175.63 247.248 -460.33 0.0176879 -0.347412 0.468488 0.812103 
2636 2 68.3013 96.9238 -367.779 -0.199847 0.841601 -0.193313 -0.463033 
2997 2 -56.4029 239.839 -395.964 -0.199885 -0.487768 0.814889 0.241007 
2638 2 54.0311 106.964 -377.26 0.598047 -0.300667 -0.74292 0.00298444 
2639 2 44.9694 110.183 -379.689 0.437757 -0.77798 -0.113854 0.436066 
2640 2 37.2083 115.666 -382.235 -0.103387 -0.552735 0.576618 0.592712 
2996 2 -49.959 238.104 -388.577 0.0397974 -0.923876 0.1357 0.355604 
2995 2 -43.9868 236.711 -380.841 0.326204 -0.689301 -0.614084 0.203361 
2695 1 32.7169 220.557 -380.568 -0.413797 -0.663502 -0.355763 -0.51183 
2696 3 66.3895 213.723 -386.86 -0.404898 -0.692891 -0.355569 -0.479093 
2992 1 -44.7597 189.205 -368.898 0.256738 0.0175821 -0.956373 -0.138301 
2689 2 84.4632 226.157 -426.119 0.619981 -0.10097 -0.712287 -0.313171 
2690 2 76.5543 232.075 -426.569 0.709036 -0.52382 -0.301937 0.362925 
2691 2 68.6981 237.43 -423.931 0.0948614 -0.595331 0.196097 0.773388 
2688 2 92.0596 220.154 -423.968 0.111312 0.529948 -0.579781 -0.608785 
2692 2 59.8741 241.651 -421.917 -0.553533 -0.19342 0.565508 0.579991 
2994 2 -37.9852 235.749 -372.911 0.314187 0.00738656 -0.947055 -0.0657186 
2637 2 61.1159 101.886 -372.555 0.290192 0.337814 -0.783538 -0.433289 
2693 2 51.2821 245.755 -419.245 -0.818261 0.306931 0.479387 -0.0801953 
2687 2 99.9938 214.656 -421.554 -0.416904 0.77949 0.0808507 -0.460489 
2682 2 141.832 189.085 -424.571 0.702889 -0.145856 -0.650431 -0.248218 
2683 2 133.228 193.919 -423.319 0.641603 -0.559221 -0.305614 0.42687 
2681 2 149.653 183.477 -426.806 0.144675 0.440732 -0.460061 -0.757079 
2680 2 156.834 176.659 -427.45 -0.498422 0.675604 -0.0424633 -0.541601 
2679 2 162.966 169.342 -429.996 -0.778569 0.397387 0.461207 0.152319 
2678 2 168.973 162.262 -433.369 -0.473166 -0.0487951 0.558083 0.679909 
2677 2 176.063 155.331 -434.198 0.216937 -0.610327 0.277115 0.709681 
2676 2 182.116 147.777 -436.123 0.724827 -0.587637 -0.261778 0.246538 
2675 2 189.183 141.275 -438.233 0.675498 -0.176605 -0.579257 -0.420683 
2674 2 196.175 135.203 -441.603 0.174099 0.370951 -0.449984 -0.793473 
2673 2 204.243 130.135 -444.214 -0.478265 0.599875 0.0708484 -0.637489 
2672 2 211.929 124.32 -446.139 -0.763095 0.388495 0.516095 -0.0200894 
2671 2 219.415 117.823 -446.219 -0.425829 -0.175614 0.70135 0.544002 
2669 3 226.015 147.134 -408.651 -0.536156 0.550085 0.174857 -0.615929 
2684 2 124.462 198.203 -421.65 0.103349 -0.560371 0.246978 0.783776 
2685 2 116.453 203.709 -419.773 -0.453772 -0.248012 0.677682 0.522808 
2686 2 108.133 209.202 -419.81 -0.636911 0.433971 0.636952 -0.0174872 
2670 2 227.222 111.718 -446.581 0.198643 -0.638742 0.25632 0.697747 
2664 2 240.341 174.056 -378.545 0.587127 0.298722 0.752348 0.00455937 
2661 2 211.785 178.298 -375.354 -0.62434 -0.368397 -0.578214 -0.374369 
2663 2 231.625 177.74 -375.748 0.337924 -0.396784 0.719921 -0.458348 
2658 2 182.67 174.45 -376.464 0.359931 0.483145 0.54264 0.585288 
2662 2 221.762 178.355 -375.661 -0.0594507 -0.714719 0.020952 -0.696566 
2660 2 201.824 178.488 -375.969 -0.642205 0.287295 -0.640694 0.307482 
2659 2 192.096 177.159 -377.494 -0.236248 0.659815 -0.131836 0.701035 
2657 2 173.592 171.278 -373.969 0.591349 -0.174484 0.781611 0.0945793 
2656 2 164.64 167.003 -373.005 0.507065 -0.696149 0.278008 -0.42541 
2655 2 155.45 163.787 -371.02 -0.0925234 -0.68236 -0.332543 -0.64439 
2654 2 147.576 160.631 -365.865 -0.435342 -0.141413 -0.850415 -0.259371 
2665 2 249.147 170.68 -381.508 0.310437 0.769508 0.189809 0.524842 
2666 2 258.43 167.846 -383.796 -0.268095 0.55665 -0.448866 0.645589 
2668 1 257.109 133.674 -417.388 -0.538324 0.549367 0.20003 -0.606952 
2667 2 267.995 165.275 -384.064 -0.669122 -0.00621059 -0.716597 0.196791 
3001 2 -79.6942 248.791 -426.646 0.200462 0.312113 -0.914796 -0.159839 
3002 2 -84.7824 250.327 -435.008 0.204144 -0.522427 -0.823028 0.0895589 
3003 2 -88.9052 250.95 -443.933 0.0140068 -0.982049 -0.123083 0.142248 
3004 2 -91.5579 250.29 -453.378 -0.153499 -0.685696 0.710493 0.0381971 
3005 2 -95.0601 248.981 -462.597 -0.162805 0.0505747 0.983279 -0.0640186 
3055 2 -122.251 250.719 -441.49 -0.0516778 -0.359607 -0.567165 0.739145 
3039 2 -181.177 254.931 -457.483 -0.547815 0.0575349 0.529849 0.644864 
3045 2 -202.778 304.885 -436.527 0.232117 -0.341516 0.506644 0.756836 
3044 2 -199.713 295.644 -438.502 0.734038 -0.609542 0.0407587 0.296622 
3043 2 -196.24 286.549 -440.001 0.679814 -0.435617 -0.473187 -0.352398 
3040 2 -186.598 262.323 -453.538 -0.873725 0.448171 0.173647 -0.0747909 
3099 2 -197.316 288.135 -416.345 0.497353 -0.640432 0.340433 0.476017 
3095 2 -182.871 252.428 -408.1 -0.5544 0.806987 0.0886441 -0.183178 
3041 2 -190.975 269.649 -448.561 -0.500704 0.368854 -0.36504 -0.692811 
3098 2 -194.79 278.497 -415.834 0.683112 -0.683169 -0.252593 -0.0532447 
3042 2 -192.535 278.101 -443.603 0.242019 0.0568876 -0.558044 -0.791693 
3097 2 -190.133 269.763 -414.54 0.424654 -0.130841 -0.731694 -0.516889 
2959 2 -79.48 290.324 -459.319 0.97355 -0.175841 -0.126125 -0.0733046 
3096 2 -186.505 260.937 -411.675 -0.164057 0.479236 -0.64174 -0.575837 
2972 2 -118.537 251.315 -376.653 0.24022 0.940942 -0.0990325 0.217059 
2971 2 -121.416 257.924 -369.929 0.357906 0.670515 0.625154 -0.177468 
3054 2 -118.04 259.517 -442.227 0.484629 0.2117 -0.645341 0.551229 
2970 2 -121.239 266.33 -364.772 0.0309671 0.0533455 0.854867 -0.515167 
3053 2 -113.599 268.246 -443.64 0.765115 0.593766 -0.248621 -0.0151057 
2960 2 -81.8752 294.182 -450.474 0.62899 -0.330669 0.160452 0.685044 
2961 2 -84.8777 300.747 -443.59 -0.221412 -0.0589587 0.424909 0.875758 
2962 2 -87.7895 307.72 -437.236 -0.756472 0.42209 0.303833 0.39658 
2963 2 -89.4227 316.484 -433.028 -0.776127 0.511344 -0.186044 -0.318656 
2964 2 -90.0004 325.545 -429.149 -0.241482 0.176925 -0.538145 -0.787898 
2965 1 -104.447 317.192 -385.007 0.472301 0.874537 -0.0683059 -0.0863174 
2966 3 -113.286 287.865 -402.048 0.501894 0.859556 -0.0222032 -0.0936605 
3046 1 -158.831 321.264 -441.439 -0.455774 -0.308554 -0.530776 0.644469 
3047 3 -154.076 287.28 -434.747 -0.468339 -0.264671 -0.547848 0.64068 
3048 2 -111.83 316.74 -441.652 -0.24574 -0.242048 -0.724991 0.596164 
3049 2 -110.936 307.077 -443.347 -0.61182 -0.739461 -0.198074 0.199101 
3050 2 -111.555 297.292 -444.937 -0.517572 -0.631674 0.350418 -0.4586 
3051 2 -110.066 287.561 -445.432 -0.0949897 -0.0440864 0.66972 -0.735192 
3052 2 -111.602 277.8 -445.178 0.469222 0.483425 0.445411 -0.589695 
3100 1 -182.099 307.816 -376.242 0.631724 0.55004 0.532888 -0.120046 
3101 3 -162.054 279.288 -379.25 0.629801 0.568435 0.519742 -0.100505 
2958 2 -75.992 287.653 -468.186 0.556165 0.0773241 -0.234041 -0.793679 
2957 2 -71.3439 285.399 -476.657 -0.245948 0.262794 -0.0526729 -0.931491 
2956 2 -63.7113 283.965 -482.72 -0.78019 0.26461 0.326413 -0.4634 
2955 2 -56.5338 283.787 -489.5 -0.886033 -0.122134 0.364336 0.2594 
2954 2 -49.3052 283.805 -496.215 -0.305292 -0.350695 0.101766 0.879462 
2694 2 43.3403 250.399 -415.472 -0.472765 0.557891 0.0784042 -0.677572 
2952 2 -35.3322 283.76 -510.2 0.91932 -0.0518114 -0.36829 0.128562 
2953 2 -41.9634 283.904 -502.885 0.453869 -0.310378 -0.247519 0.797748 
2734 2 226.753 271.254 -363.817 0.56824 -0.689304 -0.122866 0.432282 
2735 2 219.488 277.991 -363.807 0.154644 -0.589695 0.419055 0.672858 
2736 2 212.317 284.811 -363.557 -0.46013 -0.028332 0.69385 0.553217 
2737 2 205.617 291.951 -363.505 -0.714444 0.50447 0.484754 -0.00961311 
2738 2 198.347 298.662 -363.606 -0.472417 0.649496 -0.176767 -0.568973 
2733 2 232.95 263.621 -363.269 0.685575 -0.343445 -0.612903 -0.19074 
2732 2 239.383 256.204 -362.56 0.266653 0.218822 -0.709345 -0.614688 
2739 2 193.053 307.039 -362.747 0.186946 0.258683 -0.629381 -0.708529 
2742 2 169.766 324.733 -363.141 0.0184212 -0.532658 0.422979 0.73282 
2740 2 186.638 314.528 -362.256 0.67302 -0.30118 -0.645506 -0.199142 
2741 2 178.671 320.441 -362.673 0.478388 -0.697638 -0.190189 0.498271 
2743 2 161.952 330.813 -363.249 -0.633798 -0.0454088 0.618729 0.461967 
2838 2 75.7483 546.713 -447.541 0.23394 -0.389428 -0.875898 -0.162547 
2837 2 77.7519 542.072 -439.038 -0.0160747 0.435277 -0.856289 -0.27757 
2836 2 78.6377 538.179 -429.978 -0.162865 0.957932 -0.222242 -0.0803078 
2835 2 78.7983 535.048 -420.551 -0.135861 0.746405 0.645091 0.0909839 
2834 2 78.459 532.642 -410.958 0.0454199 -0.0100226 0.989827 0.134459 
2833 2 77.7459 532.929 -401.161 -0.0395085 -0.785481 0.617495 -0.0126399 
2832 2 75.2225 534.331 -391.717 -0.0505253 -0.969769 -0.192837 -0.140746 
2839 2 72.4448 551.2 -455.757 0.236887 -0.938433 -0.186155 0.169038 
2816 2 192.153 538.272 -386.1 -0.336128 0.631223 0.140237 -0.684769 
2815 2 200.959 534.058 -387.728 -0.755944 0.369677 0.527451 -0.116974 
2814 2 209.929 529.781 -387.037 -0.562749 -0.148506 0.712683 0.391591 
2813 2 218.086 525.236 -383.816 -0.0175254 -0.700574 0.416249 0.579332 
2812 2 227.076 522.635 -380.594 0.361436 -0.748437 -0.325899 0.450552 
2811 2 236.59 523.365 -378.017 0.604067 -0.0952418 -0.783847 0.107776 
2787 2 228.17 433.785 -376.564 -0.894523 0.268068 0.256275 0.249581 
2786 2 232.828 429.707 -384.3 -0.390707 -0.145158 0.323835 0.849357 
2788 2 224.614 439.63 -369.373 -0.795018 0.31043 0.089367 -0.513414 
2785 2 237.36 427.124 -392.76 0.33183 -0.276868 0.0262164 0.901413 
2817 2 182.803 540.978 -384.38 0.238347 0.452722 -0.479259 -0.713123 
2818 2 174.065 545.345 -383.437 0.689488 -0.199151 -0.682233 -0.139655 
2810 2 245.53 522.77 -373.892 0.392179 0.540875 -0.647507 -0.366585 
2784 2 243.283 426.661 -400.719 0.880867 -0.128963 -0.337976 0.305311 
2789 2 220.392 444.511 -361.871 -0.0975391 0.233791 -0.239138 -0.937358 
2819 2 165.53 550.325 -384.685 0.491498 -0.782596 -0.255196 0.284339 
2783 2 249.031 426.005 -408.696 0.785554 0.150289 -0.27694 -0.532561 
2809 2 254.168 524.089 -369.292 0.0638377 0.870786 0.0153805 -0.487258 
2781 2 264.121 422.914 -421.267 -0.636876 0.369886 0.267541 -0.621286 
2780 2 271.921 420.635 -426.917 -0.895692 0.108728 0.430158 0.0296341 
2779 2 280.82 420.722 -431.394 -0.572685 -0.395716 0.355468 0.623765 
2782 2 255.992 424.237 -415.615 0.0572309 0.39281 -0.138276 -0.907361 
2778 2 288.787 421.942 -436.99 0.145974 -0.416009 -0.182535 0.878811 
2776 1 314.593 434.537 -399.584 -0.591696 0.104769 0.525787 -0.602052 
2777 3 288.248 416.461 -385.406 -0.581047 0.105084 0.551358 -0.589361 
2808 2 260.047 527.803 -362.268 -0.136753 0.57036 0.709793 -0.390104 
3292 2 -112.528 611.746 -384.82 -0.824308 0.0921328 -0.0412737 0.557068 
3291 2 -115.924 611.119 -393.997 0.0243361 0.175103 0.0526944 0.982838 
3289 1 -78.3038 637.025 -405.888 -0.626531 -0.270567 0.046978 -0.729415 
3293 2 -110.992 612.963 -375.079 -0.952123 0.0996443 -0.0242738 -0.287998 
3290 3 -69.1189 623.024 -375.156 -0.649137 -0.28145 0.0637446 -0.703807 
3294 2 -111.135 615.868 -365.58 -0.37035 -0.0613559 -0.146611 -0.915195 
2840 2 68.6259 555.553 -463.82 0.0612176 -0.765573 0.517341 0.377504 
2870 2 70.5618 598.585 -511.688 0.208152 0.684578 -0.698038 -0.0277182 
2841 2 63.3226 559.731 -471.07 -0.324928 -0.0614581 0.894325 0.301375 
2842 2 57.3736 564.345 -477.537 -0.592898 0.601144 0.53241 -0.0603037 
2869 2 70.9754 602.38 -502.52 0.199262 0.968375 0.131405 -0.072644 
2868 2 73.557 605.551 -493.502 0.0137067 0.511555 0.827444 -0.231215 
2848 2 17.5965 606.468 -482.85 -0.37763 0.107472 0.685494 0.613143 
2843 2 50.126 570.561 -480.4 -0.3785 0.702576 -0.0379291 -0.601404 
2844 2 42.205 576.506 -480.322 0.258885 0.373479 -0.646491 -0.612814 
2850 2 11.5715 625.111 -480.113 -0.585803 0.515097 -0.325651 -0.534285 
2849 2 14.2727 615.823 -482.363 -0.776723 0.566518 0.25665 0.0994408 
2847 2 22.5595 597.924 -482.53 0.217606 -0.515933 0.484122 0.672373 
2867 2 75.1479 607.658 -483.961 -0.0958848 -0.351718 0.925369 -0.103888 
2851 2 9.62649 634.593 -478.295 0.065858 0.0129874 -0.669389 -0.739873 
2846 2 27.212 589.075 -482.264 0.598919 -0.737299 -0.0108154 0.31236 
2845 2 34.182 582.098 -481.574 0.629527 -0.264789 -0.681389 -0.263232 
2831 3 86.5906 579.105 -415.468 -0.00453386 -0.995216 0.0248911 0.0943649 
2852 2 8.28666 644.213 -477.086 0.59388 -0.54335 -0.316876 -0.501664 
2853 2 9.81252 653.707 -474.79 0.802642 -0.561385 0.16113 0.121039 
3285 2 -26.5498 636.208 -377.244 -0.353301 0.362787 0.819724 0.267612 
3286 2 -30.2857 643.018 -383.392 -0.358598 0.906052 0.195683 -0.110392 
3287 2 -33.5161 648.95 -390.724 -0.192555 0.765725 -0.55388 -0.264207 
2854 2 10.5355 663.069 -471.64 0.479221 -0.153834 0.495838 0.707691 
2856 2 15.0295 679.106 -461.043 -0.812249 0.442341 0.0520604 0.376664 
2855 2 12.7013 671.652 -467.236 -0.264177 0.240849 0.36199 0.86091 
3288 2 -35.2585 654.846 -398.474 0.106391 -0.00601499 -0.947653 -0.300995 
2858 3 46.0393 638.029 -453.623 0.334761 0.781486 0.493021 -0.184781 
2857 1 44.458 662.104 -428.35 0.284916 0.800684 0.488167 -0.198548 
2866 2 76.393 608.515 -474.18 -0.0282854 -0.957523 0.284171 0.0399603 
2865 2 77.9128 609.221 -464.405 0.0268826 -0.862329 -0.498513 0.0845651 
2864 2 80.2557 610.623 -454.917 0.140397 -0.120064 -0.977599 0.100867 
2860 2 77.1358 624.723 -418.922 0.0540792 -0.338024 0.89906 -0.272959 
2863 2 81.6711 612.354 -445.33 0.133164 0.719883 -0.680932 0.01919 
2861 2 80.173 620.382 -427.292 0.170907 0.528967 0.822864 -0.117816 
2862 2 81.6102 616.762 -436.426 0.230193 0.967769 0.0988757 -0.0256532 
2859 2 74.6044 630.226 -411.083 -0.229687 -0.893335 0.331286 -0.198612 
3284 2 -24.2816 628.905 -370.962 0.0194534 -0.293344 0.851856 0.433488 
2830 1 94.4478 576.157 -381.416 -0.0146078 -0.99373 -0.0147749 0.109861 
3283 2 -22.764 622.338 -363.799 0.315938 -0.906484 0.23623 0.15055 
2820 2 158.394 556.232 -388.352 0.0483851 -0.652659 0.522936 0.546108 
2829 2 106.741 620.616 -391.56 -0.91646 0.330553 0.213083 -0.0737023 
2821 2 151.881 562.751 -392.022 -0.375732 -0.00699914 0.831208 0.40972 
2822 2 145.468 569.695 -395.26 -0.591543 0.65057 0.476272 0.000791316 
2823 2 139.768 577.168 -398.404 -0.367606 0.80767 -0.0501807 -0.458275 
2824 2 133.047 583.779 -401.407 0.023167 0.372449 -0.645758 -0.666139 
2825 2 128.165 592.296 -402.71 0.580955 -0.349291 -0.652897 -0.337953 
2826 2 122.952 600.664 -404.061 0.619242 -0.689184 -0.101997 0.362161 
2827 2 116.688 608.348 -403.107 0.0535791 -0.365194 0.381805 0.847342 
2828 2 111.159 615.139 -398.507 -0.6225 0.0171115 0.36673 0.691166 
1183 1 85.6166 -570.817 -229.762 -0.332099 -0.199525 -0.498341 -0.7756 
1182 2 91.1388 -542.263 -266.891 0.585867 -0.140297 -0.781679 0.161414 
1181 2 100.593 -541.309 -264.129 0.521597 0.458892 -0.647381 -0.313453 
1184 3 109.337 -547.616 -218.572 -0.312873 -0.214338 -0.512567 -0.770354 
1074 2 202.228 -568.539 -240.624 -0.414798 0.766003 0.293102 0.394047 
1073 2 198.231 -577.009 -237.422 0.103653 0.167199 0.810695 0.55143 
1072 2 195.462 -584.932 -232.319 0.454504 -0.61312 0.606915 0.221729 
1071 2 192.793 -593.6 -228.525 0.493973 -0.816952 -0.145816 -0.259455 
1180 2 110.292 -540.831 -262.249 0.0706139 0.763936 -0.0235825 -0.640983 
1174 2 153.751 -527.105 -228.747 0.242583 0.671131 -0.653415 -0.252558 
1175 2 147.395 -527.08 -236.354 0.317665 -0.121571 -0.938074 0.0657779 
1173 2 154.603 -531.123 -219.756 -0.186288 0.978559 0.0851989 -0.02146 
1179 2 119.51 -538.104 -259.891 -0.387839 0.424004 0.682276 -0.451997 
1176 2 141.337 -528.061 -244.087 0.115026 -0.808615 -0.46776 0.337805 
1177 2 134.908 -529.291 -251.496 -0.317109 -0.835038 0.230689 0.385922 
1178 2 127.154 -532.795 -256.56 -0.575913 -0.32378 0.739533 -0.128766 
1070 2 190.764 -601.643 -223.119 0.134325 -0.415461 -0.756382 -0.487068 
1086 2 236.804 -653.223 -215.908 -0.204259 0.484387 0.294711 -0.797993 
1069 2 191.685 -609.024 -216.545 -0.169881 0.407069 -0.802794 -0.401194 
1075 1 244.029 -567.032 -218.752 0.458131 0.555164 0.363878 -0.591187 
1085 2 245.699 -649.479 -217.885 -0.686317 0.0932337 0.601628 -0.397895 
1087 2 228.372 -657.027 -212.276 0.516505 0.609616 -0.0549845 -0.598805 
1076 3 234.656 -600.596 -215.732 0.485175 0.550564 0.394952 -0.552718 
1068 2 193.307 -616.898 -210.67 -0.374744 0.899186 -0.144423 -0.173705 
1172 2 152.802 -535.745 -211.313 -0.0684324 0.596619 0.766113 0.228986 
1088 2 220.494 -662.32 -209.447 0.845424 0.196373 -0.495621 0.0324823 
1084 2 254.135 -644.459 -216.681 -0.618804 -0.579369 0.50124 0.173699 
1083 2 261.46 -638.026 -214.685 -0.266624 -0.758357 -0.210476 0.556333 
1082 2 267.644 -631.263 -210.925 0.201619 -0.363635 -0.753986 0.508551 
1209 2 38.9211 -459.924 -214.499 0.27809 0.892904 -0.333924 -0.117824 
1210 1 51.8316 -505.128 -209.787 0.0180382 0.190894 0.238532 0.952017 
2235 2 -193.42 -142.045 -223.087 0.425425 -0.699741 -0.465595 0.335557 
2234 2 -185.002 -144.627 -218.697 0.506574 -0.0409979 -0.849358 -0.142452 
2233 2 -176.45 -144.859 -213.818 0.245795 0.757302 -0.421393 -0.434174 
2472 2 -164.779 49.3565 -226.975 -0.578051 0.429952 -0.666582 -0.191485 
2473 2 -158.976 57.0214 -229.198 -0.194302 -0.146601 -0.681122 -0.690528 
2532 2 -157.944 -31.3175 -278.527 0.636119 -0.189203 -0.687982 0.29366 
2531 2 -148.12 -30.0157 -278.509 0.653336 0.376497 -0.591251 -0.28605 