ITEM: TIMESTEP
10000000
ITEM: NUMBER OF ATOMS
4067
ITEM: BOX BOUNDS pp pp pp
-4.6310929470000001e+03 4.6704658980000004e+03
-4.6310929470000001e+03 4.6704658980000004e+03
-4.6310929470000001e+03 4.6704658980000004e+03
ITEM: ATOMS id type x y z c_q[1] c_q[2] c_q[3] c_q[4] 
3602 2 -315.74 525.15 -530.053 0.378651 -0.147358 -0.906064 -0.118136 
3601 2 -310.372 524.348 -521.86 0.191931 0.628206 -0.733369 -0.175185 
3534 2 -312.616 408.371 -521.456 0.800503 0.0264382 0.461158 0.381877 
3603 2 -321.918 528.357 -537.041 0.259272 -0.833881 -0.482681 0.0666212 
3604 2 -325.837 532.239 -545.273 0.213203 -0.866591 0.281924 0.352255 
3605 2 -330.589 537.781 -551.977 -0.156244 -0.43663 0.828846 0.31298 
3535 2 -304.735 410.72 -515.969 0.206313 0.352252 0.258652 0.875473 
3606 2 -335.54 542.051 -559.454 -0.271707 0.493906 0.82145 0.0863218 
3607 2 -339.345 545.95 -567.637 -0.386571 0.879019 0.0763585 -0.268437 
3608 2 -344.743 552.081 -573.232 0.133765 0.55458 -0.629459 -0.527569 
3693 2 -401.07 653.878 -527.152 0.250545 -0.861678 -0.437097 -0.0606918 
3692 2 -399.601 649.083 -518.614 0.113187 -0.152177 -0.950513 -0.246082 
3613 1 -400.31 568.903 -543.937 0.623239 0.475733 0.451667 0.425733 
3612 2 -377.88 568.561 -585.452 -0.495163 -0.262068 0.765983 0.315283 
3611 2 -368.777 566.415 -582.25 -0.0320121 -0.773633 0.218324 0.593972 
3614 3 -367.392 560.926 -535.135 0.644473 0.45901 0.449314 0.414826 
3610 2 -359.924 562.889 -579.558 0.496382 -0.641548 -0.458962 0.362457 
3609 2 -352.182 557.134 -577.345 0.516402 -0.0939348 -0.791997 -0.311842 
3635 2 -228.963 621.49 -549.666 0.109944 -0.650151 -0.613061 -0.43517 
3634 2 -234.288 615.744 -543.602 -0.287441 0.0154938 -0.90517 -0.312738 
3640 1 -239.139 623.28 -610.348 -0.575077 0.182024 0.252861 -0.756448 
3642 2 -275.978 598.423 -626.345 -0.917863 0.200441 0.285379 -0.189501 
3641 3 -258.263 617.568 -581.547 -0.562036 0.189887 0.263074 -0.760822 
3643 2 -281.699 601.436 -618.816 -0.374017 0.397567 0.182026 -0.817874 
3644 2 -289.006 602.333 -612.237 0.512358 0.230265 -0.237788 -0.792416 
3645 2 -294.706 603.064 -604.199 0.967571 0.0295664 -0.20998 -0.137263 
3646 2 -298.64 603.648 -595.126 0.728035 -0.131927 0.00337923 0.672717 
3647 2 -300.447 605.765 -585.568 -0.122299 -0.189868 0.153441 0.962003 
3648 2 -304.809 608.59 -577.122 -0.72662 -0.131165 0.352566 0.574906 
3649 2 -311.057 610.607 -569.732 -0.938428 0.22063 0.219348 -0.150208 
3650 2 -315.852 613.909 -561.734 -0.451505 0.227561 -0.0301625 -0.862235 
3651 2 -320.079 616.444 -553.145 0.442943 0.138686 -0.222174 -0.857442 
3652 2 -324.413 618.091 -544.405 0.920888 -0.0771107 -0.280813 -0.259158 
3633 2 -242.538 612.504 -538.925 -0.491382 0.57314 -0.62649 0.193813 
3632 2 -251.196 608.504 -535.868 -0.189592 0.78866 0.127127 0.570884 
3653 2 -329.591 619.997 -536.285 0.782525 -0.243198 -0.16504 0.548881 
3631 2 -259.46 603.64 -533.468 0.304132 0.399192 0.679377 0.535347 
3630 2 -267.352 600.426 -528.462 0.499528 -0.248519 0.827437 0.0636974 
3654 2 -334.692 621.999 -528.083 0.00124102 -0.307619 -0.0315742 0.950985 
3636 2 -224.702 627.882 -555.897 0.374062 -0.896579 0.124759 -0.201641 
3629 2 -275.905 597.564 -524.443 0.394556 -0.772362 0.33407 -0.369027 
3637 2 -220.344 634.095 -562.283 0.283493 -0.557185 0.742055 0.241931 
3638 2 -218.627 641.084 -568.946 0.109206 0.340418 0.876062 0.323582 
3628 2 -284.694 594.657 -520.934 -0.0446965 -0.745718 -0.330275 -0.576911 
3639 2 -214.916 645.816 -576.732 -0.191066 0.905096 0.262325 0.274738 
3655 2 -340.533 621.76 -520.127 -0.760694 -0.246997 0.125016 0.587119 
3627 2 -293.637 592.124 -517.531 -0.497666 -0.214005 -0.801636 -0.252805 
3478 1 -394.473 300.351 -430.199 -0.883191 0.430244 -0.128199 0.135751 
3480 2 -404.008 336.583 -458.818 -0.837369 0.278808 -0.443801 -0.155305 
3481 2 -397.791 342.773 -454.202 -0.358678 -0.107445 -0.481057 -0.79271 
3479 3 -384.201 328.096 -411.573 -0.882602 0.42906 -0.110162 0.157432 
3477 2 -377.032 281.08 -390.767 0.386368 0.75518 0.48608 -0.210115 
3476 2 -377.944 288.779 -384.662 0.0715241 0.120969 0.887137 -0.43959 
3482 2 -392.147 349.039 -449.006 0.342456 -0.395209 -0.205735 -0.827168 
3483 2 -387.744 355.754 -443.45 0.907451 -0.400756 0.0821225 -0.0958305 
3484 2 -384.868 362.802 -437.001 0.686678 -0.149064 0.473442 0.531136 
3485 2 -379.586 369.644 -432.173 -0.00244704 0.419649 0.474553 0.773749 
3475 2 -379.42 296.407 -378.559 -0.192028 -0.523211 0.715079 -0.421944 
3474 2 -380.353 304.488 -372.843 -0.433657 -0.890348 0.103961 -0.0917236 
3473 2 -379.509 313.971 -370.394 -0.457185 -0.599915 -0.484442 0.443171 
3472 2 -376.656 323.126 -367.779 0.0997984 -0.131368 -0.773141 0.612401 
3471 2 -373.741 332.483 -366.52 0.610451 0.549646 -0.491695 0.28892 
3486 2 -373.437 377.235 -430.379 -0.669833 0.634352 -0.133014 0.362255 
3470 2 -372.206 342.255 -365.94 0.615911 0.736082 0.135677 -0.245821 
3487 2 -366.976 384.561 -428.839 -0.765713 0.18767 -0.575085 -0.218496 
3468 2 -370.723 361.563 -362.426 -0.350667 -0.364286 0.672004 -0.541053 
3469 2 -371.221 351.874 -364.194 0.190578 0.309131 0.707349 -0.606444 
3465 2 -363.607 390.027 -361.586 0.140644 -0.038037 -0.657774 0.73899 
3488 2 -359.219 390.01 -425.906 -0.317697 -0.259901 -0.550389 -0.727044 
3489 2 -351.756 396.198 -423.724 0.368866 -0.565489 -0.0944618 -0.731599 
2263 1 -81.5181 253.231 -380.578 0.891375 -0.361657 0.256032 -0.0954083 
2265 2 -91.5478 297.068 -395.004 -0.907575 0.260409 -0.327473 -0.0354471 
2230 2 -90.8568 339.418 -370.871 -0.227445 0.216907 -0.939248 -0.137961 
2231 2 -87.6992 342.865 -379.608 -0.0316426 -0.563782 -0.780503 -0.268261 
2232 2 -84.4098 346.644 -388.125 0.157741 -0.949912 -0.120474 -0.241392 
2233 2 -79.882 350.671 -395.978 0.302705 -0.675102 0.67276 0.00063265 
2234 2 -76.0231 354.56 -404.191 0.127215 0.17558 0.959246 0.181207 
2235 2 -73.1107 357.44 -413.186 -0.0441046 0.853692 0.482745 0.190321 
2266 2 -85.3556 302.037 -389.089 -0.475686 -0.195766 -0.472171 -0.715858 
2267 2 -78.2958 307.21 -384.403 0.321325 -0.502101 -0.105424 -0.795946 
2268 2 -70.8713 311.781 -379.639 0.928636 -0.242558 0.203034 -0.193852 
2269 2 -65.819 315.839 -372.085 0.742864 0.126334 0.278873 0.595333 
2237 3 -59.7309 375.487 -366.324 -0.883255 -0.331479 -0.130041 0.305078 
2236 1 -59.4614 397.983 -393.237 -0.871187 -0.370915 -0.107254 0.303236 
2270 2 -60.0279 317.172 -364.247 0.0271702 0.335117 0.106248 0.935772 
2229 2 -94.5247 333.237 -364.141 -0.373231 0.865445 -0.329516 0.0558814 
2370 2 177.285 362.346 -409.231 -0.190622 -0.934184 0.221402 0.204805 
2369 2 181.816 365.213 -400.905 0.0593197 -0.7438 -0.603775 0.280532 
2368 2 185.285 368.29 -392.131 0.175016 0.0476026 -0.971657 0.151609 
2367 2 188.538 371.811 -383.504 0.238809 0.771987 -0.588948 -0.0121375 
2366 2 191.548 374.959 -374.675 0.0985329 0.929947 0.31797 -0.156158 
2371 1 142.245 393.844 -411.665 0.89512 -0.174903 0.369481 0.177911 
2365 2 192.489 381.53 -367.271 0.0311022 0.213155 0.910741 -0.352346 
3583 2 -378.768 493.372 -495.228 -0.695491 0.118048 0.658317 0.262632 
3584 2 -387.224 498.581 -494.527 -0.626163 0.587313 0.333037 -0.389961 
3585 2 -395.835 503.487 -494.103 -0.0878888 0.607509 -0.273339 -0.740604 
3586 1 -386.521 532.451 -458.007 0.572904 0.349043 0.739433 0.0564642 
3450 2 -391.747 535.156 -388.903 -0.316797 0.852718 0.246016 0.334645 
3449 2 -395.553 528.123 -383.106 0.0404536 0.361077 0.822284 0.43799 
3452 3 -363.908 492.901 -377.843 0.339787 0.357539 0.312532 -0.811809 
3448 2 -399.386 520.66 -377.848 0.381369 -0.349116 0.815286 0.260737 
3447 2 -402.148 513.763 -371.181 0.383718 -0.898585 0.198798 -0.0760626 
3582 2 -369.621 490.254 -497.468 -0.253069 -0.479076 0.420119 0.727972 
3446 2 -405.079 505.985 -365.867 0.199913 -0.722154 -0.517833 -0.412767 
3462 2 -363.805 419.095 -363.183 0.231917 0.195906 0.57154 -0.76235 
3600 2 -306.372 523.213 -512.936 -0.0837501 0.979455 0.0689199 -0.170012 
3461 2 -361.256 428.348 -365.712 -0.491415 -0.237257 0.562615 -0.621036 
3536 2 -296.953 413.549 -510.512 -0.576747 0.418509 -0.165566 0.681763 
3490 2 -344.565 401.964 -420.263 0.802409 -0.434142 0.365683 -0.184219 
3531 2 -356.469 482.694 -490.08 0.258537 -0.793652 -0.284998 0.471223 
3569 2 -243.349 504.724 -500.627 -0.730386 -0.139484 0.661702 0.0960748 
3570 2 -253.22 504.605 -499.968 -0.494808 0.452739 0.557295 -0.489504 
3571 2 -263.066 504.179 -500.839 0.0520751 0.722336 -0.0605708 -0.686914 
3568 2 -233.632 505.19 -502.153 -0.44992 -0.542058 0.323825 0.631572 
3460 2 -356.5 436.445 -368.822 -0.829487 -0.477867 0.287417 0.0314209 
3572 2 -272.919 503.863 -501.346 0.646995 0.469412 -0.510034 -0.317671 
3573 2 -282.577 501.728 -500.91 0.662216 -0.153691 -0.657155 0.325571 
3491 2 -337.344 407.376 -416.3 0.684047 -0.00594833 0.560356 0.466954 
3578 2 -331.25 495.669 -501.151 0.121899 0.629893 0.057547 -0.764895 
3577 2 -321.856 498.944 -501.935 -0.527084 0.27781 0.624087 -0.50549 
3574 2 -292.337 500.019 -500.098 0.219728 -0.63664 -0.274075 0.686508 
3532 1 -343.993 441.374 -509.08 -0.182928 0.588816 0.0751749 0.783697 
3581 2 -359.793 489.502 -498.43 0.231601 -0.642983 -0.214957 0.697658 
3580 2 -349.927 489.88 -499.215 0.677976 -0.221121 -0.646366 0.271413 
3537 2 -289.486 416.093 -504.57 -0.912593 0.229696 -0.33802 -0.0124753 
3576 2 -312.029 498.838 -501.12 -0.67176 -0.190065 0.690081 0.190792 
3575 2 -302.164 498.965 -500.129 -0.298235 -0.67116 0.311644 0.602891 
3459 2 -351.283 444.223 -372.028 -0.466868 -0.539271 -0.229783 0.662133 
3533 3 -313.427 455.102 -499.031 -0.187929 0.598497 0.120053 0.769461 
3538 2 -283.274 420.088 -497.863 -0.500317 -0.0746048 -0.491474 -0.708922 
3579 2 -340.589 493.032 -499.337 0.612584 0.495671 -0.495822 -0.364982 
3530 2 -347.571 481.543 -485.809 0.535914 -0.254639 -0.80003 0.0889202 
3567 2 -223.785 506.264 -502.132 0.1451 -0.66997 -0.207271 0.697943 
3539 2 -277.46 426.518 -493.045 0.286897 -0.343368 -0.430805 -0.783706 
3529 2 -337.789 482.123 -484.141 0.591947 0.377105 -0.639856 -0.31301 
3589 2 -349.868 551.643 -431.415 -0.371475 -0.618192 -0.643906 -0.255403 
3540 2 -274.827 435.153 -488.988 0.826091 -0.509268 -0.0948816 -0.221851 
3541 2 -273.25 443.759 -484.347 0.620285 -0.385538 0.424672 0.535033 
3542 2 -271.531 452.811 -480.741 -0.0179533 0.0395908 0.578528 0.814503 
3528 2 -328.21 481.888 -481.605 0.0477982 0.803686 -0.0607672 -0.59001 
3590 2 -342.242 549.871 -437.351 0.0788076 -0.820024 0.189322 -0.534329 
3587 3 -354.729 520.987 -467.314 0.587891 0.370381 0.715213 0.0753146 
3527 2 -319.511 481.467 -476.918 -0.415493 0.561073 0.632663 -0.335111 
3543 2 -270.793 462.046 -477.368 -0.629033 0.454066 0.344614 0.528567 
3544 2 -270.745 471.496 -474.08 -0.77144 0.623721 -0.0924144 -0.08551 
3451 1 -348.652 517.782 -397.12 0.305462 0.352332 0.330506 -0.820561 
3591 2 -333.387 549.108 -441.474 0.398043 -0.28804 0.841589 -0.224326 
3492 2 -329.868 412.282 -412.254 0.0049535 0.460875 0.448148 0.765985 
3592 2 -325.245 547.655 -446.89 0.430118 0.456868 0.774153 0.0834134 
3593 2 -318.228 545.17 -453.487 0.166602 0.963444 0.126587 0.16732 
3493 2 -322.837 418.721 -409.795 -0.699111 0.603226 -0.0428689 0.381476 
3512 2 -220.995 434.919 -388.95 -0.365082 -0.186228 0.903584 -0.124785 
3511 2 -216.313 439.849 -381.744 -0.314795 -0.876349 0.347411 0.11055 
3510 2 -214.948 445.89 -374.06 -0.248397 -0.787022 -0.513459 0.235064 
3513 2 -227.079 431.564 -396.104 -0.119218 0.604004 0.766281 -0.183791 
3494 2 -316.974 426.371 -407.517 -0.689651 0.424648 -0.549779 -0.204445 
3514 2 -231.511 429.505 -404.689 -0.0358358 0.95745 0.0259431 -0.285189 
3526 2 -311.657 479.357 -471.376 -0.397905 -0.10046 0.895852 0.170378 
3594 2 -314.136 542.119 -462.036 0.00915768 0.757118 -0.594189 0.271343 
3525 2 -304.197 476.49 -465.45 -0.0915167 -0.759723 0.464018 0.446243 
3524 2 -296.675 472.4 -460.508 0.364069 -0.824335 -0.261373 0.345847 
3523 2 -289.568 466.699 -456.646 0.534172 -0.33514 -0.768583 -0.107801 
3515 2 -237.191 430.37 -412.736 0.213943 0.599867 -0.653701 -0.408733 
3516 2 -244.423 433.06 -418.895 0.374463 -0.269601 -0.874313 -0.150563 
3522 2 -282.147 462.371 -451.707 0.238463 0.476891 -0.730757 -0.426268 
3521 2 -273.847 458.892 -447.62 -0.165325 0.835058 -0.072531 -0.519697 
3520 2 -266.475 453.76 -443.699 -0.528905 0.616358 0.571305 -0.118206 
3519 2 -260.456 447.445 -439.018 -0.3359 0.00850904 0.85906 0.386153 
3547 2 -265.628 498.568 -463.951 0.777763 -0.496549 -0.106702 -0.370321 
3548 2 -263.434 506.834 -458.988 0.691627 -0.546257 0.336 0.332205 
3545 2 -269.993 481.01 -471.864 -0.486786 0.192937 -0.511314 -0.681449 
3546 2 -268.235 490.181 -468.325 0.273753 -0.272089 -0.429088 -0.816646 
3497 2 -300.873 451.317 -408.62 0.672898 -0.611381 0.415414 0.0292123 
3498 2 -295.468 459.47 -409.889 0.341715 0.0817973 0.760617 0.545895 
3499 2 -288.992 466.762 -411.19 -0.260295 0.45733 0.564167 0.636248 
3500 2 -285.804 476.177 -410.853 -0.668755 0.687309 0.0148852 0.28311 
3501 2 -282.498 485.516 -409.772 -0.727459 0.442052 -0.443004 -0.28132 
3502 2 -279.291 494.692 -407.958 -0.175301 0.00981312 -0.559357 -0.810119 
3518 2 -255.972 441.747 -432.333 0.0750906 -0.714209 0.555106 0.419673 
3517 2 -249.772 437.767 -425.644 0.317666 -0.862242 -0.274805 0.283035 
3506 3 -249.085 469.725 -390.621 -0.355002 -0.80223 -0.355792 0.322199 
3505 1 -242.394 498.499 -371.897 -0.340222 -0.799585 -0.370654 0.327916 
3549 2 -261.998 516.317 -456.815 0.122406 -0.0742138 0.583708 0.799246 
3496 2 -306.159 443.007 -408.231 0.477811 -0.687554 -0.189437 -0.512913 
3495 2 -311.389 434.565 -407.836 -0.20315 -0.175569 -0.703613 -0.657901 
3550 2 -261.079 525.91 -454.342 -0.607156 0.489144 0.350845 0.518659 
3503 2 -276.836 503.569 -404.35 0.502595 -0.440757 -0.418855 -0.614567 
3504 2 -275.33 513.083 -402.258 0.791198 -0.605071 0.0888133 -0.0026447 
3551 2 -260.112 535.516 -452.063 -0.734416 0.619758 -0.190393 -0.200706 
3595 2 -310.02 538.866 -470.438 -0.244697 0.0447307 -0.929 0.274009 
3596 2 -305.348 534.507 -478.075 -0.358524 -0.723382 -0.590044 -0.0051663 
3597 2 -301.219 529.563 -485.616 -0.175466 -0.935681 0.281749 -0.119711 
3598 2 -300.063 525.69 -494.668 -0.106589 -0.292363 0.9496 -0.03772 
3454 2 -320.079 478.221 -388.217 -0.380901 0.0638365 0.587988 -0.71071 
3455 2 -325.284 470.345 -385.335 0.22842 0.579471 0.28814 -0.727333 
3456 2 -331.871 463.234 -383.812 0.779585 0.502486 -0.201438 -0.314926 
3457 2 -338.192 456.88 -379.895 0.733048 0.144361 -0.517277 0.417403 
3453 2 -314.911 484.965 -393.366 -0.872854 -0.31567 0.350878 -0.123949 
3552 2 -259.934 545.224 -449.852 -0.293194 0.196679 -0.671751 -0.651233 
3458 2 -344.139 449.991 -375.821 0.268838 -0.285255 -0.504364 0.769398 
3599 2 -301.842 523.838 -504.233 -0.196846 0.558196 0.795241 -0.131379 
3560 3 -222.883 545.332 -476.108 -0.0560952 -0.535055 -0.470396 0.699498 
3566 2 -214.876 510.294 -503.595 0.599253 -0.163966 -0.64449 0.445694 
3509 2 -215.463 451.797 -366.023 -0.024597 0.00726536 -0.951457 0.306711 
3588 2 -358.03 552.019 -425.862 -0.454783 0.133274 -0.877049 0.0787069 
3565 2 -205.529 513.461 -503.077 0.653416 0.477742 -0.52539 -0.262251 
3564 2 -196.223 516.81 -502.241 0.180117 0.75079 0.0373474 -0.634411 
3563 2 -188.663 521.104 -497.473 -0.267786 0.436303 0.751502 -0.416142 
3562 2 -181.786 525.837 -492.159 -0.457048 -0.291777 0.835115 -0.0924961 
3561 2 -174.439 530.253 -487.218 -0.366033 -0.836333 0.262319 0.31266 
2373 2 120.057 433.374 -398.836 0.724317 -0.503521 0.31678 -0.348542 
2372 3 163.952 407.937 -388.219 0.899228 -0.158793 0.376851 0.155424 
2374 2 128.006 438.588 -395.974 0.761503 -0.152758 0.510718 0.368707 
2375 2 134.99 444.482 -392.123 0.192714 0.386969 0.379114 0.818162 
2376 2 142.444 449.647 -388.176 -0.451783 0.481867 -0.204657 0.722366 
2377 2 151.28 450.76 -383.843 -0.822074 0.1716 -0.534269 0.0964581 
2378 2 160.23 452.593 -379.972 -0.747577 -0.339847 -0.367658 -0.436417 
2379 2 168.924 450.654 -375.66 -0.197886 -0.471659 0.0100877 -0.859231 
2380 2 176.702 448.655 -369.911 0.642448 -0.303131 0.247072 -0.659035 
2381 2 184.165 448.729 -363.471 0.91823 -0.0232 0.382287 0.100859 
3691 2 -396.249 644.498 -510.417 -0.0653436 0.70338 -0.638453 -0.305556 
3615 2 -402.392 564.574 -497.013 0.469326 -0.558894 0.0832239 -0.678561 
3616 2 -394.036 568.309 -493.326 0.774169 -0.26451 0.550977 -0.164684 
3617 2 -384.779 570.342 -490.892 0.469786 0.367217 0.683368 0.421261 
3618 2 -375.365 572.794 -492.614 0.0181766 0.695338 0.102795 0.711062 
3690 2 -392.887 640.608 -501.978 -0.245832 0.950525 0.105566 -0.157878 
3689 2 -389.091 636.234 -494.009 -0.315015 0.521424 0.788266 0.0867201 
3688 2 -382.999 636.238 -486.192 -0.27855 -0.373964 0.868669 0.16726 
3687 2 -378.374 637.044 -477.438 -0.141388 -0.913075 0.328164 0.196499 
3695 3 -397.721 678.775 -481.768 -0.947705 -0.254329 -0.179199 -0.0711238 
3703 2 -384.656 688.794 -425.519 0.673387 0.349609 0.0592636 0.648699 
3686 2 -374.281 637.443 -468.465 0.0744641 -0.852195 -0.465082 0.227852 
3704 2 -379.843 684.77 -417.949 -0.130674 0.287825 -0.140902 0.938204 
3685 2 -370.779 639.307 -459.457 0.161871 -0.135302 -0.971762 0.105691 
3694 1 -410.467 696.464 -509.19 -0.940383 -0.289171 -0.178928 0.00674991 
3684 2 -369.942 640.996 -449.744 0.0878421 0.724802 -0.682219 0.0390216 
3702 2 -387.596 693.78 -433.445 0.930511 0.235123 0.225104 -0.16791 
3701 2 -390.88 699.975 -440.294 0.373005 -0.0264652 0.400383 -0.836577 
3705 2 -374.312 682.288 -410.239 -0.811334 0.105385 -0.4146 0.39842 
3706 2 -366.809 680.334 -403.958 -0.80449 -0.262671 -0.353211 -0.398801 
3683 2 -365.379 643.168 -441.323 0.0956494 0.942329 0.15538 -0.280577 
3619 2 -365.543 573.881 -492.732 -0.455534 0.559529 -0.539617 0.433854 
3626 2 -301.957 590.727 -512.425 -0.404177 0.586837 -0.667323 0.216662 
3682 2 -361.32 645.396 -432.612 -0.12045 0.549019 0.794912 -0.228441 
3553 2 -258.46 554.963 -450.176 0.213301 -0.522661 -0.528935 -0.633684 
3707 2 -358.919 679.931 -397.996 -0.167452 -0.478997 -0.0470134 -0.860414 
3666 2 -328.328 556.342 -458.052 0.610722 0.674679 0.412662 -0.0391949 
3625 2 -310.509 586.953 -509.088 -0.187605 0.809714 0.0819746 0.549953 
3624 2 -319.041 583.653 -505.432 0.316319 0.457408 0.690056 0.463187 
3656 2 -345.329 619.762 -511.649 -0.930571 -0.163072 0.126688 -0.302317 
3554 2 -254.393 563.905 -451.001 0.603545 -0.763893 0.105841 -0.202482 
3620 2 -355.954 574.795 -494.975 -0.658594 0.0116706 -0.747914 -0.0821143 
3621 2 -346.273 576.156 -496.468 -0.216812 -0.650778 -0.471964 -0.553833 
3622 2 -337.04 578.745 -499.063 0.331693 -0.747809 0.218847 -0.531852 
3623 2 -327.775 581.367 -501.384 0.557684 -0.245328 0.791058 -0.0550467 
3657 2 -347.076 616.218 -502.608 -0.266307 -0.151125 0.158003 -0.938764 
3667 1 -289.085 567.458 -434.406 0.467338 -0.0161158 -0.686486 -0.556842 
3669 2 -260.941 597.051 -410.84 -0.40713 0.641537 -0.0650769 -0.64687 
3665 2 -333.108 564.706 -455.828 0.39367 0.130455 0.775949 -0.475299 
3664 2 -336.872 573.83 -454.85 -0.179438 -0.436629 0.589811 -0.655195 
3663 2 -338.752 583.348 -456.652 -0.728106 -0.60196 0.108293 -0.30948 
3662 2 -340.441 591.731 -461.642 -0.695704 -0.360038 -0.353628 0.51119 
3661 2 -341.105 599.51 -467.784 -0.0840709 0.00343152 -0.429654 0.899065 
3660 2 -341.088 605.174 -475.948 0.634013 0.171211 -0.224015 0.720091 
3659 2 -344.026 609.518 -484.321 0.956377 0.240407 0.152096 -0.0664469 
3558 2 -236.803 594.597 -467.022 -0.446346 0.700787 -0.543322 -0.12031 
3557 2 -239.911 587.173 -461.352 -0.346284 0.836627 0.279597 0.319324 
3556 2 -244.716 579.892 -456.665 0.119977 0.307515 0.816145 0.474286 
3555 2 -250.021 572.686 -452.543 0.526465 -0.458684 0.687229 0.200397 
3658 2 -345.586 613.405 -493.287 0.522884 0.0568785 0.203799 -0.825726 
3681 2 -356.386 647.959 -424.458 -0.276867 -0.336047 0.899648 -0.0324154 
3674 2 -298.955 624.839 -398.636 -0.522177 -0.217985 0.702978 0.430854 
3675 2 -308.11 628.445 -399.54 -0.540063 0.523797 0.641485 -0.149884 
3673 2 -290.108 620.611 -400.014 -0.0111331 -0.620295 0.255553 0.741487 
3672 2 -281.943 615.244 -401.599 0.651156 -0.576073 -0.223369 0.440729 
3676 2 -316.599 632.091 -403.074 -0.239865 0.762883 0.0291818 -0.599686 
3671 2 -274.341 610.605 -405.9 0.81214 -0.112949 -0.522205 -0.234462 
3670 2 -268.572 603.351 -409.293 0.225823 0.27809 -0.526284 -0.771165 
3668 3 -308.591 596.357 -431.64 0.468135 -0.00741217 -0.69988 -0.53941 
3677 2 -325.7 635.343 -405.161 0.141693 0.539039 -0.670263 -0.490008 
3678 2 -333.098 639.911 -409.969 0.506323 -0.189494 -0.811936 -0.220205 
3679 2 -340.59 645.24 -413.541 0.392936 -0.737018 -0.401227 0.376062 
3680 2 -349.332 647.321 -417.552 -0.122688 -0.839132 0.37477 0.374637 
3723 2 -229.381 655.157 -411.155 0.749237 -0.599562 -0.163642 0.228891 
3724 2 -234.447 663.348 -408.928 0.297777 -0.488639 0.383024 0.725158 
3725 2 -239.482 671.466 -406.355 -0.453342 -0.00418579 0.581331 0.675661 
3726 2 -244.593 679.546 -403.743 -0.810393 0.417772 0.409832 -0.0277098 
3727 2 -251.114 686.196 -400.385 -0.420776 0.524031 -0.0247445 -0.740086 
3728 2 -258.665 690.688 -395.814 0.377866 0.195291 -0.306866 -0.851417 
3722 3 -267.587 651.993 -376.248 0.692331 -0.425971 -0.57124 -0.113633 
3721 1 -243.21 627.006 -375.941 0.698971 -0.424413 -0.564912 -0.110399 
3710 2 -336.405 673.984 -380.232 0.588664 0.504632 0.0503902 0.629509 
3729 2 -264.504 694.762 -388.94 0.930503 -0.0980902 -0.312211 -0.16452 
3709 2 -343.008 678.004 -386.497 0.905241 0.226439 0.355852 -0.0513179 
3708 2 -350.373 679.448 -393.051 0.582815 -0.243126 0.32834 -0.702431 
3711 2 -329.52 668.849 -375.334 -0.191954 0.38523 -0.329711 0.840263 
3794 2 -227.63 691.837 -367.893 0.578369 0.529094 -0.444776 0.433269 
3712 2 -321.536 665.326 -370.677 -0.741559 -0.016295 -0.466135 0.482227 
3795 2 -228.547 682.029 -367.709 0.0714142 -0.12476 -0.647537 0.748352 
3796 2 -231.443 672.64 -366.8 -0.590566 -0.479411 -0.300481 0.57542 
3793 2 -227.001 701.725 -368.844 0.705808 0.677607 0.114208 -0.172164 
3713 2 -315.002 660.624 -364.977 -0.86125 -0.422442 -0.195811 -0.20359 
3730 2 -270.274 697.144 -381.253 0.764685 -0.389765 -0.19738 0.473689 
3731 2 -276.52 701.714 -375.039 0.00624115 -0.307413 0.200316 0.930232 
3797 2 -233.017 663.537 -363.203 -0.861566 -0.489142 0.135791 -0.00228615 
3732 2 -281.703 705.734 -367.589 -0.756858 -0.0214876 0.310147 0.574902 
3919 2 -85.38 570.552 -375.261 0.50954 0.278585 0.0597405 0.811906 
3918 2 -92.2307 571.515 -382.341 0.92274 0.139893 0.323809 0.155331 
3917 2 -99.5097 573.099 -388.776 0.750862 -0.180765 0.393511 -0.498678 
3559 1 -197.87 569.841 -476.757 -0.0696179 -0.537532 -0.468288 0.697795 
3855 2 -193.536 666.35 -457.791 0.161614 -0.910667 -0.19342 0.327346 
3854 2 -186.997 664.7 -450.526 0.347404 -0.441413 -0.821708 0.0962289 
3860 2 -117.408 700.88 -498.821 -0.228223 0.235741 -0.401321 0.85515 
3861 2 -111.464 695.115 -493.315 -0.841021 -0.0331504 -0.357515 0.404683 
4047 2 -168.96 684.675 -390.396 -0.989264 0.0590568 0.0934001 0.0956292 
4048 2 -170.961 685.697 -380.701 -0.682904 0.150052 -0.178563 -0.692273 
3856 1 -169.526 690.836 -490.241 0.714253 -0.171019 0.330381 -0.592827 
3915 2 -117.058 579.346 -395.299 -0.529536 -0.566407 -0.250932 -0.579489 
3916 2 -108.148 575.858 -392.759 0.0709042 -0.482417 0.214396 -0.846334 
4045 1 -137.108 649.984 -392.31 0.969818 -0.132075 0.00781465 0.204811 
3872 2 -101.822 653.914 -398.051 0.943071 -0.0471507 -0.228668 -0.236866 
3871 2 -99.5229 656.48 -407.39 0.394302 0.148473 0.0616458 -0.90481 
3870 2 -96.6149 658.353 -416.641 -0.515608 0.069839 0.190303 -0.832499 
3869 2 -95.9257 661.952 -425.873 -0.968359 -0.201633 0.0532384 -0.137081 
3862 2 -105.194 691.53 -486.526 -0.889396 -0.303216 -0.0760323 -0.333548 
3863 2 -102.057 686.663 -478.517 -0.325373 -0.135056 0.16059 -0.92201 
3864 2 -100.488 683.115 -469.403 0.489485 -0.00112766 0.193362 -0.850302 
3865 2 -98.4596 679.422 -460.414 0.923212 0.204869 0.253859 -0.203134 
3868 2 -94.4517 665.294 -435.02 -0.657498 -0.123229 -0.0742684 0.739591 
3866 2 -95.2254 674.533 -452.487 0.75882 0.187859 -0.149283 0.605488 
3867 2 -95.0316 670.276 -443.597 0.0848063 0.0337253 -0.254885 0.962655 
3857 3 -144.934 682.12 -466.877 0.700321 -0.19341 0.346566 -0.593325 
4049 2 -170.338 690.095 -371.865 0.232664 0.0678221 -0.339234 -0.908949 
3873 2 -106.349 655.474 -389.396 0.753871 -0.239823 -0.185247 0.582964 
3874 2 -111.312 657.352 -381.083 0.0747628 -0.174721 -0.0462086 0.980688 
3914 2 -126.307 582.689 -396.33 -0.738787 -0.294846 -0.602287 -0.0671538 
3853 2 -179.565 665.463 -443.993 0.388609 0.472033 -0.777106 -0.149248 
3852 2 -172.324 664.961 -437.253 -0.0024718 0.91475 -0.107748 -0.389379 
3851 2 -164.092 664.232 -431.708 -0.379237 0.649148 0.576043 -0.320873 
3850 2 -155.09 665.113 -427.449 -0.526595 -0.11921 0.841712 0.00275261 
3849 2 -145.954 666.663 -423.97 -0.395964 -0.69237 0.423831 0.429189 
3913 2 -134.946 587.35 -397.311 -0.424319 0.267027 -0.601023 0.622431 
3912 2 -143.804 591.187 -399.839 0.185106 0.593663 -0.111425 0.775168 
3848 2 -136.912 670.248 -421.85 0.00671088 -0.698364 -0.287792 0.6553 
3847 2 -129.011 675.025 -418.507 0.362061 -0.223395 -0.807203 0.409183 
3846 2 -121.438 679.184 -413.864 0.512048 0.493267 -0.700326 -0.0635399 
3845 2 -114.913 685.179 -409.385 0.356674 0.861571 0.0129001 -0.360989 
3875 2 -114.718 656.662 -371.825 -0.667919 -0.234672 0.148725 0.69043 
4044 2 -106.88 619.255 -372.989 -0.0432841 0.990759 -0.00316411 0.128506 
3844 2 -108.862 691.039 -404.277 -0.04982 0.565167 0.661241 -0.490779 
3920 2 -80.659 568.955 -366.805 -0.289748 0.0961521 -0.0480489 0.951048 
4043 2 -109.803 618.288 -363.551 0.0679927 0.653553 0.74243 0.130554 
3890 2 -61.3614 701.542 -371.936 -0.657751 -0.48576 -0.514681 0.257886 
3891 2 -56.7112 692.781 -372.015 -0.591214 -0.732529 0.10108 -0.321947 
3843 2 -103.62 698.508 -400.478 -0.447722 -0.255152 0.782935 -0.348504 
4050 2 -173.36 695.683 -364.284 0.882021 -0.30613 -0.159243 -0.320881 
3876 2 -119.496 655.642 -363.334 -0.953774 0.035311 0.274758 0.116515 
3814 2 -146.689 702.024 -363.236 -0.0381782 -0.525945 -0.80119 -0.282878 
3892 2 -53.4152 683.446 -373.139 -0.164585 -0.290549 0.652705 -0.680051 
3893 2 -51.6593 673.785 -373.367 0.409199 0.399757 0.564007 -0.595522 
3895 2 -51.1251 654.541 -370.064 0.648273 0.297294 -0.347869 0.60856 
3894 2 -51.37 663.92 -373.117 0.810419 0.580097 0.0615512 -0.0540375 
3896 2 -51.8594 646.166 -364.794 -0.00104843 -0.0988686 -0.513686 0.852262 
3700 2 -395.804 705.976 -446.443 -0.379034 -0.37792 0.203077 -0.81992 
3699 2 -401.496 711.421 -452.48 -0.860844 -0.395074 -0.256413 -0.192657 
3698 2 -406.775 716.827 -458.786 -0.708332 -0.0387167 -0.441501 0.549403 
3696 2 -414.03 727.549 -473.85 0.800311 0.311049 -0.0187144 0.512251 
3697 2 -411.126 722.39 -465.804 0.0265524 0.258834 -0.286461 0.922085 
3792 2 -227.356 711.259 -371.507 0.413476 0.244888 0.551697 -0.681687 
3766 2 -243.464 727.773 -419.071 0.278181 0.17549 0.944283 -0.0121612 
3765 2 -247.558 729.571 -410.183 0.0901386 -0.560733 0.789134 -0.233924 
3764 2 -251.772 732.198 -401.64 -0.122746 -0.968311 0.066161 -0.207194 
3763 2 -256.931 734.498 -393.488 -0.280533 -0.653745 -0.6963 -0.0953161 
3767 2 -237.555 725.965 -426.878 0.424737 0.769276 0.415476 0.234929 
3762 2 -260.555 737.019 -384.547 -0.180799 0.117833 -0.968128 0.127105 
3768 2 -230.609 721.293 -432.248 0.0581832 0.663455 -0.275027 0.693399 
3761 2 -261.367 737.624 -374.818 0.0215625 0.840608 -0.541074 -0.0123354 
3789 2 -227.053 739.663 -377.772 -0.659494 -0.338053 -0.389212 0.547086 
3790 2 -225.924 730.866 -373.463 -0.760224 -0.611172 0.165621 -0.14525 
3791 2 -226.432 721.1 -371.775 -0.315155 -0.21188 0.668001 -0.639969 
3769 2 -221.833 717.035 -433.274 -0.46425 0.332658 -0.644131 0.508827 
3785 2 -222.855 773.509 -396.438 0.284929 0.217506 0.359726 -0.861454 
3788 2 -226.26 749.278 -379.977 0.121841 0.0487281 -0.620167 0.773417 
3787 2 -224.677 758.256 -383.958 0.72284 0.439038 -0.349289 0.403418 
3786 2 -224.565 765.914 -390.213 0.857539 0.38548 0.171164 -0.294508 
3760 2 -261.497 738.835 -364.885 0.0466134 0.951334 0.302218 -0.0381374 
3784 2 -220.785 781.538 -401.936 -0.565314 -0.150397 0.407954 -0.700981 
3783 2 -217.235 789.592 -406.654 -0.850311 -0.458441 0.249652 -0.0669035 
3782 2 -211.999 794.685 -413.369 -0.532067 -0.376703 -0.0490824 0.756697 
3770 2 -212.556 713.651 -433.369 -0.753065 -0.225563 -0.608327 -0.109326 
3859 2 -123.393 707.006 -503.723 0.51574 0.514507 -0.0396562 0.683902 
3815 2 -143.954 706.101 -371.817 0.267607 -0.929112 -0.016979 -0.254655 
3858 2 -131.025 712.684 -506.462 0.786581 0.389724 0.476417 0.0493141 
3816 2 -139.495 710.471 -379.443 0.257059 -0.557851 0.784374 0.0864857 
3781 2 -207.076 798.599 -420.987 0.221136 -0.203334 -0.252438 0.919798 
3817 2 -136.227 714.077 -388.104 0.106856 0.241477 0.931652 0.249591 
3780 2 -200.427 800.305 -428.167 0.844496 -0.0575379 -0.373198 0.379788 
3779 2 -193.77 798.752 -435.357 0.768128 0.140226 -0.354081 -0.514726 
3771 2 -203.004 711.257 -432.142 -0.285778 -0.619302 -0.246242 -0.688593 
3772 2 -193.131 711.374 -430.947 0.300911 -0.67311 0.301007 -0.60479 
3773 2 -183.176 711.668 -431.378 0.673999 -0.149008 0.706931 -0.154175 
3774 2 -173.247 711.463 -431.936 0.533184 0.483014 0.534943 0.442999 
3842 2 -100.598 707.57 -397.901 -0.625402 -0.755856 0.182402 0.0654488 
3818 2 -132.908 718.798 -396.195 -0.214117 0.806544 0.55072 0.0186761 
3776 3 -200.257 755.737 -431.711 -0.830808 -0.068188 0.549004 0.0608599 
3778 2 -188.177 799.137 -443.544 0.219597 0.302731 -0.0387116 -0.926624 
3775 1 -168.518 756.154 -446.467 -0.855907 -0.038674 0.514389 0.0364886 
3821 2 -141.573 736.884 -417.134 0.51033 -0.357739 -0.729397 -0.282073 
3822 2 -146.878 744.717 -420.098 0.622084 -0.714109 -0.0806454 0.310735 
3823 2 -151.918 753.247 -420.26 0.133264 -0.402155 0.443587 0.789774 
3824 2 -156.67 761.591 -417.909 -0.555929 0.119738 0.598755 0.564001 
3825 2 -161.571 769.588 -414.696 -0.857763 0.471941 0.111551 -0.170502 
3820 2 -137.625 729.92 -411.317 0.0146862 0.413966 -0.779189 -0.470405 
3819 2 -135.305 722.717 -404.927 -0.366774 0.872012 -0.210783 -0.246258 