ITEM: TIMESTEP
10000000
ITEM: NUMBER OF ATOMS
4067
ITEM: BOX BOUNDS pp pp pp
-4.6310929470000001e+03 4.6704658980000004e+03
-4.6310929470000001e+03 4.6704658980000004e+03
-4.6310929470000001e+03 4.6704658980000004e+03
ITEM: ATOMS id type x y z c_q[1] c_q[2] c_q[3] c_q[4] 
2073 2 -150.876 1.59423 -802.028 0.199701 0.278713 0.789398 -0.509204 
2072 2 -151.618 10.6348 -798.152 -0.315965 -0.582757 0.611338 -0.432235 
2091 2 -169.023 93.5232 -702.764 0.311296 -0.216717 -0.82162 -0.425522 
2090 2 -165.98 84.5895 -699.803 -0.182698 0.465575 -0.643178 -0.579813 
2089 2 -162.969 75.3929 -697.502 -0.591908 0.783082 -0.00593988 -0.190769 
2088 2 -158.122 66.8199 -696.014 -0.543755 0.353831 0.685758 0.329955 
2087 2 -155.835 57.3105 -696.942 0.0113275 -0.205968 0.633427 0.745801 
2063 2 -120.038 71.1298 -748.571 -0.0803709 -0.75273 -0.527883 0.385067 
2064 2 -124.6 66.4111 -755.98 -0.40459 -0.841984 0.309051 0.178487 
2065 2 -130.227 60.6697 -761.832 -0.327302 -0.285245 0.89431 -0.10825 
2066 2 -135.89 56.8175 -769.03 -0.105196 0.461377 0.771118 -0.425961 
2067 2 -140.913 51.0075 -775.235 0.316736 0.88972 0.129647 -0.302107 
2068 2 -144.928 44.7499 -781.813 0.483159 0.636214 -0.596024 0.0808946 
2069 2 -148.92 37.5514 -787.337 0.18867 0.11069 -0.842525 0.492242 
2070 2 -151.8 29.2063 -791.833 -0.317276 -0.47844 -0.635591 0.516194 
2071 2 -152.991 19.8037 -794.668 -0.547112 -0.831417 -0.090505 -0.0349588 
2074 1 -119.014 -17.7072 -773.118 0.234021 0.0463138 -0.505694 -0.829074 
2075 3 -127.408 12.1334 -756.987 0.193362 0.0737708 -0.509263 -0.835356 
2080 2 -113.935 6.81244 -714.176 -0.086628 -0.448454 0.437841 0.77439 
2081 2 -121.566 12.6847 -712.001 -0.637882 0.0336209 0.612064 0.466212 
2082 2 -129.164 18.6342 -709.676 -0.761972 0.51172 0.356261 -0.174986 
2083 2 -135.948 25.3456 -706.787 -0.291786 0.609898 -0.246503 -0.69435 
2084 2 -143.141 32.0466 -705.493 0.375829 0.0383053 -0.57679 -0.724292 
2085 2 -148.245 40.0955 -702.659 0.781701 -0.40267 -0.423333 -0.218149 
2086 2 -153.232 48.0573 -699.45 0.670839 -0.563005 0.181638 0.447223 
2079 2 -107.936 1.15599 -719.709 0.667146 -0.483307 -0.0252588 0.566297 
2078 2 -101.904 -5.22655 -724.205 0.846898 -0.337606 -0.400716 -0.0906266 
2077 2 -96.7348 -12.7719 -728.002 0.373394 0.0768561 -0.552127 -0.741502 
2076 2 -91.8716 -18.3885 -734.571 -0.358289 0.381242 -0.168064 -0.835487 
2062 2 -116.612 74.1461 -739.723 0.178715 -0.0338946 -0.967242 0.177076 
2061 2 -113.817 78.632 -731.346 0.272953 0.75897 -0.591078 0.00936757 
2060 2 -113.609 82.2582 -722.11 0.157013 0.978918 0.127661 -0.027725 
2037 2 -70.1611 64.1252 -678.413 -0.535562 -0.482348 0.02217 0.692837 
2038 2 -77.2218 59.6357 -673.133 -0.840887 -0.390055 0.372009 0.0487395 
2036 2 -64.3505 65.6132 -686.174 0.369285 -0.271575 -0.18308 0.869688 
2059 2 -115.495 87.014 -713.626 0.207389 0.415515 0.863131 -0.198349 
2039 2 -84.0108 53.7914 -669.002 -0.539447 0.122749 0.594 -0.584032 
2058 2 -118.676 92.1258 -705.642 0.0390712 -0.385549 0.861479 -0.328144 
2035 2 -57.1261 68.5435 -692.352 0.856711 0.0349045 -0.448865 0.251689 
1803 2 -41.4503 19.1096 -690.292 -0.0601345 -0.676041 -0.590218 0.43703 
1995 2 51.3881 23.3936 -789.075 -0.46646 -0.0248799 -0.040395 0.883269 
1996 2 51.25 22.7696 -779.168 -0.956549 -0.190513 0.0449837 0.216091 
2033 2 -41.9223 73.2111 -704.086 -0.0275456 0.365875 0.196215 -0.909328 
1997 2 50.003 20.3431 -769.676 -0.804448 -0.0635925 0.0614717 -0.587401 
1998 2 50.1047 19.0459 -759.853 -0.14347 0.11457 -0.0126982 -0.982918 
2002 2 34.4773 31.6489 -726.959 -0.384084 -0.0880288 0.408743 0.823201 
2001 2 39.1639 25.7819 -733.544 0.484349 -0.392121 0.177414 0.76169 
2000 2 43.224 21.8111 -741.624 0.94255 -0.25854 -0.144834 0.154205 
1999 2 47.3404 20.0499 -750.443 0.678712 0.106504 -0.264041 -0.676971 
2003 2 30.5477 37.3108 -719.823 -0.868397 0.280872 0.298038 0.27959 
2004 2 26.7946 43.6064 -713.058 -0.751983 0.345289 0.0391788 -0.560145 
2005 2 22.2105 48.0265 -705.398 -0.152275 0.254867 -0.317713 -0.900507 
2006 2 19.0672 54.1824 -698.286 0.662853 -0.0511652 -0.329493 -0.670405 
2007 2 15.3288 59.4251 -690.762 0.958495 -0.214694 -0.179071 0.0559187 
2008 2 11.6482 63.1736 -682.344 0.623064 -0.284719 -0.0223652 0.728166 
2032 2 -33.7402 76.0112 -708.893 -0.681614 0.156752 0.487263 -0.522882 
2031 2 -25.7469 81.4078 -711.145 -0.782028 -0.414713 0.450989 0.114255 
2030 2 -17.2802 85.8853 -713.548 -0.398864 -0.623281 0.0280563 0.672042 
1994 3 46.585 64.0214 -756.974 -0.0331897 -0.0608711 0.0810904 -0.994292 
1993 1 41.594 69.5169 -791.213 -0.0821373 -0.0733677 0.0732288 -0.991216 
2034 2 -49.3823 69.83 -698.447 0.649821 0.323037 -0.249238 -0.641296 
1802 2 -36.495 25.4048 -684.363 0.283125 -0.0286321 -0.899489 0.331571 
1801 2 -32.6936 31.2014 -677.315 0.395826 0.655164 -0.635659 0.100101 
2009 2 7.1869 66.6143 -674.18 -0.108595 -0.116978 0.28413 0.945407 
1800 2 -29.5726 37.0733 -669.971 0.290851 0.92604 0.120723 -0.208043 
2029 2 -8.67534 90.6158 -715.03 0.275389 -0.425282 -0.48142 0.715214 
2028 2 -0.00706618 95.3477 -715.866 0.694423 0.13034 -0.660719 0.253454 
2010 2 4.20044 72.286 -666.569 -0.783075 0.195601 0.263192 0.528454 
2101 1 -246.137 153.372 -737.188 0.672431 0.401801 0.0273139 0.621005 
2102 3 -228.668 134.4 -713.464 0.634323 0.423298 0.0415684 0.645542 
2103 2 -280.541 133.211 -711.96 0.93455 0.179476 0.289012 -0.104289 
2104 2 -275.124 128.725 -704.991 0.654129 0.231274 0.0920549 0.71425 
2105 2 -270.611 126.976 -696.317 -0.0406451 0.359227 -0.17925 0.914972 
2106 2 -263.816 124.173 -689.707 -0.800498 0.163517 -0.289133 0.498866 
2107 2 -257.721 123.757 -681.964 -0.868113 -0.0896863 -0.352341 -0.337923 
2108 2 -251.129 124.295 -674.697 -0.366575 -0.322787 -0.174502 -0.854974 
2109 2 -244.432 125.331 -667.465 0.467447 -0.33926 0.108331 -0.809111 
2057 2 -121.627 97.5512 -697.878 -0.227167 -0.913239 0.244643 -0.233537 
2092 2 -172.356 101.569 -707.575 0.545572 -0.758024 -0.353043 -0.0557859 
2093 2 -175.561 110.099 -711.421 0.309832 -0.816143 0.347539 0.342244 
2100 2 -200.974 162.582 -747.112 0.290627 -0.859025 0.219857 0.359547 
2094 2 -179.083 117.426 -717.152 -0.0819091 -0.334004 0.845582 0.408318 
2099 2 -196.269 156.127 -741.292 0.465367 -0.718354 -0.517103 0.00242284 
2095 2 -183.11 123.838 -723.57 -0.411571 0.530691 0.703919 0.231246 
2098 2 -191.96 147.676 -738.446 0.244797 -0.0450199 -0.80256 -0.542167 
2097 2 -190.156 139.022 -734.103 -0.207983 0.536372 -0.661577 -0.481003 
2096 2 -187.071 130.85 -729.356 -0.474389 0.858027 0.0551982 -0.188936 
2056 2 -123.895 103.995 -690.687 -0.378673 -0.722709 -0.567269 0.111821 
2055 2 -129.002 109.119 -683.928 -0.273904 -0.0230598 -0.920325 0.278291 
2054 2 -133.097 113.51 -676.168 0.0442969 0.753118 -0.574893 0.31678 
2053 2 -138.155 115.156 -667.792 0.141189 0.942697 0.147591 0.263828 
2027 2 7.34971 101.61 -718.281 0.686957 0.579805 -0.218454 -0.37973 
1992 2 32.7469 111.672 -771.909 0.177083 0.64178 -0.641815 -0.38057 
1991 2 39.9777 109.507 -765.409 -0.188992 0.893508 0.168389 -0.370904 
1990 2 48.1229 107.225 -760.52 -0.499768 0.476746 0.711788 -0.12768 
2026 2 13.4825 108.929 -721.066 0.105052 0.431401 0.405094 -0.799222 
1989 2 54.8779 106.617 -753.336 -0.307343 -0.396865 0.84249 0.195572 
1988 2 62.5728 107.781 -747.295 -0.146055 -0.877193 0.124972 0.439979 
1987 2 71.049 110.257 -742.849 0.238712 -0.618413 -0.570056 0.485405 
1986 2 79.3878 112.848 -738.114 0.490362 0.150615 -0.85758 0.0376358 
2025 2 20.0246 116.318 -721.692 -0.486266 -0.0598532 0.695291 -0.525864 
2024 2 25.6935 124.392 -720.49 -0.636827 -0.614706 0.465354 0.00582797 
2023 2 30.2112 133.201 -719.452 -0.511433 -0.707815 -0.170645 0.456415 
2022 2 34.5796 142.079 -718.726 0.00907159 -0.327119 -0.663137 0.673172 
2021 3 7.7639 122.705 -678.735 0.0415808 -0.0985361 -0.701896 0.704204 
2020 1 17.7151 156.187 -676.904 0.0745603 -0.147058 -0.70469 0.690092 
1952 2 90.6818 190.342 -667.978 -0.367614 0.681288 -0.632762 0.0178481 
1985 2 86.5026 114.754 -731.57 0.279503 0.806057 -0.385251 -0.351756 
1953 2 95.5161 194.71 -675.405 -0.19307 -0.120651 -0.962993 -0.144264 
1984 2 94.4295 117.81 -726.493 -0.0312947 0.768688 0.393543 -0.503253 
1954 2 98.9715 197.611 -684.211 0.0843772 -0.837227 -0.485039 -0.238051 
1955 2 101.251 201.26 -693.117 0.223819 -0.873993 0.429799 -0.0362443 
1983 2 102.297 120.202 -720.899 -0.445962 0.149086 0.866184 -0.169165 
1982 2 110.482 125.117 -718.286 -0.596805 -0.512944 0.611028 0.0857772 
1981 2 117.128 131.395 -714.498 -0.321843 -0.823092 -0.158053 0.440405 
1956 2 103.67 205.261 -701.866 0.284462 -0.211005 0.914984 0.193297 
1980 2 123.887 136.057 -709.132 0.19769 -0.433492 -0.760935 0.440432 
1979 2 130.837 140.317 -703.463 0.457472 0.319331 -0.822317 0.111991 
1957 2 107.603 209.41 -709.985 0.0353881 0.547248 0.806645 0.220433 
1978 2 137.293 146.228 -698.756 0.434075 0.822149 -0.262358 -0.25849 
1977 2 142.705 153.173 -694.133 0.150418 0.676578 0.509968 -0.50946 
1958 2 110.998 212.318 -718.829 -0.160495 0.956187 0.00209738 0.244835 
1959 2 115.556 215.46 -727.053 -0.4493 0.544819 -0.694367 -0.138404 
1960 2 120.637 221.596 -732.855 -0.248169 -0.287461 -0.823025 -0.422383 
1976 2 149.316 159.55 -690.468 -0.379949 0.0629932 0.822915 -0.417711 
1975 2 153.362 167.302 -685.772 -0.515775 -0.630686 0.562624 -0.140233 
1974 2 158.226 175.1 -681.985 -0.455253 -0.830055 -0.0383149 0.31982 
1968 2 199.287 215.028 -678.452 -0.756611 -0.370595 0.538602 -0.0103398 
1969 2 191.447 209.095 -677.072 -0.46422 0.250066 0.563369 -0.636069 
1970 2 182.949 204.576 -674.922 0.201735 0.665504 0.269017 -0.666361 
1971 2 175.046 198.422 -674.96 0.598599 0.705133 -0.338863 -0.172158 
1973 2 163.748 183.066 -680.223 -0.0509929 -0.422911 -0.646649 0.632765 
1972 2 169.057 190.859 -677.205 0.507217 0.294898 -0.743658 0.32053 
1967 3 158.34 217.876 -710.436 -0.48654 -0.62076 0.0232797 0.614324 
1961 2 126.548 227.349 -738.31 0.216906 -0.803072 -0.300515 -0.466603 
1966 1 186.291 237.478 -717.842 -0.449152 -0.613072 -0.0152459 0.649748 
1962 2 132.766 233.14 -743.264 0.464627 -0.672863 0.557943 -0.141696 
1963 2 139.452 238.036 -748.624 0.48814 -0.0189852 0.797084 0.354987 
1964 2 147.44 243.373 -750.886 0.0714304 0.646703 0.399041 0.646096 
1965 2 156.014 248.084 -752.424 -0.443079 0.732962 -0.236795 0.458666 
1755 2 26.8675 -105.284 -564.993 0.879442 -0.460942 -0.0382052 0.112491 
1756 2 24.9017 -97.4284 -559.137 0.401138 -0.318136 0.437935 0.73898 
1754 2 26.0793 -111.807 -572.359 0.740092 -0.294043 -0.182069 -0.576761 
1757 2 23.5419 -88.3841 -555.379 -0.281064 0.0303597 0.618578 0.733105 
1753 2 24.052 -117.327 -580.4 -0.0323162 -0.0949904 -0.289345 -0.951952 
1752 2 26.105 -123.33 -587.889 -0.765855 0.262696 -0.10033 -0.578266 
1758 2 20.487 -79.0371 -553.922 -0.715688 0.521456 0.424163 0.189631 
1750 1 3.01084 -97.778 -620.124 0.0214548 0.154358 0.379634 0.911916 
1687 2 -24.7015 -84.0693 -556.977 0.217189 -0.722586 -0.649472 0.0942633 
1688 2 -28.7755 -81.6581 -565.701 0.0907429 -0.934199 0.171193 0.29955 
1686 2 -21.1408 -86.6541 -548.102 0.198596 0.0582256 -0.969193 -0.133548 
1759 2 16.7541 -69.9435 -552.921 -0.605256 0.618477 -0.131595 -0.483565 
1685 2 -19.4129 -88.8821 -538.516 -0.0407985 0.832567 -0.530176 -0.155181 
1751 3 13.1128 -73.8067 -596.681 0.0505496 0.149713 0.361477 0.918893 
1689 2 -33.7585 -78.6962 -573.707 -0.303108 -0.254241 0.857105 0.329936 
1690 2 -40.5377 -75.1712 -580.15 -0.480335 0.559864 0.663804 0.123268 
1691 2 -45.0753 -68.286 -585.685 -0.479894 0.835452 -0.0322755 -0.265857 
1684 2 -17.8078 -89.3983 -528.749 -0.0086561 0.95358 0.293518 -0.0667567 
1683 2 -17.179 -91.6304 -519.138 -0.0572689 0.386842 0.915675 0.0927997 
1692 2 -49.2961 -60.313 -589.827 -0.18171 0.383415 -0.667771 -0.611602 
1760 2 12.9774 -60.9447 -550.964 0.0221529 0.313418 -0.509708 -0.800923 
1749 2 -14.2129 -57.6302 -637.787 0.0372009 0.691392 0.539952 -0.478586 
2040 2 -91.524 48.078 -666.244 0.124651 0.505302 0.326133 -0.789157 
2041 2 -98.9459 41.6932 -664.207 0.669794 0.509074 -0.209082 -0.498502 
2042 2 -106.884 37.3594 -660.089 0.834824 0.0363203 -0.4767 0.272961 
2043 2 -114.78 34.6518 -654.869 0.3082 -0.328707 -0.29957 0.840965 
2048 3 -130.463 74.0157 -652.755 0.398164 -0.153566 0.904072 -0.0231833 
2044 2 -122.061 31.5993 -648.939 -0.40061 -0.567531 0.0607831 0.716746 
2045 2 -130.526 28.0398 -645.113 -0.852909 -0.28542 0.421542 0.115692 
2046 2 -138.335 24.2444 -640.35 -0.601541 0.16542 0.485297 -0.612594 
1696 1 -84.3672 -36.0281 -555.735 -0.699375 -0.503968 -0.332508 -0.38253 
2132 2 -179.913 48.166 -565.745 -0.198348 0.744591 0.635105 0.0537112 
2133 2 -181.94 52.0607 -574.642 -0.232855 0.942675 -0.0860545 -0.223018 
2134 2 -185.278 56.5638 -582.848 -0.096224 0.536065 -0.751387 -0.372549 
2135 2 -188.152 62.6532 -590.063 0.262467 -0.234067 -0.829307 -0.434251 
2136 2 -190.876 70.5898 -595.23 0.407665 -0.837581 -0.307817 -0.193692 
2137 2 -190.702 78.4819 -601.205 0.476156 -0.744684 0.417884 0.209985 
1806 2 -64.377 -34.571 -619.449 0.575196 -0.235553 0.408966 0.66814 
1807 2 -63.37 -26.4069 -613.91 -0.204901 0.0164771 0.464274 0.861507 
2159 2 -97.3264 53.9275 -581.902 -0.185394 0.961932 0.188829 0.0682587 
2160 2 -96.7719 57.3472 -591.215 -0.194362 0.820551 -0.516721 -0.148048 
2161 2 -97.0719 61.6342 -600.012 0.0555998 0.071991 -0.954378 -0.284408 
2158 2 -97.4561 50.832 -572.503 -0.100054 0.426278 0.882844 0.16989 
2157 2 -95.6678 48.5311 -563.056 -0.00700306 -0.466809 0.872189 0.146038 
2162 2 -98.1147 66.8984 -608.371 0.319856 -0.715275 -0.559466 -0.270317 
2163 2 -97.6042 74.0048 -615.194 0.48914 -0.829216 0.265563 0.0511723 
2155 1 -81.1691 90.0488 -546.02 -0.173516 0.939965 0.0883218 -0.280281 
2164 2 -96.7961 82.0511 -620.862 0.16989 -0.25183 0.798693 0.519431 
2131 2 -177.54 45.898 -556.422 -0.112125 -0.0572749 0.986188 0.107616 
2130 2 -175.593 43.6095 -546.943 0.0639155 -0.791805 0.580391 0.17918 
2047 1 -156.13 66.7382 -630.087 0.392934 -0.192751 0.899042 0.0131612 
2128 1 -148.656 80.5505 -535.183 -0.148958 0.952312 -0.0407166 -0.263164 
2138 2 -189.47 87.2637 -605.653 0.137129 -0.124568 0.843514 0.504145 
1771 2 -65.4426 6.41333 -540.827 -0.319684 -0.385021 0.43452 0.748834 
1772 2 -73.8953 10.6119 -537.881 -0.873937 0.0481975 0.452572 0.170559 
1815 2 -62.8785 47.1136 -588.117 -0.487558 0.555345 0.410891 0.533899 
1818 2 -63.0642 76.6423 -588.537 0.346201 -0.345367 -0.568122 -0.661894 
1817 2 -62.0172 66.8469 -588.966 -0.299163 0.339529 -0.601696 -0.658167 
1816 2 -62.4088 57.0045 -588.03 -0.695258 0.708944 -0.0983353 -0.0659202 
1773 2 -81.1513 12.5596 -531.375 -0.643935 0.378787 0.212907 -0.629713 
1774 2 -88.2521 15.3442 -525.035 0.00123368 0.233412 -0.266856 -0.935043 
2165 2 -96.4907 91.0678 -624.886 -0.274675 0.523038 0.65728 0.46794 
1808 2 -64.4682 -18.1773 -608.521 -0.780032 0.417963 0.193312 0.42366 
1809 2 -64.4853 -9.84421 -603.153 -0.775708 0.507885 -0.219339 -0.303677 
1811 2 -64.0823 8.84309 -596.964 0.350536 -0.376722 -0.552119 -0.656026 
1810 2 -64.523 -0.648575 -599.364 -0.263372 0.160176 -0.583719 -0.751166 
1813 2 -64.0528 28.3015 -594.067 0.638707 -0.47215 0.36034 0.489165 
1814 2 -64.2736 37.7252 -590.901 0.120547 0.0328547 0.615275 0.778348 
1812 2 -62.8851 18.5634 -595.623 0.72792 -0.650813 -0.184671 -0.111676 
2129 3 -164.517 91.1369 -564.542 -0.190468 0.955259 -0.0414817 -0.222444 
1819 2 -62.7536 86.4629 -587.092 0.676699 -0.712051 -0.163289 -0.0916413 
1775 2 -92.2406 20.5186 -517.591 0.757131 0.0295549 -0.295161 -0.58203 
1695 2 -56.8071 -31.7952 -593.793 0.490714 -0.626928 0.352717 0.491682 
1770 2 -56.4424 2.55017 -542.819 0.38944 -0.646938 -0.107272 0.646761 
1733 2 28.9047 -56.3373 -516.805 0.0506766 -0.174845 0.938926 0.292027 
1804 1 -52.8748 -16.3438 -661.439 -0.29769 0.0430914 -0.436463 -0.847953 
1734 2 29.3334 -50.7695 -524.925 -0.188111 0.585724 0.737812 0.277804 
1805 3 -49.2752 10.7546 -639.577 -0.32334 0.0942542 -0.386829 -0.858446 
1735 2 30.049 -44.7228 -532.706 -0.219405 0.952337 -0.0555749 0.204517 
1694 2 -54.2765 -41.3907 -593.312 0.689541 -0.683981 -0.233145 -0.0484368 
1697 3 -54.0805 -50.3621 -545.437 -0.725362 -0.482177 -0.34503 -0.349729 
1736 2 33.9607 -41.0399 -540.982 -0.24784 0.642015 -0.724369 -0.0410052 
1737 2 37.6908 -37.3914 -549.367 -0.0739265 -0.104598 -0.983415 -0.12841 
1769 2 -48.0638 -2.7698 -542.783 0.713133 -0.374901 -0.592181 -0.0145596 
1761 2 7.67795 -52.9626 -548.48 0.717608 -0.215237 -0.464233 -0.47244 
2011 2 2.10083 78.2043 -658.834 -0.860017 0.396823 0.0245264 -0.319844 
1693 2 -51.7806 -50.9524 -591.823 0.372956 -0.218129 -0.717145 -0.546833 
2012 2 -1.1821 84.6856 -652.125 -0.284619 0.266171 -0.392528 -0.833107 
1762 2 3.30884 -45.6193 -543.433 0.77662 -0.531614 -0.181779 0.284963 
1748 2 -7.95412 -52.2328 -632.246 -0.342246 0.0442028 0.876175 -0.336499 
1799 2 -27.4811 42.2763 -661.791 -0.00816845 0.469874 0.83335 -0.290997 
1798 2 -24.4541 45.8999 -653.18 -0.203502 -0.331697 0.912482 -0.126259 
1797 2 -23.5559 48.2482 -643.624 -0.131864 -0.951275 0.276487 0.0352533 
2013 2 -3.54695 92.396 -646.477 0.498127 -0.136451 -0.513849 -0.684989 
1796 2 -22.3683 47.072 -633.928 0.110589 -0.875553 -0.470285 0.00308702 
1747 2 -1.45059 -45.5489 -629.019 -0.604734 -0.538444 0.586802 0.00611561 
1746 2 4.97662 -39.0568 -624.991 -0.341869 -0.849526 -0.0296477 0.40069 
1745 2 11.0611 -34.166 -618.971 0.0879147 -0.595667 -0.696224 0.390799 
1795 2 -19.913 44.259 -624.766 0.141378 -0.240084 -0.95593 -0.092571 
1742 2 28.1928 -29.3018 -595.985 -0.0291023 0.963581 0.139812 -0.226091 
1743 2 23.7163 -29.3102 -604.773 0.273523 0.751225 -0.563988 -0.206793 
1744 2 17.5718 -30.395 -612.504 0.395266 0.104224 -0.900158 0.150394 
1786 2 -9.88453 50.7088 -537.973 0.000330864 0.925336 0.308399 -0.220554 
1787 2 -13.3911 49.3569 -547.17 0.095818 0.84929 -0.517939 0.0355604 
1788 2 -13.9115 47.2329 -556.889 -0.00903612 -0.007459 -0.99107 0.132828 
1789 2 -14.4039 44.5769 -566.506 0.0473764 -0.771173 -0.63429 0.0269041 
1790 2 -15.27 45.0664 -576.353 -0.0447077 -0.951271 0.301757 0.0450287 
1791 2 -16.0479 44.3917 -586.165 -0.0497849 -0.304878 0.950421 -0.035662 
1792 2 -16.61 43.8301 -596.071 0.067222 0.614163 0.775858 -0.127785 
1793 2 -17.3794 41.2472 -605.492 -0.0766524 0.990951 -0.067601 -0.0870054 
1794 2 -19.4439 42.5426 -615.011 -0.0437977 0.674716 -0.726443 -0.122968 
1741 2 30.9977 -28.8829 -586.427 -0.0999011 0.551559 0.824877 -0.0733503 
1740 2 35.2587 -30.9228 -577.767 -0.178764 -0.263916 0.93153 0.175052 
1739 2 38.0443 -32.0523 -568.335 0.0165844 -0.934098 0.328506 0.138814 
1738 2 39.081 -34.8571 -558.838 0.158203 -0.830507 -0.533963 -0.0106346 
1763 2 -2.83734 -38.949 -539.34 0.223918 -0.583879 0.234573 0.744259 
1764 2 -10.19 -32.6373 -537.517 -0.415071 -0.198543 0.66316 0.590353 
1765 2 -18.2198 -26.9235 -536.602 -0.686682 0.312366 0.656302 0.0127481 
1882 2 10.224 79.4227 -604.771 -0.353528 0.411113 0.816823 -0.19699 
1881 2 16.4824 79.1886 -597.076 -0.281951 -0.476599 0.816275 0.164475 
1884 2 -4.55671 78.4635 -617.841 0.279124 0.745278 -0.531673 -0.289783 
1883 2 2.71251 79.4175 -611.14 -0.0770638 0.863419 0.30048 -0.397845 
1880 2 20.7845 81.4255 -588.37 -0.190473 -0.954855 0.121199 0.193086 
1879 2 25.647 85.4712 -580.652 0.0813049 -0.600401 -0.726302 0.324644 
1766 2 -26.9055 -22.2403 -537.102 -0.512719 0.725071 0.18975 -0.418791 
1767 2 -35.0509 -16.6573 -538.047 -0.0875272 0.64563 -0.464323 -0.599921 
1768 2 -41.4022 -9.90283 -541.317 0.432835 0.105469 -0.718989 -0.533465 
1785 2 -8.28812 52.5507 -528.35 -0.0527304 0.374017 0.919997 -0.104575 
1938 2 78.1249 81.2301 -646.406 -0.789651 -0.491212 0.208454 0.302836 
1784 2 -7.20558 55.144 -518.835 -0.108133 -0.475566 0.868114 -0.0923152 
1937 2 84.6386 87.4902 -650.638 -0.292981 -0.497109 -0.210844 0.789044 
1878 2 28.6417 90.2773 -572.517 0.204279 0.193443 -0.939376 0.196018 
1849 2 6.39448 81.7111 -515.981 -0.139647 0.270479 -0.634244 0.710686 
1848 2 1.8445 90.3894 -516.465 0.463713 0.629522 -0.279604 0.557219 
1850 2 11.9961 73.5805 -515.334 -0.691637 -0.23925 -0.586806 0.346492 
1936 2 88.9327 94.9351 -655.463 0.413015 -0.0183449 -0.490477 0.767147 
1877 2 28.1647 95.8543 -564.423 0.246505 0.880756 -0.372504 0.157304 
2110 2 -238.26 126.001 -659.804 0.969707 0.0215992 0.193517 -0.147486 
2111 2 -233.931 125.123 -650.934 0.679362 0.1778 0.103993 0.704301 
2112 2 -229.948 124.505 -641.945 -0.14257 0.256345 -0.0185071 0.955834 
2113 2 -224.604 124.817 -633.691 -0.834447 0.113491 -0.247425 0.479165 
2114 2 -219.452 124.287 -625.206 -0.884142 -0.0346613 -0.294217 -0.361286 
2115 2 -214.595 125.653 -616.737 -0.226148 -0.221918 -0.159761 -0.934926 
2116 2 -209.934 128.013 -608.374 0.538931 -0.347393 0.00268948 -0.767374 
2139 2 -188.5 96.0128 -610.141 -0.258651 0.545038 0.557147 0.570632 
1820 2 -64.1024 96.2745 -587.187 0.48725 -0.5484 0.337112 0.590085 
2166 2 -95.3842 99.9558 -629.003 -0.55563 0.809095 -0.0332503 0.188506 
2156 3 -98.7596 98.9593 -574.869 -0.165927 0.938423 0.124404 -0.276321 
2140 2 -185.028 105.017 -612.578 -0.594515 0.736303 -0.207754 0.247482 
2117 2 -204.765 130.802 -600.386 0.941692 -0.179701 0.282468 0.0336945 
2141 2 -178.914 112.685 -613.72 -0.787856 0.109546 -0.564361 -0.22086 
2052 2 -144.041 115.334 -659.886 0.256619 0.468807 0.82959 0.161702 
2142 2 -170.518 116.95 -610.877 -0.389487 -0.368125 -0.355531 -0.765756 
2167 2 -92.5908 108.893 -632.159 -0.58185 0.390308 -0.617073 -0.358235 
2143 2 -162.478 120.212 -606.048 0.437646 -0.507091 -0.0121003 -0.742414 
2051 2 -148.466 115.318 -651.069 0.182266 -0.407245 0.888225 -0.109487 
2118 2 -199.14 134.327 -593.162 0.637186 0.156742 0.405074 0.636665 
2168 2 -88.2811 117.725 -632.892 -0.113287 -0.333234 -0.647788 -0.675641 
2153 2 -85.2844 139.396 -553.037 0.0454055 0.39744 -0.113163 0.909491 
2152 2 -92.9579 141.724 -558.851 0.769629 0.354867 0.308147 0.432187 
2119 2 -192.265 137.51 -586.777 -0.116851 0.308838 0.00636126 0.943888 
2120 2 -186.215 138.827 -579.113 -0.718578 0.182667 -0.406025 0.534248 
2144 2 -154.978 124.325 -601.002 0.882855 -0.261579 0.367558 -0.130553 
2151 2 -101.815 140.925 -563.119 0.810167 -0.127281 0.527352 -0.2221 
2145 2 -147.797 127.787 -595.059 0.573578 0.095818 0.531769 0.615669 
2121 2 -178.625 136.842 -573.093 -0.856232 -0.161861 -0.386275 -0.302422 
2146 2 -140.488 133.214 -591.268 -0.0549674 0.411483 0.173435 0.893074 
2150 2 -111.18 140.287 -566.333 0.391919 -0.514377 0.236018 -0.725336 
2147 2 -133.503 136.759 -585.276 -0.77755 0.331234 -0.274288 0.458766 
2122 2 -171.279 136.221 -566.502 -0.31838 -0.405054 -0.184691 -0.836932 
2149 2 -119.339 140.148 -571.879 -0.3297 -0.454786 -0.161481 -0.811413 
2148 2 -126.463 138.95 -578.641 -0.851457 -0.0891593 -0.39926 -0.328119 
2123 2 -163.41 135.752 -560.458 0.371894 -0.380929 0.268708 -0.802735 
2124 2 -154.861 134.232 -555.53 0.819119 0.118095 0.511115 -0.232075 
2125 2 -146.925 130.382 -551.006 0.666584 0.508709 0.281755 0.466364 
2050 2 -153.486 114.513 -642.534 0.0658524 -0.950054 0.1772 -0.248317 
2049 2 -157.989 113.705 -633.756 -0.0992358 -0.739305 -0.634156 -0.203535 
1832 3 -88.6134 156.605 -546.036 -0.680725 -0.611775 -0.181957 -0.359495 
1831 1 -112.58 182.103 -547.044 -0.669595 -0.626096 -0.213127 -0.337968 
2126 2 -138.836 126.054 -547.233 -0.000504475 0.45546 -0.147869 0.87789 
2169 2 -82.2002 125.443 -633.693 0.439491 -0.715551 -0.213422 -0.499285 
2127 2 -130.825 123.673 -542.064 -0.693972 0.174291 -0.449362 0.534883 
2154 2 -78.0477 137.121 -546.631 -0.663036 0.169397 -0.380046 0.622297 
2170 2 -76.9309 133.775 -634.695 0.732727 -0.522781 0.430921 -0.0641752 
2171 2 -70.0477 140.843 -634.78 0.496135 -0.0054737 0.655281 0.569585 
1830 2 -87.1635 189.676 -586.032 -0.448035 0.707603 -0.162703 -0.521622 
1829 2 -81.158 181.831 -585.527 -0.688082 0.580235 0.435608 -0.0107336 
1824 2 -68.0108 135.378 -583.576 -0.118091 0.0852145 -0.746754 -0.648961 
1825 2 -67.7102 145.194 -584.782 0.500542 -0.439225 -0.594729 -0.450374 
1826 2 -69.2588 154.801 -586.475 0.707501 -0.678736 -0.0927946 0.173637 
1828 2 -76.4547 173.118 -585.623 -0.361246 -0.0133616 0.674607 0.643606 
1827 2 -73.0703 163.945 -586.526 0.322277 -0.495751 0.47803 0.649505 
1823 2 -68.6083 125.459 -584.171 -0.687118 0.623892 -0.274625 -0.251414 
1822 2 -67.9416 115.57 -585.074 -0.640996 0.573745 0.350821 0.369954 
1821 2 -67.0209 105.746 -586.229 -0.098003 0.0274755 0.660884 0.743554 
2172 2 -63.4536 148.092 -633.977 -0.186071 0.515744 0.44958 0.705169 
2173 2 -57.6754 156.074 -632.986 -0.613283 0.7346 -0.135328 0.256773 
2174 2 -52.0208 164.07 -633.99 -0.581687 0.297045 -0.704192 -0.27842 
1951 2 86.4638 185.098 -660.749 -0.250912 0.927753 0.106367 0.254956 
2175 2 -45.921 171.636 -635.83 -0.133591 -0.287346 -0.726218 -0.610077 
2014 2 -6.77111 100.784 -642.357 0.778415 -0.595647 -0.149024 -0.130643 
1876 2 26.8628 101.386 -556.342 0.298801 0.816263 0.486374 -0.0887345 
2015 2 -7.99128 110.34 -640.235 0.563214 -0.536568 0.392712 0.490573 
1875 2 26.5498 105.908 -547.576 0.0549815 0.145361 0.963073 -0.21986 
2016 2 -8.24664 120.265 -639.55 0.0748462 0.0115145 0.694914 0.715094 
2181 2 -27.1208 223.285 -654.775 -0.379608 0.361544 -0.74429 -0.413783 
1939 1 56.8381 104.602 -611.328 -0.386453 0.172234 -0.849428 -0.315375 
1874 2 24.807 111.491 -539.507 -0.130229 -0.666091 0.678177 -0.28185 
1873 2 23.7471 116.997 -531.399 -0.312607 -0.93512 -0.166446 -0.0111405 
2017 2 -7.45841 130.094 -639.164 -0.589506 0.517591 0.333419 0.522889 
2018 2 -6.28141 139.74 -637.39 -0.77792 0.543407 -0.287501 -0.129973 
1885 1 -34.1878 110.37 -599.713 0.787837 -0.0278442 0.57873 0.208828 
2019 2 -3.04862 148.901 -635.224 -0.30411 0.0513817 -0.622939 -0.718905 
1901 2 53.3849 226.453 -601.2 -0.606993 0.710458 0.0799656 0.347008 
2176 2 -39.9161 179.238 -638.114 0.331197 -0.712311 -0.313636 -0.533436 
2177 2 -34.9101 187.292 -640.754 0.50839 -0.794763 0.316771 0.0977155 
2178 2 -33.1653 195.723 -645.742 0.199777 -0.171238 0.809274 0.525207 
2179 2 -31.5177 204.855 -649.139 -0.331309 0.528655 0.561866 0.543199 
2180 2 -29.5578 214.346 -651.251 -0.551318 0.823859 -0.115173 0.0635661 
1886 3 -3.61782 118.593 -584.874 0.808311 -0.077101 0.552419 0.188472 
1888 2 -36.8199 150.466 -573.772 -0.530224 0.226331 -0.812537 -0.0861397 
1889 2 -28.4879 154.153 -577.661 -0.373365 -0.395669 -0.589843 -0.596766 
1890 2 -19.5393 158.369 -578.544 0.267299 -0.658495 0.0186212 -0.70327 
1891 2 -10.258 161.504 -577.47 0.64605 -0.462271 0.586202 -0.159034 
1892 2 -1.0801 165.137 -578.856 0.436187 0.10924 0.808252 0.380179 
1893 2 7.15183 169.853 -581.639 0.023197 0.749091 0.357302 0.557368 
1894 2 15.6908 173.238 -585.273 -0.51142 0.696931 -0.367632 0.342905 
1895 2 24.0758 177.933 -587.897 -0.584526 0.221828 -0.744654 -0.233692 
1896 2 31.1394 184.464 -590.216 -0.123691 -0.296215 -0.755477 -0.571149 
1897 2 36.6176 192.236 -593.211 0.374343 -0.782459 -0.336323 -0.36676 
1898 2 40.1877 200.604 -597.302 0.589145 -0.753767 0.283662 0.0654102 
1899 2 42.954 209.762 -599.848 0.462805 -0.16744 0.715664 0.495581 
1900 2 47.8878 218.275 -600.571 -0.0394733 0.476332 0.564752 0.672759 
2183 3 -1.20464 204.498 -613.911 -0.670324 -0.526137 -0.392952 0.345592 
2189 2 49.685 199.051 -574.007 0.621152 0.577965 0.409567 0.335234 
2188 2 40.9792 203.625 -575.043 0.674623 0.0486824 0.675871 -0.292765 
2187 2 32.797 208.612 -577.315 0.240522 -0.420461 0.455763 -0.746754 
2186 2 26.3422 215.957 -578.296 -0.473755 -0.687393 0.0741818 -0.545477 
2185 2 21.6318 224.484 -576.501 -0.62922 -0.616778 -0.459797 0.110698 
1944 2 56.6375 163.203 -603.251 -0.184903 0.959919 0.14307 0.15459 
1943 2 54.6054 157.306 -595.565 -0.0797823 0.497152 0.795026 0.338242 
1942 2 52.5804 149.487 -589.9 0.279807 -0.327294 0.823125 0.370205 
1941 2 49.7345 142.233 -583.878 0.44415 -0.816724 0.368364 -0.000429907 
1887 2 -45.3478 146.121 -571.106 -0.49097 0.71341 -0.313691 0.389349 
2190 2 58.5818 194.572 -573.723 0.159879 0.586039 -0.220322 0.763187 
2191 2 66.8713 189.432 -572.185 -0.509704 0.240427 -0.560472 0.606851 
2182 1 -4.2709 239.291 -616.732 -0.705148 -0.537578 -0.328218 0.325651 
1940 3 77.3476 129.025 -625.9 -0.357985 0.16706 -0.853293 -0.340337 
1945 2 58.8991 167.474 -611.809 -0.306721 0.631422 -0.710438 0.0500515 
1946 2 63.7083 171.084 -619.768 -0.271597 -0.131191 -0.945754 -0.120717 
1947 2 69.0056 172.875 -627.857 -0.0481552 -0.861376 -0.456574 -0.217376 
1948 2 73.4481 173.868 -636.627 0.24259 -0.878033 0.392522 -0.127022 
1949 2 77.5914 176.938 -645.068 0.314006 -0.28177 0.892555 0.159221 
1950 2 82.5775 180.916 -652.639 0.0330418 0.578085 0.768666 0.271808 
2184 2 18.1118 233.671 -575.565 -0.304696 -0.150327 -0.740007 0.580475 
1872 2 22.1949 118.605 -521.811 -0.100747 -0.421224 -0.898671 0.0693659 
2192 2 75.6856 185.736 -569.617 -0.778548 -0.168961 -0.596449 -0.0977904 
1902 2 57.3801 235.469 -602.075 -0.611083 0.448887 -0.54498 -0.357876 
2193 2 85.0637 184.851 -566.997 -0.228854 -0.552494 -0.333223 -0.72893 
1903 2 61.0051 244.722 -602.382 -0.0633788 -0.258345 -0.696919 -0.665992 
1935 2 93.9959 102.926 -658.629 0.81459 0.43449 -0.364393 0.121985 
1847 2 -3.50774 98.5263 -515.184 0.654372 0.646336 0.391328 -0.0301522 
1846 2 -10.6397 105.452 -515.659 0.504693 -0.0477214 0.694632 -0.510385 
2194 2 94.2789 187.605 -564.894 0.420263 -0.564231 0.270549 -0.657134 
1934 2 98.646 111.434 -660.495 0.575446 0.659783 0.144492 -0.461163 
1933 2 102.655 120.374 -661.763 0.0257527 0.259417 0.616722 -0.742761 
1932 2 105.421 129.706 -660.181 -0.476527 -0.374489 0.661897 -0.441103 
1930 2 108.725 147.119 -651.429 -0.308424 -0.513888 -0.686266 0.412107 
1929 2 107.584 155.282 -645.912 0.0863982 0.266421 -0.850147 0.445876 
1931 2 108.267 138.324 -656.121 -0.515032 -0.841326 0.103606 0.127195 
1928 2 106.413 163.65 -640.705 0.432207 0.818462 -0.299094 0.232079 
1927 2 105.352 172.039 -635.475 0.453521 0.727524 0.455644 -0.239618 
1920 2 113.614 217.383 -587.782 0.145493 0.849395 0.336449 -0.379687 
1917 2 125.431 222.067 -561.453 -0.143874 -0.964017 0.193313 0.112257 
1918 2 123.384 219.755 -570.873 -0.18883 -0.49547 0.845314 0.0655517 