ITEM: TIMESTEP
10000000
ITEM: NUMBER OF ATOMS
4067
ITEM: BOX BOUNDS pp pp pp
-4.6310929470000001e+03 4.6704658980000004e+03
-4.6310929470000001e+03 4.6704658980000004e+03
-4.6310929470000001e+03 4.6704658980000004e+03
ITEM: ATOMS id type x y z c_q[1] c_q[2] c_q[3] c_q[4] 
2964 2 -433.519 -221.22 -685.706 0.0634838 0.309028 -0.948776 0.0171919 
2965 1 -468.473 -252.812 -683.04 0.57815 -0.140125 0.172886 0.784996 
2884 1 -376.743 -222.888 -672.643 -0.915247 -0.0858112 -0.304495 -0.249485 
2963 2 -432.332 -220.75 -675.906 0.0626215 0.950726 -0.300863 -0.0409882 
2883 2 -340.356 -248.434 -688.472 0.168207 -0.498104 -0.84916 0.0502597 
2882 2 -337.312 -249.338 -679.174 0.128023 0.291632 -0.944017 -0.0859802 
2829 2 -342.099 -248.81 -739.99 0.00824743 -0.465266 -0.881895 0.0756368 
2828 2 -340.474 -248.007 -730.243 0.101222 0.447442 -0.888496 0.0111281 
2830 1 -323.291 -292.108 -740.691 0.0225477 0.0520039 -0.0495862 -0.99716 
2834 2 -318.039 -327.829 -702.976 0.926417 -0.0689169 -0.116286 -0.351396 
2833 2 -314.31 -330.552 -711.66 0.348262 0.13252 -0.236841 -0.89725 
2832 2 -310.911 -333 -720.67 -0.550266 0.254804 -0.0294451 -0.794616 
2835 2 -320.235 -325.997 -693.497 0.816458 -0.225086 0.00125771 0.531725 
2831 3 -329.061 -286.492 -706.61 -0.00760575 0.0427705 -0.0733419 -0.99636 
2836 2 -322.759 -323.008 -684.402 0.196373 -0.0963107 0.149018 0.964342 
2827 2 -337.66 -245.533 -721.064 0.158863 0.941437 -0.276543 -0.109465 
2826 2 -333.98 -243.234 -712.132 0.00694505 0.86031 0.467147 -0.203942 
2825 2 -327.902 -242.492 -704.369 -0.300209 0.285439 0.900121 -0.134837 
2824 2 -322.56 -242.684 -696.052 -0.246264 -0.553492 0.766636 0.212767 
2823 2 -317.986 -243.563 -687.333 0.0419878 -0.964767 0.0757741 0.248435 
2837 2 -323.583 -319.203 -675.312 -0.559187 0.0562138 0.187671 0.805562 
2881 2 -334.062 -253.099 -670.631 -0.0627875 0.877301 -0.424835 -0.21428 
2822 2 -313.965 -244.575 -678.362 0.20993 -0.586976 -0.77453 0.1072 
2821 2 -310.236 -244.434 -669.211 0.190793 0.370207 -0.90661 -0.0678389 
2990 2 -528.039 -104.551 -694.056 -0.44416 0.872002 -0.142524 -0.148396 
2989 2 -527.887 -110.417 -686.081 -0.24619 0.723946 0.602054 0.229835 
2988 2 -528.413 -116.217 -678.071 0.0666274 -0.103072 0.949184 0.289805 
2987 2 -526.37 -121.637 -670.031 0.188908 -0.778847 0.541668 0.253589 
2992 1 -543.159 -60.5291 -673.549 0.900394 0.362818 0.239355 0.0190612 
2991 2 -529.295 -96.8872 -700.198 -0.193274 0.498506 -0.747741 -0.393727 
2749 1 -274.309 44.0123 -686.575 -0.427673 -0.252721 0.168837 0.851306 
2748 2 -315.91 60.3569 -701.788 -0.21082 -0.854762 0.40374 -0.248859 
2747 2 -317.929 66.377 -694.199 -0.346502 -0.861775 -0.370109 0.0172764 
2746 2 -320.226 71.0328 -685.769 -0.126459 -0.133653 -0.959577 0.212972 
2745 2 -320.098 75.5732 -676.87 0.181498 0.716334 -0.655644 0.155097 
2744 2 -320.25 78.7404 -667.482 0.168456 0.963805 0.206646 0.00066366 
75 2 -71.7804 -1168.77 -515.343 0.119992 0.655768 -0.492489 -0.559486 
2971 2 -510.307 -245.011 -635.533 0.495431 -0.30617 -0.283715 -0.761783 
2970 2 -510.083 -252.524 -642.067 -0.17725 0.0976124 -0.397484 -0.89502 
2972 2 -508.465 -237.322 -629.787 0.857717 -0.458629 0.211138 -0.0969574 
2969 2 -509.235 -259.859 -648.666 -0.83442 0.40026 -0.0880104 -0.368496 
2973 2 -504.615 -229.882 -624.385 0.588395 -0.164451 0.522532 0.594733 
2967 2 -504.448 -274.211 -661.303 -0.289509 -0.0194565 0.379438 0.87854 
2962 2 -431.667 -219.323 -666.086 0.0213304 0.834566 0.546933 -0.0625261 
2968 2 -506.907 -267.653 -654.193 -0.811521 0.327192 0.292106 0.386074 
2974 2 -499.814 -222.293 -620.206 -0.186373 0.342466 0.560593 0.73056 
2961 2 -430.236 -218.62 -656.385 -0.0515577 0.144311 0.987826 -0.0267631 
2966 3 -469.433 -237.17 -651.717 0.554857 -0.127628 0.218342 0.792573 
2960 2 -428.892 -218.237 -646.585 -0.0443578 -0.799604 0.59612 0.0575107 
2959 2 -429.329 -218.018 -636.749 -0.0400803 -0.965615 -0.252272 -0.0483699 
2854 2 -392.589 -332.397 -537.59 -0.110756 0.313807 0.166819 -0.928132 
2853 2 -384.933 -330.388 -543.466 -0.801466 0.126685 0.407156 -0.419318 
2855 2 -398.657 -334.61 -530.028 0.663996 0.259475 0.0149587 -0.701112 
2856 2 -401.737 -338.207 -521.342 0.969954 0.179034 -0.163269 -0.0218765 
2958 2 -431.663 -215.608 -627.477 -0.190686 -0.35911 -0.909393 0.0876509 
2852 2 -377.653 -329.713 -550.096 -0.832407 -0.186597 0.33486 0.400187 
2851 2 -370.321 -325.764 -555.453 -0.271678 -0.456884 -0.0608119 0.844838 
2957 2 -433.233 -212.239 -618.314 0.00664778 0.487966 -0.8487 0.203847 
2975 2 -497.403 -212.836 -618.908 -0.674348 0.620161 0.245143 0.317113 
2850 2 -363.406 -319.847 -559.42 0.407908 -0.174199 -0.47747 0.758477 
2838 2 -324.596 -315.455 -666.195 -0.99406 0.0688512 0.0181778 0.0823061 
2849 2 -355.958 -317.775 -565.562 0.90261 0.0805618 -0.415859 0.076584 
2839 2 -324.916 -313.884 -656.524 -0.740673 0.00637216 -0.0268927 -0.671297 
2820 2 -307.072 -244.411 -659.768 0.0362537 0.946468 -0.277045 -0.161645 
2848 2 -350.107 -315.831 -573.231 0.645449 0.315335 -0.161047 -0.676774 
2880 2 -332.517 -257.641 -661.949 -0.244675 0.910706 0.332547 -0.0126596 
2819 2 -303.923 -241.44 -650.852 0.00994374 0.750985 0.62981 -0.198145 
2847 2 -345.959 -313.384 -581.907 -0.0318912 0.204202 0.15411 -0.966196 
2840 2 -324.544 -313.113 -646.695 0.0625461 0.084311 -0.0754441 -0.991609 
2879 2 -331.15 -260.71 -652.644 -0.104132 0.27993 0.947253 0.116223 
2865 2 -330.139 -274.188 -517.315 -0.0428513 0.632828 0.769974 0.0695113 
2866 2 -330.204 -272.47 -527.041 -0.117896 0.989981 0.069436 0.0348743 
2867 2 -329.217 -270.719 -536.729 -0.14381 0.72935 -0.668755 0.0115945 
2868 2 -326.586 -269.022 -546.136 -0.0944035 0.0272154 -0.991777 -0.0820056 
2869 2 -324.634 -267.515 -555.627 0.0326211 -0.7248 -0.687561 -0.0293323 
2885 3 -355.635 -224.892 -644.902 -0.91013 -0.123902 -0.295656 -0.262486 
2878 2 -330.828 -262.46 -642.916 0.0907383 -0.589966 0.798611 0.0769895 
2877 2 -331.086 -262.68 -632.996 -0.0139014 -0.999733 -0.0125862 -0.0134745 
2876 2 -331.749 -260.773 -623.269 -0.111379 -0.603106 -0.787663 0.0587004 
2874 2 -329.069 -259.156 -603.795 0.01356 0.859836 -0.504681 -0.0761302 
2873 2 -327.177 -258.911 -594.012 -0.0484051 0.917707 0.389323 -0.0624439 
2875 2 -330.364 -258.995 -613.577 0.0889132 0.26939 -0.956609 0.0665039 
2872 2 -325.637 -261.042 -584.434 -0.103881 0.218318 0.966255 0.088865 
2871 2 -324.91 -264.188 -575.067 0.041377 -0.667247 0.721973 0.178396 
2841 2 -326.091 -312.331 -636.962 0.832461 0.0513287 -0.0834272 -0.545357 
2842 2 -328.174 -312.257 -627.222 0.939772 -0.13437 -0.116644 0.291836 
2846 2 -343.271 -310.906 -591.145 -0.745283 0.011706 0.223772 -0.627968 
2843 2 -331.2 -310.319 -617.981 0.328616 -0.287691 -0.0500599 0.898187 
2845 2 -340.508 -310.737 -600.587 -0.984372 -0.0225858 0.151759 0.0864302 
2844 2 -336.187 -309.532 -609.404 -0.533023 -0.235797 0.0801308 0.80862 
2870 2 -324.496 -266.363 -565.386 0.142987 -0.987868 0.0409741 0.0446332 
2805 2 -273.01 -219.946 -526.249 -0.228811 0.765799 0.563302 -0.209496 
2818 2 -302.859 -237.212 -642.004 -0.0593708 -0.0212687 0.978773 -0.195001 
2817 2 -301.93 -233.175 -632.977 -0.21012 -0.772839 0.591636 -0.0923918 
2816 2 -303.685 -229.737 -623.839 -0.185027 -0.933478 -0.307189 0.00428977 
2806 2 -278.175 -218.729 -534.569 0.0389489 0.938016 -0.215793 -0.268405 
2815 2 -305.486 -225.847 -614.834 -0.195482 -0.418052 -0.867981 0.18338 
2807 2 -282.567 -218.672 -543.442 0.286607 0.46079 -0.798196 -0.261556 
2810 2 -296.949 -214.105 -568.429 -0.195207 -0.734852 0.643421 0.0888642 
2809 2 -293.637 -214.713 -559.078 0.0799763 -0.958567 -0.208364 0.177022 
2808 2 -289.275 -217.423 -550.623 0.277936 -0.4431 -0.851801 0.0291285 
2811 2 -300.827 -215.423 -577.469 -0.147066 0.0197256 0.981487 -0.121105 
2814 2 -305.606 -223.856 -605.204 0.0581812 0.471826 -0.872253 0.114759 
2812 2 -303.591 -218.548 -586.433 0.0780254 0.811626 0.553427 -0.16998 
2813 2 -306.036 -221.512 -595.557 0.139378 0.93895 -0.314161 0.015815 
2858 3 -358.499 -310.315 -514.655 0.171496 0.360627 0.883103 0.246308 
2986 2 -525.519 -126.799 -661.645 0.268402 -0.925113 -0.268469 -0.00711543 
2985 2 -524.265 -132.41 -653.58 0.183114 -0.440715 -0.848263 -0.229542 
2993 3 -526.131 -81.0763 -650.866 0.912907 0.344541 0.209362 0.0637159 
2984 2 -521.05 -137.289 -645.512 0.0279205 0.459166 -0.827998 -0.320633 
2983 2 -515.923 -142.339 -638.596 -0.236751 0.903554 -0.168179 -0.315047 
2999 2 -514.141 -65.8205 -610.469 0.67212 0.580367 0.0731556 0.453957 
2998 2 -520.974 -59.05 -612.65 0.755604 0.318562 0.529502 -0.217275 
2956 2 -434.336 -208.476 -609.309 0.157337 0.916788 -0.346658 0.120719 
2955 2 -435.952 -204.799 -600.167 0.183703 0.846735 0.497247 -0.0451356 
2982 2 -511.41 -149.274 -633.144 -0.437578 0.693933 0.569912 0.0467256 
2954 2 -436.982 -200.064 -591.585 0.0880862 0.139948 0.96032 -0.224589 
3000 2 -507.902 -72.7166 -607.048 0.180336 0.376681 -0.452301 0.788044 
2981 2 -508.076 -157.224 -628.351 -0.256657 0.166999 0.837679 0.452252 
3001 2 -503.679 -81.1754 -604.147 -0.633501 0.0481449 -0.507641 0.581944 
2980 2 -504.992 -165.634 -624.299 0.168731 -0.574577 0.640383 0.480937 
2979 2 -500.956 -174.595 -623.509 0.621951 -0.740865 -0.0218865 0.252619 
2978 2 -497.665 -183.606 -621.281 0.54023 -0.428576 -0.642995 -0.333215 
2977 2 -495.824 -193.269 -620.221 -0.0315533 0.211204 -0.708625 -0.672494 
2976 2 -496.495 -202.99 -618.343 -0.564252 0.626603 -0.435495 -0.315169 
2886 2 -399.126 -197.009 -640.173 0.407119 0.279203 0.413296 0.765171 
2953 2 -438.816 -194.567 -583.61 -0.107834 -0.672057 0.667634 -0.301624 
2887 2 -391.708 -192.849 -635.185 -0.309177 0.553638 0.0143806 0.773103 
2888 2 -383.322 -189.351 -631.363 -0.830465 0.239221 -0.471714 0.174889 
2889 2 -374.904 -187.186 -626.548 -0.663509 -0.314795 -0.481361 -0.478488 
3002 2 -496.885 -86.8045 -599.707 -0.786281 -0.3393 -0.47957 -0.191444 
2952 2 -438.932 -188.318 -575.954 -0.315265 -0.942824 -0.108115 -0.00172788 
2951 2 -437.294 -181.365 -569.093 -0.15315 -0.557566 -0.736158 0.351762 
2950 2 -434.868 -175.732 -561.324 0.197311 0.231891 -0.918425 0.252567 
2949 2 -433.149 -168.944 -554.332 0.355738 0.856791 -0.367476 0.065734 
2948 2 -430.66 -161.514 -548.257 0.319499 0.801427 0.391329 -0.320152 
2947 2 -428.804 -155.125 -540.877 -0.00117998 0.333056 0.869094 -0.365715 
2946 2 -425.988 -149.204 -533.519 -0.25406 -0.448685 0.830218 -0.21183 
3003 2 -488.636 -90.5575 -595.653 -0.25276 -0.605996 -0.0871594 -0.749189 
3004 2 -479.237 -92.0888 -592.913 0.43611 -0.449786 0.415554 -0.659405 
3005 2 -469.713 -93.2064 -590.31 0.856376 0.0435521 0.507764 -0.0830565 
3006 2 -460.97 -94.5889 -585.884 0.651538 0.386757 0.246328 0.604351 
3007 2 -453.186 -96.3103 -580.016 -0.142714 0.421072 -0.182164 0.87701 
3011 2 -425.923 -110.616 -557.506 0.39705 -0.147182 0.533104 -0.732454 
3010 2 -433.189 -104.593 -560.424 -0.324986 -0.583087 0.15354 -0.728573 
3009 2 -439.172 -99.9682 -566.669 -0.881403 -0.348166 -0.268295 -0.172994 
3008 2 -445.445 -98.6336 -574.283 -0.795912 0.114526 -0.304029 0.510856 
3012 2 -419.248 -116.917 -553.662 0.76057 0.300446 0.572107 -0.0629136 
3013 2 -411.049 -122.152 -551.382 0.567654 0.53034 0.0614556 0.626683 
3014 2 -403.348 -126.611 -547.236 -0.175228 0.464676 -0.376693 0.781968 
3015 2 -394.871 -130.481 -544.053 -0.725996 0.063475 -0.572482 0.37572 
3016 2 -386.184 -133.282 -540.11 -0.713514 -0.419254 -0.427724 -0.36356 
3020 3 -377.114 -89.593 -547.645 -0.719203 0.0668445 0.680475 0.123422 
3017 2 -377.256 -136.009 -537.044 -0.167226 -0.584714 0.0558821 -0.791848 
3018 2 -368.27 -139.017 -534.272 0.526789 -0.293551 0.524738 -0.600809 
2945 2 -423.843 -142.687 -526.406 -0.357641 -0.912489 0.196831 0.0267142 
2890 2 -365.669 -186.867 -622.985 -0.0827291 -0.537059 0.0700328 -0.836552 
2944 2 -422.501 -136.286 -519.065 -0.201887 -0.714518 -0.606907 0.283495 
2786 2 -366.859 -69.1091 -616.353 0.417642 0.0189792 0.609954 -0.673179 
2785 2 -370.798 -60.3687 -618.983 -0.246215 -0.402056 0.468481 -0.747165 
2787 2 -362.312 -77.5329 -613.643 0.802216 0.398314 0.4414 -0.0544155 
3026 2 -361.464 -68.1653 -521.963 0.805666 0.0776441 -0.178737 0.559399 
2891 2 -356.867 -188.885 -618.848 0.625563 -0.273551 0.488723 -0.54313 
2892 2 -347.842 -191.03 -615.444 0.675173 0.250491 0.663155 0.204011 
2893 2 -337.94 -191.387 -615.636 0.28952 0.626549 0.213167 0.691501 
2789 2 -352.064 -92.8779 -606.998 0.0841882 0.242872 -0.494304 0.830415 
2913 2 -290.291 -76.557 -649.184 0.206552 0.437175 0.569049 -0.665129 
2790 2 -348.841 -101.389 -603.15 -0.600775 -0.140154 -0.521261 0.589672 
2791 2 -344.305 -109.196 -599.02 -0.863922 -0.39591 -0.163057 -0.265153 
2792 2 -339.144 -114.976 -592.867 -0.310316 -0.369261 0.176783 -0.857962 
3019 1 -344.233 -101.379 -549.517 -0.724099 0.089242 0.66822 0.145598 
2930 2 -350.369 -158.808 -546.481 0.352119 0.139056 0.184278 0.907038 
2894 2 -328.036 -191.214 -615.059 -0.439739 0.549059 -0.275347 0.655246 
2895 2 -318.455 -189.896 -612.778 -0.792013 0.166233 -0.587175 -0.0175498 
2929 2 -350.924 -159.902 -556.344 0.955263 -0.0272602 0.0740178 0.285046 
2928 2 -350.376 -160.957 -566.171 0.848435 -0.0344081 -0.038342 -0.526786 
2927 2 -348.017 -161.742 -575.787 0.168269 0.102671 -0.0222468 -0.980127 
2926 2 -346.074 -159.867 -585.249 -0.634009 0.0289532 0.119378 -0.763507 
2797 2 -316.575 -133.283 -554.476 -0.830215 0.0782068 -0.227893 0.502684 
2796 2 -320.709 -132.885 -563.518 -0.191278 0.204054 -0.0851334 0.956309 
2795 2 -325.083 -129.908 -571.87 0.633326 0.24781 0.0644053 0.730302 
2896 2 -309.225 -187.111 -610.584 -0.431829 -0.31612 -0.512891 -0.671219 
2793 2 -334.35 -119.915 -585.8 0.407115 -0.0632869 0.410808 -0.81332 
2794 2 -330.492 -125.83 -579.036 0.92688 0.179325 0.308403 -0.116718 
2925 2 -342.476 -157.611 -594.259 -0.970251 -0.127196 0.188297 0.0835356 
2897 2 -300.641 -183.433 -607.315 0.253737 -0.592742 -0.212083 -0.734367 
2924 2 -338.969 -152.95 -602.192 -0.554332 -0.300762 -0.134934 0.764232 
2898 2 -293.16 -177.188 -605.224 0.748594 -0.595679 0.245387 -0.156709 
2899 2 -288.097 -168.923 -603.175 0.564016 -0.198256 0.485355 0.637974 
2900 2 -285.389 -160.596 -598.489 -0.278042 0.147294 0.456106 0.832445 
2901 2 -285.072 -152.268 -593.175 -0.89054 0.359508 0.145831 0.23754 
2923 2 -335.423 -147.309 -609.535 0.218298 -0.105199 -0.330323 0.912231 
2902 2 -286.148 -145.262 -586.326 -0.815305 0.282508 -0.193734 -0.466835 
2903 2 -286.224 -138.593 -578.881 -0.134952 0.0721601 -0.397906 -0.904573 
2904 2 -286.222 -131.158 -572.253 0.620618 -0.12767 -0.407319 -0.657742 
2922 2 -331.292 -141.982 -616.82 0.844665 0.13967 -0.336537 0.392144 
2921 2 -328.545 -135.664 -623.937 0.856811 0.387676 -0.0486958 -0.33647 
2905 2 -289.47 -123.684 -566.526 0.826973 -0.533068 -0.17862 0.00698257 
2912 3 -299.555 -100.433 -604.106 -0.174146 -0.0418142 0.709145 -0.681937 
2915 2 -299.031 -94.2497 -649.998 0.698634 0.270632 -0.590318 0.300322 
2916 2 -305.417 -101.643 -648.351 0.179366 -0.273264 -0.584719 0.742467 
2917 2 -311.437 -109.305 -646.585 -0.454946 -0.581097 -0.142852 0.659503 
2918 2 -316.86 -116.914 -643.337 -0.876699 -0.400722 0.265914 -0.0105099 
2919 2 -321.442 -123.857 -637.983 -0.554558 -0.0467127 0.35119 -0.75296 
2920 2 -324.577 -129.351 -630.428 0.26762 0.289096 0.315768 -0.863188 
2798 2 -312.208 -133.59 -545.61 -0.920013 0.00173304 -0.254345 -0.298129 
2799 2 -307.196 -132.034 -537.227 -0.268029 -0.193568 -0.0433924 -0.942767 
2800 2 -304.105 -132.211 -527.792 0.542617 0.0913708 0.137213 -0.823645 
2801 2 -304.157 -134.478 -518.046 0.989564 0.0354896 0.0244023 -0.137504 
2804 3 -306.128 -180.612 -533.624 0.140393 -0.831042 -0.409847 0.348833 
2906 2 -293.202 -115.353 -562.475 0.5026 -0.614417 0.306771 0.525144 
2907 2 -295.829 -105.811 -561.202 0.0139006 -0.0852434 0.649978 0.755029 
2908 2 -296.634 -96.048 -559.371 -0.551884 0.372938 0.525869 0.528965 
2931 2 -346.592 -157.494 -537.429 -0.511158 0.262265 0.0110055 0.818421 
2932 2 -342.321 -154.73 -528.938 -0.971309 0.06603 -0.221026 0.0578467 
2933 2 -338.218 -153.807 -520.009 -0.675151 -0.00785108 -0.0698952 -0.734319 
2914 2 -294.268 -85.5992 -649.189 0.626294 0.728643 -0.0983074 -0.259174 
2909 2 -298.262 -86.5141 -557.188 -0.669871 0.729393 -0.0424762 -0.132115 
2910 2 -299.957 -76.8001 -557.872 -0.276909 0.389967 -0.602504 -0.638934 
2788 2 -356.05 -84.6184 -610.79 0.670142 0.542015 -0.123835 0.491726 
2911 1 -292.598 -66.168 -603.266 -0.170776 -0.0523984 0.736093 -0.652883 
3025 2 -358.512 -65.6538 -531.021 0.923109 0.171865 -0.112996 -0.324906 
3024 2 -354.884 -62.8796 -539.836 0.230336 0.227522 0.109653 -0.939763 
3021 2 -340.784 -56.9413 -564.995 -0.606719 -0.297703 0.166172 0.718089 
3023 2 -350.383 -60.9208 -548.503 -0.588702 0.12569 0.243189 -0.760586 
3022 2 -346.507 -58.1387 -557.138 -0.969649 -0.145673 0.194432 -0.027515 
2997 2 -527.259 -52.301 -616.368 0.350347 -0.160188 0.541676 -0.747117 
2996 2 -533.655 -47.806 -622.398 -0.360862 -0.438208 0.0868931 -0.818659 
2995 2 -539.954 -42.4175 -627.863 -0.868661 -0.367035 -0.245293 -0.224822 
2994 2 -545.128 -36.0484 -633.339 -0.671633 -0.0712221 -0.446774 0.58671 
2782 2 -384.325 -35.9954 -628.037 -0.0471695 0.316197 -0.537692 0.780181 
2783 2 -378.996 -44.1386 -626.18 -0.714092 -0.235099 -0.475975 0.456342 
2784 2 -374.207 -51.409 -621.429 -0.754761 -0.624496 -0.0657006 -0.189802 
2781 2 -391.299 -28.9076 -627.513 0.437664 0.722235 -0.05928 0.532272 
2780 2 -398.624 -22.4895 -625.724 0.651931 0.558995 0.511997 0.0192167 
2778 2 -414.838 -11.3094 -625.096 -0.0404321 -0.617627 0.394028 -0.679444 
2779 2 -406.541 -16.6845 -625.508 0.484859 -0.13136 0.709134 -0.494758 
2776 1 -426.271 -23.8096 -581.085 0.407531 -0.436534 0.608782 -0.522246 
2775 2 -419.289 -47.2362 -540.733 -0.658638 -0.172094 0.681316 0.269051 
2777 3 -394.242 -37.4471 -585.2 0.373384 -0.449841 0.645233 -0.491835 
2774 2 -409.499 -48.3714 -541.725 -0.140367 -0.646432 0.212649 0.719168 
2773 2 -399.578 -47.9472 -541.759 0.334454 -0.598396 -0.375883 0.623518 
2772 2 -389.747 -46.9734 -542.806 0.754544 -0.0264589 -0.646627 0.108794 
2771 2 -380.033 -45.3908 -543.166 0.528015 0.518737 -0.467957 -0.482833 
2770 2 -370.61 -45.1797 -546.26 -0.0229323 0.573305 0.0551881 -0.81716 
2769 2 -364.012 -44.5429 -553.628 -0.818516 0.134293 0.339451 -0.443587 
2743 2 -320.849 82.4979 -658.222 0.104595 0.485233 0.851495 -0.169013 
2750 3 -293.589 45.4221 -657.323 -0.403892 -0.235448 0.130714 0.874271 
2751 2 -244.387 29.3807 -653.207 0.932904 0.0686226 -0.309671 -0.170545 
2752 2 -250.529 28.9621 -645.455 0.721774 -0.148877 -0.276985 0.616569 
2753 2 -256.68 27.4831 -637.739 -0.0201128 -0.415289 -0.24042 0.877114 
2768 2 -357.747 -43.9513 -561.232 -0.878975 -0.120517 0.305133 0.346082 
2754 2 -263.882 23.5617 -632.232 -0.725388 -0.376822 0.319069 0.479596 
2755 2 -272.162 20.9673 -627.504 -0.78687 -0.000950823 0.485349 -0.381145 
2756 2 -279.871 17.2416 -622.554 -0.198251 0.277863 0.324856 -0.882019 
2757 2 -286.052 12.7762 -616.187 0.547596 0.354858 -0.0764375 -0.753904 
2758 2 -292.076 9.48052 -609.143 0.913092 0.18477 -0.363442 -0.00575191 
2759 2 -298.434 6.51292 -602.183 0.472483 -0.17158 -0.557493 0.660698 
2767 2 -351.706 -39.7567 -567.825 -0.350003 -0.37391 -0.0954437 0.853569 
2760 2 -305.945 0.994845 -598.987 -0.216515 -0.471908 -0.159969 0.839544 
2766 2 -345.682 -33.8118 -572.936 0.329857 -0.157209 -0.473128 0.801642 
2761 2 -313.549 -4.22762 -595.263 -0.815328 -0.430166 0.238475 0.305495 
2762 2 -320.486 -9.31672 -590.306 -0.735822 -0.161068 0.478061 -0.451753 
2763 2 -326.11 -15.6741 -585.209 -0.158395 0.32306 0.397746 -0.844003 
2764 2 -332.461 -21.3862 -580.41 0.580743 0.542912 0.0134687 -0.606467 
2765 2 -338.974 -27.7586 -576.879 0.834769 0.329244 -0.438276 0.0517118 
2742 2 -319.622 85.9672 -649.112 -0.110714 -0.223916 0.950627 -0.184152 
2741 2 -318.577 90.5445 -640.379 -0.260207 -0.886822 0.379579 -0.041937 
2740 2 -315.602 95.7968 -632.374 -0.183214 -0.831641 -0.449689 0.269416 
2695 1 -393.56 154.119 -523.825 -0.653984 -0.0121011 -0.740588 -0.153908 
2694 2 -380.179 118.976 -552.267 0.216195 0.753286 -0.412324 -0.464553 
2693 2 -371.623 118.367 -547.373 -0.193893 0.826531 0.249738 -0.465707 
2692 2 -363.175 117.071 -542.48 -0.48366 0.304576 0.813738 -0.105535 
2696 3 -359.159 159.37 -527.417 -0.651479 -0.0258762 -0.732521 -0.195751 
2739 2 -310.894 101.805 -625.958 0.150038 -0.276407 -0.867508 0.385381 
2691 2 -355.041 115.486 -537.16 -0.369253 -0.487321 0.729105 0.307532 
2738 2 -305.272 107.87 -620.642 0.457681 0.469998 -0.74577 0.116004 
2737 2 -296.618 111.598 -617.447 0.248841 0.815193 -0.0940926 -0.514475 
2736 2 -288.517 116.711 -615.211 -0.24247 0.465526 0.621054 -0.582054 
2703 2 -335.127 200.153 -526.129 0.0764584 0.949641 0.0774403 0.293836 
2704 2 -328.992 198.53 -533.673 -0.110953 0.609421 -0.740079 0.261874 
2735 2 -280.56 121.26 -611.36 -0.523439 -0.158793 0.813646 -0.196917 
2705 2 -324.122 195.482 -541.847 -0.357413 -0.161983 -0.91929 0.0303711 
2734 2 -271.925 125.15 -608.498 -0.51172 -0.662806 0.455441 0.302332 
2733 2 -264.998 130.203 -603.401 -0.0933466 -0.800713 -0.331924 0.489869 
2732 2 -258.223 135.462 -598.489 0.325315 -0.144652 -0.851212 0.385597 
2731 2 -250.183 139.068 -594.012 0.497132 0.408706 -0.764451 -0.0378753 
2706 2 -317.804 193.205 -549.033 -0.24041 -0.790032 -0.456219 -0.331537 
2707 2 -311.081 192.509 -556.216 0.0673113 -0.846623 0.412376 -0.329612 
2708 2 -305.296 191.145 -564.142 0.333451 -0.313516 0.889097 -0.00504245 
2721 2 -222.427 201.001 -657.625 0.15979 -0.79269 0.309271 -0.500461 
2709 2 -299.58 192.892 -572.013 0.21666 0.500941 0.82715 0.133939 
2710 2 -294.375 193.445 -580.423 -0.0101863 0.913089 0.168222 0.371303 
2720 2 -231.305 202.35 -653.3 -0.343227 -0.696805 -0.510757 -0.36849 
2719 2 -238.909 205.175 -647.504 -0.474049 -0.0429679 -0.860589 0.181156 
2711 2 -287.89 194.955 -587.723 -0.371585 0.657273 -0.608884 0.243263 
2712 2 -280.611 197.33 -594.058 -0.335506 -0.0785746 -0.933001 -0.10378 
2718 2 -246.16 206.254 -640.84 -0.229101 0.696258 -0.581851 0.352403 
2713 2 -274.329 199.036 -601.55 -0.13934 -0.756249 -0.585297 -0.257097 
2730 2 -242.526 140.96 -588.017 0.163119 0.877451 -0.140693 -0.428576 
2729 2 -234.322 143.422 -583.222 -0.23518 0.592956 0.622575 -0.453314 
2728 2 -225.537 146.431 -579.741 -0.559387 -0.0104048 0.814048 -0.155898 
2727 2 -215.955 148.546 -578.913 -0.552125 -0.570475 0.475535 0.378923 
2723 3 -228.937 175.505 -612.886 0.355426 0.588958 -0.0871199 -0.720563 
2714 2 -269.095 200.256 -609.93 0.159829 -0.932877 0.279825 -0.160915 
2715 2 -265.075 202.155 -618.793 0.331836 -0.421239 0.84363 -0.0270488 
2716 2 -259.347 204.632 -626.517 0.295906 0.362458 0.84515 0.258427 
2717 2 -253.351 207.039 -634.009 0.0776452 0.892902 0.166372 0.411117 
2702 2 -342.78 201.376 -519.992 0.405273 0.467133 0.773345 0.139565 
2690 2 -347.239 115.413 -531.023 -0.00682687 -0.897196 0.0731557 0.435479 
2689 2 -339.301 113.936 -525.301 0.377057 -0.583427 -0.683863 0.223096 
2688 2 -332.584 108.712 -520.149 0.43363 0.0412092 -0.84795 -0.302072 
2701 2 -351.655 202.746 -515.717 0.480381 -0.322198 0.773891 -0.257907 
2687 2 -325.725 104.861 -514.157 0.0424528 0.717401 -0.521697 -0.459745 
2726 2 -206.438 151.164 -580.19 -0.121309 -0.631262 -0.0712658 0.762701 
2725 2 -197.903 156.197 -580.358 0.456715 -0.234583 -0.632907 0.579493 
2724 2 -190.179 162.498 -580.709 0.713488 0.386246 -0.581633 0.0587552 
2722 1 -196.344 184.589 -621.913 0.375483 0.59348 -0.10644 -0.703892 
9 2 13.4946 -1292.21 -370.33 -0.391452 0.45154 0.792177 0.123829 
10 2 8.08234 -1287.47 -377.152 -0.332555 0.905452 0.147342 -0.218757 
8 2 19.5017 -1297.61 -364.65 -0.201079 -0.291223 0.854491 0.380267 
11 2 3.24916 -1282.27 -383.998 -0.0380137 0.6795 -0.598128 -0.423175 
12 2 -2.13273 -1276.54 -390.017 0.247504 -0.0926035 -0.930141 -0.254959 
74 2 -63.3511 -1172.57 -511.797 -0.34384 0.804858 0.170726 -0.452581 
76 1 -100.221 -1171.63 -477.769 -0.697356 -0.376451 -0.418835 -0.443347 
78 2 -109.359 -1179.64 -432.244 -0.730908 0.231332 -0.574564 0.286592 
79 2 -99.6507 -1179.27 -430.129 -0.694777 -0.207241 -0.506716 -0.466449 
80 2 -91.0888 -1176.76 -426.076 -0.139863 -0.487868 -0.176198 -0.843432 
77 3 -68.5919 -1177.39 -464.117 -0.68121 -0.363342 -0.40375 -0.490837 
81 2 -82.385 -1175.44 -421.551 0.557068 -0.493048 0.341206 -0.574593 
184 1 -122.785 -1147.77 -377.732 -0.572787 0.219708 -0.525674 0.58933 
188 2 -77.4498 -1133.64 -400.26 -0.708879 -0.383095 -0.565067 0.177278 
189 2 -70.2745 -1140.37 -399.517 -0.496479 -0.735041 -0.143056 -0.439043 
187 2 -85.316 -1127.81 -401.517 -0.35934 0.273666 -0.581127 0.676959 
82 2 -72.72 -1174.02 -419.538 0.680358 -0.060939 0.722108 0.109363 
132 2 -65.0741 -1124.83 -464.454 0.815014 0.0220821 0.494967 0.300453 
185 3 -91.1842 -1158.44 -367.069 -0.623765 0.213633 -0.507929 0.554334 
190 2 -62.2907 -1146.11 -400.8 -0.000653217 -0.50331 0.425493 -0.752087 
83 2 -63.0105 -1171.65 -419.81 0.367055 0.472634 0.651164 0.46677 
73 2 -55.5646 -1177.1 -507.497 -0.537188 0.320599 0.778677 0.0480407 
48 2 -52.012 -1156.74 -384.908 -0.267138 0.0879346 0.717119 0.637688 
72 2 -47.7199 -1181.66 -503.642 -0.356904 -0.30853 0.774387 0.421608 
47 2 -49.9799 -1166.41 -384.473 0.306368 -0.455544 0.554602 0.625327 
84 2 -53.864 -1168.79 -422.275 -0.256191 0.824211 0.0403194 0.503406 
191 2 -54.6253 -1152.21 -400.018 0.553195 -0.0892118 0.673506 -0.482084 
71 2 -40.6726 -1185.68 -497.995 0.0312636 -0.81769 0.330131 0.470553 
13 2 -5.91635 -1271.28 -397.501 0.432506 -0.768663 -0.470748 0.0221857 
46 2 -48.3326 -1176.09 -383.344 0.668578 -0.736439 -0.0229288 0.10067 
45 2 -47.0305 -1185.85 -384.137 0.531652 -0.403663 -0.542355 -0.510151 
14 2 -9.61914 -1264.39 -403.653 0.324303 -0.855664 0.323248 0.241198 
15 2 -12.351 -1257.2 -409.921 0.0122846 -0.27853 0.874471 0.396952 
192 2 -46.3652 -1157.54 -399.136 0.67917 0.321483 0.593923 0.287458 
85 2 -45.6518 -1164.07 -425.07 -0.637461 0.547323 -0.510468 0.183038 
24 2 58.7927 -1232.93 -484.304 0.965353 0.206578 0.0598372 -0.147779 
70 2 -34.2175 -1188.31 -490.941 0.301772 -0.809499 -0.428744 0.264241 
22 1 11.9485 -1229.25 -479.928 0.542014 -0.136954 0.0446979 -0.827929 
25 2 58.9432 -1236.73 -475.183 0.704394 0.219099 0.0333727 0.674322 
26 2 61.8865 -1239.85 -466.334 -0.0687692 0.173154 -0.0903038 0.978332 
31 2 55.5611 -1242.96 -421.205 0.906808 0.0654221 -0.401802 -0.109431 
32 2 48.2224 -1244.31 -414.679 0.577276 -0.264246 -0.230393 0.737459 
29 2 65.8256 -1243.04 -437.851 -0.414118 0.194143 0.0711669 -0.886426 
30 2 61.9951 -1242.77 -428.748 0.390358 0.342935 -0.172567 -0.836802 
28 2 66.9949 -1243.04 -447.675 -0.958388 0.025938 0.0727147 -0.27483 
27 2 65.6027 -1242.09 -457.426 -0.776875 0.0117637 -0.0951124 0.622319 
33 2 41.7079 -1244.41 -407.275 -0.175672 -0.387429 0.058863 0.903091 
34 2 34.568 -1244.47 -400.371 -0.727993 -0.261153 0.462304 0.433706 
35 2 25.7402 -1243.88 -395.945 -0.808365 0.236449 0.481375 -0.242727 
21 2 -27.7086 -1222.73 -455.125 0.138945 -0.880799 0.37488 0.253679 
20 2 -24.7567 -1227.27 -446.878 0.294487 -0.814251 -0.499683 0.0242764 
69 2 -29.9671 -1191.34 -482.532 0.263894 -0.183641 -0.941573 -0.100385 
68 2 -25.7874 -1195.97 -474.839 0.0214364 0.578075 -0.749209 -0.322576 
16 2 -14.5946 -1250.13 -416.588 -0.279812 0.462654 0.81484 0.209028 
19 2 -21.3528 -1232.76 -439.31 0.237597 -0.107725 -0.938143 -0.227663 
17 2 -17.2487 -1244.12 -423.921 -0.260173 0.963527 0.0569104 -0.0261973 
18 2 -18.2682 -1239.14 -432.429 -0.0788199 0.644706 -0.668665 -0.361979 
36 2 16.6255 -1242.06 -392.378 -0.349328 0.556085 -0.0467736 -0.752696 
37 2 8.09197 -1238.43 -388.977 0.3833 0.307884 -0.532065 -0.689343 
38 2 -0.219387 -1233.45 -387.03 0.777415 -0.241025 -0.555449 -0.17032 
23 3 23.5123 -1226.65 -446.889 0.55259 -0.115956 0.0169277 -0.825174 
67 2 -23.2552 -1198.79 -465.791 -0.134426 0.979873 -0.0291005 -0.144678 
66 2 -19.3865 -1200.23 -456.73 -0.228384 0.603364 0.760954 -0.0688585 
65 2 -15.8013 -1202.43 -447.752 -0.128497 -0.287009 0.927353 0.202807 
64 2 -12.9543 -1202.42 -438.392 -0.0779207 -0.920355 0.344864 0.167164 
60 2 11.6075 -1202.52 -408.605 -0.0306326 0.909986 0.0115118 -0.413345 
59 2 19.0695 -1200.98 -402.207 -0.275059 0.520459 0.743863 -0.316439 
58 2 27.502 -1199.1 -397.343 -0.509898 -0.133668 0.849499 -0.0220936 
61 2 3.96899 -1202.13 -414.919 0.239693 0.626635 -0.656499 -0.344796 
62 2 -3.53473 -1201.2 -421.23 0.30119 -0.0968717 -0.948567 0.0110329 
63 2 -9.30697 -1201.25 -429.231 0.0375219 -0.830619 -0.521622 0.191243 
53 2 38.4676 -1165.39 -367.287 0.490539 0.850609 0.188463 -0.0177925 
54 2 40.0236 -1173.6 -372.623 0.353672 0.68311 -0.534714 0.349797 
55 2 40.9894 -1181.83 -377.982 0.134196 -0.123867 -0.879827 0.438808 
56 2 37.554 -1188.82 -384.145 -0.194742 -0.816136 -0.399736 0.369064 
50 3 -3.94767 -1175.47 -378.687 0.41739 0.499294 0.636565 -0.413855 
57 2 33.5062 -1194.91 -390.812 -0.354557 -0.828045 0.376738 0.216099 
86 2 -37.0646 -1159.3 -426.151 -0.45836 -0.116938 -0.762096 -0.442087 
87 2 -29.1238 -1153.89 -428.451 0.0608253 -0.607855 -0.434952 -0.661536 
193 2 -36.4985 -1158.79 -398.978 0.110544 0.718899 0.179487 0.662381 
194 2 -26.5803 -1158.58 -399.615 -0.501185 0.624047 -0.414646 0.432952 
195 2 -16.9085 -1156.77 -401.022 -0.660433 0.102108 -0.731856 -0.133379 
196 2 -7.83044 -1152.83 -401.819 -0.266409 -0.485081 -0.523895 -0.6475 
197 2 1.08387 -1148.62 -402.528 0.330011 -0.692393 0.0169301 -0.641403 
88 2 -21.3897 -1147.82 -429.347 0.592271 -0.730674 0.195533 -0.277663 
198 2 10.0248 -1144.51 -403.033 0.720776 -0.484517 0.487711 -0.0886747 
199 2 17.2947 -1137.88 -403.169 0.36283 0.134938 0.744775 0.543559 
49 1 -10.144 -1142.61 -368.319 0.477492 0.483773 0.609306 -0.408302 
39 2 -7.7098 -1227.47 -384.527 0.628104 -0.616488 -0.201144 0.43008 
40 2 -15.5357 -1221.56 -382.981 0.128918 -0.583695 0.321095 0.73456 
41 2 -23.5628 -1215.78 -381.899 -0.495256 -0.139216 0.702701 0.491479 
42 2 -32.0265 -1210.69 -382.179 -0.672698 0.523886 0.522159 -0.019261 
43 2 -39.2642 -1203.94 -382.466 -0.443619 0.724856 -0.218892 -0.47945 