ITEM: TIMESTEP
10000000
ITEM: NUMBER OF ATOMS
4067
ITEM: BOX BOUNDS pp pp pp
-4.6310929470000001e+03 4.6704658980000004e+03
-4.6310929470000001e+03 4.6704658980000004e+03
-4.6310929470000001e+03 4.6704658980000004e+03
ITEM: ATOMS id type x y z c_q[1] c_q[2] c_q[3] c_q[4] 
3226 2 74.6549 541.234 -572.132 0.264014 -0.880702 0.187004 0.345962 
3225 2 78.5199 533.514 -567.393 0.522645 -0.744971 -0.414548 0.00334828 
3224 2 82.8069 526.213 -562.199 0.311642 -0.175656 -0.842173 -0.403447 
3223 2 86.2422 518.392 -557.216 -0.149553 0.54139 -0.661229 -0.497299 
3222 2 88.6607 509.009 -554.944 -0.573995 0.792901 -0.0328623 -0.201884 
3221 2 91.2065 499.84 -552.188 -0.538394 0.518702 0.586979 0.310703 
3227 2 69.8992 547.222 -578.397 0.00598318 -0.476125 0.814729 0.330885 
3220 2 94.3435 490.947 -549.262 -0.0857717 -0.19292 0.788737 0.577338 
3245 2 86.4676 547.561 -522.022 0.628178 0.672403 0.0305046 -0.390302 
3246 2 81.5653 539.083 -520.921 0.744268 0.330969 -0.500767 0.292843 
3218 2 95.8946 471.951 -543.812 0.541609 -0.716998 -0.369501 -0.236735 
3247 2 76.5874 530.957 -518.522 0.269967 -0.120954 -0.515679 0.804092 
3219 2 95.2723 481.407 -546.744 0.513829 -0.703905 0.374118 0.317071 
3217 2 95.4887 462.268 -542.168 0.107838 -0.198737 -0.723773 -0.651941 
3228 2 66.9379 552.287 -586.325 -0.24554 0.366565 0.853456 0.277404 
3216 2 97.0865 452.54 -540.951 -0.328817 0.50259 -0.568504 -0.562216 
3215 2 98.5978 443.012 -538.525 -0.597763 0.795507 0.090291 -0.0411715 
3210 2 128.554 404.452 -541.131 0.487963 0.111896 -0.627548 -0.596284 
3211 2 121.57 411.146 -538.933 0.708018 -0.494622 -0.500026 -0.0635104 
3212 2 115.03 418.563 -539.286 0.474542 -0.69453 0.126167 0.525852 
3213 2 109.069 426.489 -539.364 -0.0119784 -0.327109 0.52849 0.783297 
3214 2 103.861 434.76 -537.376 -0.5278 0.260367 0.705337 0.395141 
3208 1 160.667 431.724 -562.289 0.353455 -0.440691 0.226585 0.793423 
3209 3 141.708 454.661 -543.848 0.362334 -0.445012 0.191174 0.796323 
3205 2 177.735 480.223 -552.616 -0.210126 -0.701623 -0.680677 0.0158191 
3204 2 175.126 483.7 -543.783 -0.0801518 0.0936327 -0.97006 0.209268 
3203 2 172.184 485.392 -534.544 -0.00886598 0.866544 -0.463374 0.185222 
3206 2 180.122 476.765 -561.659 -0.203389 -0.958538 0.141201 -0.141068 
3207 2 182.504 472.73 -570.354 -0.00392385 -0.47912 0.849699 -0.22009 
3202 2 168.64 485.691 -525.274 0.0849575 0.886866 0.423948 0.162844 
3152 2 237.844 425.289 -529.675 0.330615 0.814671 0.443849 -0.173216 
3151 2 237.442 432.897 -523.306 0.112626 0.240632 0.892211 -0.3652 
3153 2 238.288 418.454 -536.857 0.336097 0.849144 -0.37299 0.163925 
3150 2 240.113 440.091 -516.88 -0.326291 -0.517272 0.754968 -0.236618 
3201 2 166.623 485.815 -515.63 0.0703801 -0.0223216 0.997051 -0.0209419 
3244 2 92.3335 555.129 -524.371 0.0430955 0.393076 0.476776 -0.78506 
3231 2 65.3247 574.532 -604.798 -0.0992398 -0.130445 -0.838573 -0.519548 
3073 1 -9.97234 565.401 -541.239 -0.461266 0.478812 0.278422 0.693148 
3075 2 35.841 563.678 -552.351 0.871397 -0.368055 0.00343938 -0.324332 
3076 2 38.365 570.156 -545.229 0.828665 -0.226076 0.323887 0.396612 
3077 2 41.8694 576.857 -538.811 0.16926 0.0690306 0.353392 0.917442 
3078 2 44.0446 583.182 -531.493 -0.613736 0.306813 0.188386 0.702642 
3056 2 61.1077 689.77 -528.535 0.664434 -0.132983 -0.642865 0.357167 
3079 2 45.8886 589.643 -524.218 -0.890365 0.448595 -0.052031 -0.0574865 
3055 2 70.25 693.594 -528.465 0.643124 0.511314 -0.505124 -0.264198 
3074 3 2.5051 595.522 -528.605 -0.466748 0.489222 0.312024 0.667419 
3057 2 51.729 686.79 -527.302 0.0590269 -0.623452 -0.249085 0.738769 
3232 2 68.232 582.949 -608.86 0.298755 -0.761543 -0.325886 -0.473916 
3230 2 63.6386 566.021 -600.048 -0.415244 0.583956 -0.629427 -0.300648 
3229 2 64.3283 558.74 -593.39 -0.411558 0.887385 0.202134 0.0480575 
3233 2 72.8359 591.107 -612.039 0.531074 -0.772812 0.344262 -0.0469587 
3058 2 42.2147 684.461 -526.198 -0.517562 -0.653469 0.346239 0.430379 
3059 2 33.3363 680.351 -526.286 -0.707061 -0.223311 0.631446 -0.226878 
3234 2 76.8266 599.224 -616.283 0.350885 -0.183681 0.821149 0.410921 
3060 2 25.5485 674.304 -525.371 -0.246401 0.262264 0.577815 -0.732553 
3080 2 46.5356 597.571 -518.373 -0.482313 0.132231 -0.32121 -0.804185 
3054 2 79.7387 696.467 -529.263 0.171872 0.689096 0.059324 -0.70149 
3235 1 92.6481 619.814 -576.911 0.761048 0.542943 0.176861 -0.307797 
3236 3 89.435 586.243 -567.522 0.78432 0.570976 0.131833 -0.203587 
3061 2 18.7606 667.276 -523.498 0.369921 0.683769 0.156015 -0.609326 
3072 2 -48.0509 585.591 -522.056 -0.626049 -0.720491 0.294864 0.0448386 
3062 2 11.8163 660.252 -522.938 0.676663 0.495535 -0.5237 -0.149368 
3071 2 -43.5469 594.09 -520.133 -0.322793 -0.681778 -0.388174 0.529439 
3063 2 3.42619 655.098 -522.935 0.400229 -0.102967 -0.760879 0.500278 
3064 2 -4.01637 648.649 -524.181 -0.149034 -0.585997 -0.357402 0.711801 
3065 2 -11.5308 642.35 -524.699 -0.696549 -0.613736 0.217244 0.301584 
3066 2 -18.0981 634.964 -523.823 -0.659734 -0.151902 0.594231 -0.434243 
3067 2 -24.3516 627.787 -521.487 -0.0283067 0.422434 0.490258 -0.761837 
3070 2 -40.5007 603.4 -519.097 0.230805 -0.00524467 -0.734924 0.637642 
3069 2 -36.1569 612.299 -519.496 0.712707 0.533401 -0.435447 0.133859 
3068 2 -30.5861 620.487 -519.282 0.563605 0.702364 0.0521581 -0.43164 
3053 2 89.2869 698.9 -530.244 -0.474072 0.376086 0.562868 -0.563023 
3243 2 98.0985 563.135 -524.378 -0.506217 -0.106433 0.696165 -0.497766 
3242 2 102.59 571.909 -525.195 -0.724991 -0.630233 0.277319 -0.0169814 
3237 2 109.231 619.295 -532.69 0.3505 0.22843 0.600677 -0.68129 
3238 2 109.799 609.59 -530.941 0.753461 0.577505 0.236756 -0.206714 
3239 2 110.456 600.007 -528.463 0.63893 0.501888 -0.382652 0.439834 
3240 2 109.785 590.322 -526.603 0.113934 -0.153362 -0.630417 0.752379 
3241 2 105.918 581.239 -525.171 -0.443919 -0.647004 -0.351826 0.510431 
3052 2 99.2027 699.7 -530.04 -0.713575 -0.176437 0.662172 0.145631 
3051 2 108.882 701.095 -531.574 -0.381299 -0.612541 0.258835 0.64219 
3050 2 117.945 701.18 -535.528 0.339316 -0.488596 -0.228603 0.770636 
3049 2 125.985 697.355 -539.93 0.845018 -0.230479 -0.481817 -0.0260146 
3048 2 132.115 692.785 -546.208 0.484355 0.131889 -0.357113 -0.787703 
3037 2 75.0051 766.55 -548.911 0.0768085 0.951064 -0.279772 0.106323 
3038 2 75.9621 765.54 -558.647 -0.03572 0.453927 -0.888888 0.0505291 
3039 2 76.0477 763.93 -568.4 -0.0622316 -0.437337 -0.897041 0.0134393 
3040 2 77.2305 763.084 -578.135 -0.107419 -0.944995 -0.284698 -0.119972 
3041 2 80.312 761.475 -587.314 -0.0357937 -0.793662 0.541776 -0.274406 
3036 2 74.7641 767.068 -539.07 0.027219 0.815853 0.575827 -0.0454509 
3035 2 75.4571 767.052 -529.219 -0.0323878 0.0947571 0.994687 -0.0238748 
3034 2 76.5766 768.889 -519.528 -0.087441 -0.788573 0.608544 0.0134365 
3042 2 83.9754 757.599 -595.641 0.212839 -0.114739 0.889228 -0.388342 
3043 2 88.7093 751.705 -601.967 0.374289 0.678973 0.628918 -0.0580249 
3044 2 92.2141 746.221 -609.366 0.319801 0.906373 -0.121447 0.247925 
3045 2 95.705 739.928 -616.155 -0.000179235 0.470403 -0.794007 0.385064 
3047 3 97.3364 725.746 -566.285 0.240153 0.324766 -0.275406 -0.872356 
3046 1 122.079 713.151 -587.576 0.23102 0.321106 -0.242887 -0.885735 
3016 2 167.65 744.493 -535.717 0.654502 0.096817 0.648651 -0.376172 
3015 2 160.137 750.755 -537.146 0.0774986 -0.461293 0.462304 -0.753311 
3017 2 175.228 738.39 -533.978 0.720349 0.538497 0.273453 0.341088 
3018 2 182.693 732.447 -531.223 0.156492 0.526415 -0.261697 0.79367 
3014 2 151.264 755.177 -537.199 -0.48706 -0.675283 -0.207037 -0.513713 
3013 2 142.941 760.418 -535.48 -0.642921 -0.314072 -0.690268 0.107432 
3012 2 135.676 765.571 -531.172 -0.242106 0.429056 -0.721665 0.486308 
3011 2 130.3 772.522 -526.465 0.337738 0.855733 -0.123769 0.371934 
3010 2 124.404 779.274 -522.336 0.548785 0.515432 0.657603 -0.0269089 
3009 2 118.317 785.351 -517.443 0.304835 -0.0947854 0.874188 -0.365905 
2995 2 20.6007 874.627 -517.823 0.650779 -0.104736 0.683587 -0.313409 
2994 2 11.3644 878.126 -519.032 0.155068 -0.550192 0.352886 -0.740753 
2997 2 39.4251 869.78 -514.896 0.331311 0.634912 -0.068568 0.694563 
2996 2 30.0245 871.622 -517.484 0.734742 0.344074 0.472643 0.344059 
564 2 -7.54418 -680.031 -385.141 -0.40093 0.723611 -0.222152 0.516034 
565 2 1.74024 -676.854 -386.35 -0.740927 0.22436 -0.632478 0.0257361 
566 2 11.1889 -674.007 -385.624 -0.395561 -0.404723 -0.57535 -0.590511 
567 2 20.1264 -669.898 -384.732 0.291653 -0.603268 -0.0358643 -0.741431 
568 2 28.9617 -665.907 -382.766 0.800859 -0.337427 0.408492 -0.27911 
569 2 37.5042 -662.644 -378.747 0.722699 0.055039 0.480089 0.494157 
570 2 44.8899 -659.198 -373.238 0.0844285 0.406211 0.189371 0.889946 
571 2 52.5177 -656.313 -367.517 -0.67418 0.364996 -0.180591 0.616154 
3161 2 241.209 388.016 -448.306 -0.610396 0.575771 0.271314 -0.47148 
3162 2 232.587 392.521 -446.457 -0.0413309 0.615982 -0.205821 -0.759273 
3163 2 223.295 395.577 -445.214 0.563758 0.155066 -0.545731 -0.600258 
3164 2 215.276 400.04 -441.338 0.760481 -0.390075 -0.505148 0.119728 
3160 2 248.696 383.514 -452.91 -0.801138 0.120904 0.531028 0.248131 
3154 1 265.203 389.478 -511.176 0.141698 0.186036 -0.36477 -0.901252 
3159 2 256.859 380.016 -457.117 -0.423732 -0.338149 0.411337 0.73274 
3158 2 265.708 377.396 -460.653 0.368179 -0.56458 -0.0903363 0.733166 
3156 2 282.141 372.648 -470.429 0.717021 0.152345 -0.466561 -0.494967 
3157 2 273.984 375.508 -465.744 0.847687 -0.220976 -0.403858 0.26362 
3248 2 72.4963 523.255 -513.838 -0.522258 -0.410432 -0.140433 0.734214 
3249 2 67.8494 516.752 -507.906 -0.934119 -0.304638 0.183562 -0.0303832 
3250 2 64.184 510.989 -500.769 -0.508686 0.0438545 0.33831 -0.790482 
3261 2 21.2871 431.222 -452.803 0.0606749 -0.0335904 -0.464688 0.882754 
3262 1 53.6576 439.941 -419.589 -0.142389 0.184541 0.858924 0.455982 
3260 2 22.0802 439.432 -458.225 0.743928 0.361739 -0.283368 0.485199 
3259 2 21.1977 447.748 -463.615 0.793812 0.432615 0.263218 -0.336783 
3258 2 22.0484 455.967 -468.986 0.23086 0.177972 0.450565 -0.843813 
3257 2 25.4847 464.456 -472.595 -0.595089 -0.209934 0.506759 -0.58736 
3256 2 29.0947 473.251 -475.286 -0.784958 -0.586643 0.192547 0.0511417 
3255 2 34.8175 480.979 -477.526 -0.381345 -0.55822 -0.242528 0.695807 
3254 2 42.4299 487.062 -479.001 0.293187 -0.333562 -0.573206 0.688631 
3263 3 52.7001 469.794 -437.753 -0.151252 0.211775 0.856295 0.446131 
3253 2 49.1068 493.495 -482.548 0.757391 0.251301 -0.536258 0.275016 
3252 2 55.0273 500.135 -486.972 0.732076 0.515787 -0.0688222 -0.439649 
3310 2 79.8978 503.612 -381.703 0.611751 0.631091 -0.0442491 0.474896 
3311 2 84.9384 495.412 -379.669 0.0286875 0.430742 -0.601713 0.671997 
3309 2 75.3601 512.095 -383.994 0.75485 0.451226 0.419012 -0.225886 
3308 2 71.6157 520.742 -387.099 0.326391 -0.0126004 0.564151 -0.758316 
3251 2 60.0307 506.003 -493.246 0.214169 0.346175 0.255608 -0.876903 
3272 2 70.2626 538.639 -412.205 -0.702323 0.553589 0.317934 0.31496 
3271 2 71.944 529.057 -413.839 -0.217632 0.108428 0.656269 0.714276 
3270 2 74.0421 519.519 -415.025 0.346809 -0.435252 0.509061 0.65661 
3269 2 76.2058 509.971 -416.142 0.740495 -0.660671 -0.104681 0.0649787 
3307 2 66.2449 528.716 -389.518 -0.373686 -0.539099 0.27107 -0.704451 
3268 2 79.4498 500.588 -416.062 0.543101 -0.343913 -0.60975 -0.463649 
3306 2 59.8394 536.094 -391.146 -0.73409 -0.573606 -0.308954 -0.191401 
3267 2 82.0628 491.632 -412.933 -0.0365334 0.330333 -0.751779 -0.569538 
3312 2 90.4416 487.28 -380.101 -0.559252 -0.153717 -0.743451 0.332999 
3266 2 83.963 482.713 -409.161 -0.48923 0.814221 -0.186304 -0.250976 
3265 2 85.3867 474.388 -404.025 -0.405637 0.645387 0.590438 0.265175 
3264 2 87.6425 465.835 -399.647 -0.0713843 -0.0967732 0.848598 0.51519 
3273 2 68.8748 548.339 -410.506 -0.673684 0.637586 -0.125998 -0.351793 
3305 2 53.5506 542.41 -395.593 -0.733785 -0.122147 -0.514824 0.426141 
3304 2 46.6902 547.573 -400.402 -0.066811 0.368229 -0.34857 0.859327 
3149 2 240.824 446.671 -509.521 -0.359672 -0.926912 0.100432 0.0372071 
3313 2 97.7731 480.757 -381.454 -0.541903 -0.715739 -0.360286 -0.253482 
3165 2 206.852 404.664 -438.942 0.382505 -0.535444 -0.00148288 0.752985 
3166 2 198.184 408.01 -435.561 -0.480452 -0.407568 0.318528 0.708233 
3167 2 189.106 408.63 -431.492 -0.863822 0.00539112 0.489329 0.119748 
3168 2 180.618 410.027 -426.576 -0.56132 0.445582 0.363128 -0.595412 
3314 2 105.459 475.213 -384.391 -0.248916 -0.736238 0.393101 -0.491392 
3147 2 242.648 454.651 -491.413 0.0385906 0.0902206 -0.978368 0.182116 
3200 2 164.825 485.453 -505.914 0.0758601 -0.823896 0.557317 -0.0695637 
3146 2 245.311 458.585 -482.695 0.256291 0.813822 -0.521485 0.00785267 
3199 2 162.315 485.785 -496.362 -0.0528249 -0.953063 -0.266531 -0.133571 
3169 2 171.372 411.156 -423.082 0.0639769 0.46627 -0.133163 -0.872219 
3170 2 163.193 412.393 -417.717 0.788288 0.201609 -0.410812 -0.411327 
3171 2 155.423 412.384 -411.591 0.862352 -0.325877 -0.303125 0.241389 
3172 2 149.019 416.099 -404.968 0.279473 -0.344071 0.0514863 0.894908 
3173 2 143.371 418.68 -397.312 -0.518639 -0.205149 0.294176 0.776136 
3198 2 157.784 486.681 -487.493 -0.229258 -0.377354 -0.895797 -0.0509165 
3187 2 191.005 477.821 -389.667 -0.194136 0.132988 0.970549 -0.0515779 
3188 2 187.231 477.317 -398.826 -0.173223 0.818701 0.512341 -0.192948 
3189 2 182.466 477.401 -407.573 0.036589 0.909689 -0.215221 -0.353281 
3190 2 175.825 478.309 -414.851 0.257781 0.362545 -0.879322 -0.170008 
3191 2 170.016 479.388 -422.838 0.173823 -0.536548 -0.818432 0.109868 
3192 2 166.179 479.337 -431.994 -0.00874508 -0.98564 -0.0895819 0.14287 
3197 2 155.18 486.142 -477.94 -0.124203 0.374245 -0.918956 0.00580348 
3174 2 137.032 420.932 -390.083 -0.918522 0.167904 0.356237 0.0349516 
3175 2 130.896 423.5 -382.756 -0.683551 0.202982 0.049423 -0.699367 
3193 2 163.315 479.375 -441.417 -0.172464 -0.645143 0.718941 0.192797 
3194 2 158.812 479.415 -450.209 -0.212077 0.0799579 0.971501 0.0693935 
3195 2 155.074 481.684 -459.052 -0.143716 0.81159 0.566265 -0.00345415 
3196 2 153.177 483.65 -468.571 -0.127073 0.954312 -0.261534 0.0688507 
3316 1 142.769 498.889 -403.211 -0.814389 0.102528 0.379483 0.426909 
3182 3 161.995 453.572 -368.591 0.00823057 -0.383452 -0.919154 0.0897402 
3176 2 126.853 425.379 -373.955 0.0376173 0.102888 -0.190893 -0.975479 
3144 2 247.479 469.813 -466.686 0.122464 0.207226 0.909711 -0.338357 
3145 2 247.677 463.506 -474.362 0.161203 0.899944 0.349504 -0.204844 
3315 2 110.596 467.843 -388.299 0.2205 -0.145396 0.835249 -0.482286 
3148 2 241.95 451.252 -500.733 -0.123624 -0.667159 -0.707171 0.198811 
3186 2 194.525 478.449 -380.479 -0.135587 -0.651885 0.736833 0.117216 
3317 3 124.349 517.146 -379.626 -0.813832 0.0960399 0.370985 0.436834 
3318 2 164.983 540.535 -401.974 0.32906 0.04751 -0.150404 -0.931043 
3319 2 163.296 543.058 -392.574 0.961192 -0.0932773 -0.178916 -0.188145 
3143 2 247.126 475.364 -458.484 -0.168817 -0.601957 0.751651 -0.210166 
3185 2 198.636 477.894 -371.513 0.079755 -0.959742 -0.154584 0.220542 
3320 2 160.213 545.888 -383.555 0.79529 -0.166517 -0.104258 0.573513 
3138 2 241.4 507.598 -422.152 0.273554 0.76103 0.582151 -0.0842756 
3321 2 156.863 548.029 -374.439 0.0270032 -0.301973 0.116186 0.945825 
3322 2 151.189 550.158 -366.669 -0.732662 -0.159763 0.306992 0.586036 
3136 2 240.911 517.205 -404.798 -0.20536 -0.794543 0.557326 -0.12616 
3137 2 240.925 512.638 -413.626 -0.0323851 -0.117496 0.966646 -0.225258 
3141 2 247.441 488.675 -443.971 -0.147327 -0.407723 -0.840368 0.325328 
3140 2 246.153 495.855 -437.219 0.0792614 0.371746 -0.854869 0.353158 
3139 2 243.075 502.514 -430.494 0.301741 0.887327 -0.246428 0.246731 
3184 2 202.117 476.906 -362.222 0.157842 -0.441163 -0.880422 0.0729226 
3135 2 241.052 518.641 -395.055 -0.0596743 -0.97412 -0.216043 0.0292422 
3134 2 243.025 519.677 -385.407 0.0608677 -0.390915 -0.913326 0.0965138 
3177 2 125.431 428.993 -364.905 0.818339 -0.0664846 -0.172069 -0.544329 
3142 2 247.481 481.509 -450.734 -0.344973 -0.932726 -0.0927216 0.0491839 
3133 2 245.093 523.084 -376.239 0.193771 0.393661 -0.893517 0.0954532 
3132 2 246.874 527.654 -367.59 0.264048 0.924779 -0.268612 -0.0539536 
3155 3 248.617 408.587 -486.952 0.107204 0.206291 -0.335236 -0.913 
3131 2 251.7 534.586 -362.44 0.136918 0.704327 0.536684 -0.444013 
3303 2 42.3257 553.901 -406.714 0.722562 0.450217 -0.00486591 0.52458 
3081 2 48.158 604.099 -511.207 0.309984 -0.20154 -0.311745 -0.875275 
3274 2 66.4975 557.794 -408.977 -0.210875 0.367683 -0.551074 -0.71879 
3082 2 49.8045 610.371 -503.668 0.816977 -0.336773 0.0989782 -0.457533 
3275 2 64.0548 567.254 -407.427 0.389942 -0.134128 -0.611204 -0.675562 
3276 2 62.228 576.843 -405.841 0.640055 -0.705373 -0.270796 -0.139455 
3083 2 54.4093 614.854 -496.132 0.905813 -0.177167 0.232662 0.306567 
3084 2 57.6845 619.688 -488.138 0.389413 0.0963453 0.162162 0.901542 
3302 2 38.7564 561.008 -412.669 0.857199 0.29421 0.333026 -0.260276 
3291 2 5.48156 622.004 -492.576 -0.672279 -0.245575 -0.3186 0.621472 
3292 2 7.36147 615.257 -485.645 -0.892309 -0.423073 0.0491874 -0.149585 
3293 2 7.97591 607.449 -479.505 -0.440532 -0.281111 0.30924 -0.79453 
3300 2 28.9726 571.908 -425.786 -0.249907 -0.354525 0.184304 -0.881981 
3299 2 23.3928 575.593 -433.132 -0.888449 -0.286785 -0.230864 -0.274071 
3298 2 19.8845 579.2 -441.703 -0.829264 -0.0633741 -0.286577 0.475582 
3294 2 9.24874 600.463 -472.546 0.399037 0.0756508 0.366321 -0.837171 
3289 1 12.8238 659.653 -465.081 -0.223115 -0.276191 0.384033 -0.852324 
3295 2 11.2582 593.933 -465.348 0.919361 0.328866 0.161002 -0.143879 
3296 2 12.8558 587.863 -457.714 0.669903 0.238282 -0.0350849 0.702297 
3290 3 22.2917 632.953 -444.561 -0.17638 -0.263784 0.382232 -0.867875 
3297 2 15.8232 584.279 -449.021 -0.138632 0.170845 -0.312871 0.923961 
3301 2 34.2479 567.446 -418.721 0.377549 -0.0699423 0.447067 -0.807896 
3288 2 23.3303 680.554 -424.137 -0.140845 0.690654 -0.393365 -0.590274 
3287 2 30.0895 673.676 -421.912 -0.562838 0.730622 0.263258 -0.283019 
3286 2 36.8957 666.89 -419.755 -0.581717 0.292331 0.71709 0.248856 
3285 2 43.982 660.64 -416.701 -0.224068 -0.343135 0.712644 0.569377 
3280 2 57.0053 614.812 -415.277 -0.67469 0.728559 -0.0348439 -0.113057 
3279 2 58.5677 605.376 -412.823 -0.455878 0.552004 0.561019 0.415601 
3278 2 59.1724 596.008 -409.525 0.0132671 -0.0811631 0.815145 0.57339 
3277 2 60.7276 586.588 -407.088 0.411562 -0.681784 0.45559 0.397776 
3282 2 56.4527 634.351 -414.246 0.263928 -0.0839488 -0.696895 -0.661538 
3281 2 55.4648 624.56 -415.793 -0.432499 0.298876 -0.558327 -0.641785 
3284 2 50.1394 653.027 -414.98 0.399611 -0.75747 0.146369 0.495103 
3283 2 54.3523 643.965 -414.784 0.663719 -0.552422 -0.470595 -0.181237 
3085 2 60.8823 622.079 -479.057 -0.407883 0.176749 -0.0343393 0.895104 
3086 2 64.3208 623.132 -469.759 -0.981842 -0.0340983 -0.14764 0.11413 
3087 2 67.2136 622.593 -460.309 -0.682473 -0.135252 -0.114512 -0.709101 
3088 2 70.8744 622.972 -451.126 0.223528 -0.270993 -0.125007 -0.927885 
3089 2 75.2355 626.359 -443.03 0.875466 -0.19548 0.133809 -0.421238 
3090 2 79.3466 628.853 -434.393 0.832795 0.0351679 0.404153 0.376665 
3091 2 85.731 631.219 -427.277 0.267519 0.294453 0.246305 0.883779 
3092 2 92.6331 634.546 -420.905 -0.550133 0.416025 -0.0118643 0.723972 
3104 2 91.3037 569.239 -362.879 0.338432 0.69114 0.573756 0.280346 
3093 2 98.8636 638.611 -414.503 -0.917581 0.275868 -0.281824 -0.0501684 
3094 2 104.146 643.482 -407.715 -0.540235 -0.163181 -0.340417 -0.752087 
3105 2 98.734 567.794 -369.321 -0.0641053 0.880531 -0.267072 0.386302 
3116 2 188.309 581.106 -415.306 0.341986 -0.5979 0.637565 -0.345069 
3115 2 179.578 580.925 -410.797 -0.00340462 -0.852674 -0.0138587 -0.522248 
3114 2 171.194 580.285 -405.601 -0.437752 -0.402838 -0.756364 -0.272046 
3113 2 161.976 581.347 -401.856 -0.511375 0.274672 -0.780672 0.231522 
3112 2 152.423 582.326 -399.291 -0.133489 0.729925 -0.299008 0.599987 
3111 2 143.005 579.131 -399.773 0.316624 0.499147 0.452395 0.667788 
3095 2 109.393 647.448 -400.328 0.253221 -0.198389 -0.14988 -0.93491 
3096 2 112.25 651.401 -391.572 0.881546 -0.100165 -0.00910558 -0.46126 
3097 2 113.177 653.085 -381.753 0.923931 -0.0689465 0.144333 0.347513 
3098 2 114.995 655.047 -372.241 0.341797 0.0763023 0.153057 0.924081 
3099 2 117.509 657.478 -362.976 -0.554503 0.196446 0.034897 0.807909 
3101 3 102.651 610.131 -378.32 -0.138196 -0.98645 0.0149083 -0.0871564 
3106 2 105.728 566.219 -376.161 -0.273283 0.378017 -0.881149 0.0774367 
3107 2 110.976 566.645 -384.516 -0.269059 -0.336865 -0.853213 -0.293524 
3108 2 117.254 569.754 -391.434 0.036169 -0.819576 -0.301066 -0.486155 
3109 2 124.774 573.317 -396.687 0.521436 -0.672584 0.417045 -0.319075 
3110 2 133.202 577.64 -399.506 0.692871 0.0504517 0.715062 0.0779138 
3117 2 196.413 581.035 -421.011 0.447527 0.185118 0.870928 0.0832757 
3118 2 204.586 581.431 -426.551 0.301129 0.756387 0.342313 0.469065 
3119 2 213.951 580.24 -429.594 -0.368035 0.694161 -0.35423 0.507161 
3120 2 223.411 582.345 -431.723 -0.68745 0.184972 -0.696338 -0.091171 
3121 2 232.562 585.982 -432.206 -0.33309 -0.382778 -0.548236 -0.664808 
3122 2 241.515 590.11 -431.469 0.3208 -0.714963 0.0135898 -0.621073 
3128 3 254.054 562.163 -400.7 -0.36695 -0.857617 0.112775 0.342231 
3126 2 277.808 602.188 -423.803 -0.58215 0.514927 -0.274847 0.566048 
3124 2 259.862 596.646 -429.757 0.663471 0.150967 0.598582 0.422747 
3123 2 250.602 594.155 -432.176 0.727491 -0.382954 0.488269 -0.292739 
3125 2 269.059 599.365 -427.45 0.0665791 0.520919 0.215128 0.823366 
3127 1 279.711 578.349 -383.142 -0.353949 -0.851213 0.0756496 0.380043 
3033 2 83.0434 768.774 -512.036 0.0911309 -0.901868 -0.268597 0.325861 
3000 2 62.3569 852.315 -508.767 -0.634728 -0.691745 -0.141062 -0.314184 
3001 2 68.8679 844.809 -508.598 -0.0838352 -0.57571 0.484764 -0.653095 
3002 2 75.5588 837.512 -509.697 0.452352 0.0398866 0.787393 -0.416891 
3003 2 82.1718 830.482 -511.901 0.745596 0.563261 0.356082 0.00541751 
3004 2 87.5634 822.304 -510.634 0.419914 0.649512 -0.152383 0.615293 
2992 1 -9.9963 841.153 -499.024 -0.699776 0.267256 -0.500237 0.434339 
2993 3 22.7358 839.045 -486.885 -0.687059 0.281155 -0.5145 0.429175 
2991 2 -11.2207 803.139 -471.08 -0.424349 -0.236964 0.873883 0.0101952 
2990 2 -3.40534 803.982 -465.137 -0.230078 -0.817682 0.394405 0.350579 
2989 2 3.44827 806.151 -458.382 0.0378076 -0.830093 -0.402326 0.384253 
2988 2 12.1711 808.504 -454.402 0.513388 -0.18863 -0.796477 0.25783 
2987 2 20.7551 812.044 -450.797 0.529333 0.590013 -0.553904 -0.254718 
2986 2 29.1876 817.191 -449.73 0.267932 0.747946 0.0501533 -0.605206 
2985 2 37.1145 823.067 -448.53 -0.234925 0.344334 0.664848 -0.619856 
2984 2 44.8062 829.182 -447.779 -0.607217 -0.160489 0.717007 -0.302376 
2983 2 53.9196 832.959 -448.816 -0.620785 -0.525808 0.411232 0.411144 
2982 2 61.1183 839.539 -450.794 -0.257494 -0.562313 -0.228388 0.751891 
2981 2 67.1143 847.088 -452.995 0.336666 -0.127572 -0.611453 0.704632 
3032 2 88.7819 766.421 -504.328 0.399894 -0.368281 -0.83922 0.0127627 
3031 2 94.0676 762.48 -496.857 0.179184 0.335246 -0.861969 -0.33543 
3005 2 93.5215 814.415 -509.804 -0.218424 0.281868 -0.655599 0.665606 
2980 2 71.5245 855.855 -454.196 0.69574 0.460927 -0.478105 0.273692 
3008 2 112.251 792.18 -513.548 -0.127895 -0.691215 0.452973 -0.548342 
3006 2 99.8776 806.787 -510.09 -0.641319 -0.328173 -0.658724 0.217013 
3007 2 106.984 799.989 -510.62 -0.551053 -0.786306 -0.21539 -0.177963 
3030 2 99.326 757.66 -489.99 -0.139327 0.897251 -0.245899 -0.339208 
3029 2 105.579 755.219 -482.656 -0.309757 0.713362 0.598015 -0.193759 
3028 2 110.61 752.934 -474.32 -0.267133 -0.0234929 0.954543 0.130141 
3027 2 116.428 750.021 -466.909 -0.0435902 -0.768985 0.52574 0.361054 
3026 2 122.252 749.243 -458.831 0.1382 -0.889243 -0.32281 0.293157 
3025 2 130.081 751.214 -453.13 0.428872 -0.232383 -0.849545 0.200851 
3024 2 139.689 752.26 -450.927 0.508048 0.468544 -0.631494 -0.351524 
3023 2 149.25 752.738 -448.818 0.0380506 0.791988 -0.0116761 -0.609238 
3022 2 158.423 755.55 -446.591 -0.333363 0.505606 0.59709 -0.526038 
3019 1 185.347 743.593 -485.431 -0.357771 -0.53881 0.564091 0.513308 
3020 3 151.585 748.938 -493.058 -0.358323 -0.503974 0.610804 0.494503 
3021 2 167.408 759.227 -444.69 -0.613953 -0.131389 0.766359 -0.135989 
2998 2 47.8915 864.998 -512.957 -0.287231 0.308264 -0.489346 0.763552 
2999 2 55.4682 859.273 -510.073 -0.70285 -0.277065 -0.604335 0.253014 
2979 2 74.4913 865.269 -454.069 0.61066 0.729925 0.0952976 -0.291929 
2978 2 78.7057 874.167 -452.656 0.0387554 0.332937 0.70037 -0.630185 
2977 2 83.8105 882.029 -449.32 -0.513861 -0.385357 0.700635 -0.310736 
2976 2 87.4874 891.069 -447.834 -0.622637 -0.757598 0.080161 0.178727 
2975 2 92.7285 899.502 -447.611 -0.199472 -0.556509 -0.484746 0.644616 
2974 2 96.2779 908.768 -446.764 0.276811 0.0487694 -0.728516 0.624709 
2973 2 98.5993 918.444 -445.716 0.595567 0.559595 -0.47683 0.323707 
2972 2 100.331 928.164 -444.398 0.61995 0.706336 0.183829 -0.288025 
2971 2 101.481 937.779 -442.686 0.13296 0.259715 0.722819 -0.626421 
2968 2 100.186 962.638 -426.882 -0.333975 -0.563187 -0.675192 0.339703 
2967 2 98.0499 970.501 -421.362 -0.0368646 0.188432 -0.861478 0.470095 
2970 2 100.511 946.167 -437.657 -0.246314 -0.525329 0.693768 -0.426667 
2969 2 100.284 954.048 -431.755 -0.461751 -0.880271 0.0980495 -0.0479143 
2966 3 109.353 924.396 -400.358 -0.00412817 -0.202869 0.870857 -0.447699 
2949 2 227.599 911.838 -427.484 -0.408939 0.585893 0.32238 -0.620943 
2950 2 217.771 912.425 -426.411 0.32448 0.513298 -0.18931 -0.771621 
2951 2 208.702 912.452 -422.512 0.797945 0.228893 -0.498209 -0.250358 
2952 2 199.644 911.804 -418.532 0.655521 -0.235287 -0.486044 0.527914 
2953 2 190.948 909.577 -414.25 -0.0114479 -0.471637 -0.132704 0.871675 
2954 2 182.858 907.779 -408.818 -0.635416 -0.440981 0.202752 0.600562 
2955 2 175.245 904.528 -403.367 -0.861008 0.0243834 0.44544 -0.24424 
2956 2 167.371 902.76 -397.662 -0.389398 0.3064 0.340574 -0.79906 
2948 2 236.774 912.018 -431.318 -0.796081 0.0724305 0.579497 -0.158716 
2947 2 245.834 912.274 -435.481 -0.603807 -0.393 0.378764 0.580953 
2957 2 159.711 900.549 -391.802 0.239488 0.477156 -0.00781714 -0.845521 
2958 2 151.625 898.429 -386.508 0.799356 0.299125 -0.373252 -0.363644 
2959 2 143.487 896.799 -381.009 0.811052 -0.194903 -0.363275 0.415016 
2965 1 101.759 950.752 -378.663 -0.00527224 -0.298436 0.85449 -0.425154 
2960 2 136.504 897.338 -374.015 0.226033 -0.417133 0.0794049 0.876701 
2961 2 129.869 900.779 -367.476 -0.520625 -0.149997 0.436564 0.718236 
2962 2 123.071 905.487 -361.953 -0.882912 0.222037 0.410692 0.0499736 
2946 2 254.588 909.147 -438.874 0.118101 -0.535391 0.101182 0.830163 
2945 2 262.1 905.908 -444.429 0.740602 -0.402181 -0.253053 0.475104 
2944 2 269.211 905.492 -451.191 0.902365 0.0703765 -0.396765 -0.152848 
2943 2 274.713 905.47 -459.458 0.491881 0.223782 -0.185917 -0.820615 
2942 2 280.862 907.529 -466.967 -0.272696 0.279463 0.230955 -0.891178 
2939 3 281.338 946.251 -442.656 0.171099 -0.0835292 -0.234406 0.953311 
2935 2 289.999 986.397 -426.312 -0.0867918 0.422358 0.869671 0.240318 
2936 2 290.095 991.549 -434.795 -0.288278 0.936646 0.16311 0.113951 
2934 2 293.239 980.579 -418.853 -0.0306158 -0.395213 0.835662 0.380182 
2937 2 290.953 997.283 -442.864 -0.266921 0.668929 -0.669847 -0.180532 
2941 2 284.977 911.69 -474.928 -0.873893 -0.0922803 0.298502 -0.372414 
2940 2 288.304 915.036 -483.616 -0.808823 -0.272154 0.0679605 0.516835 
2938 1 291.301 960.853 -472.848 0.165735 -0.122194 -0.238276 0.949118 
2930 2 299.744 970.814 -381.825 0.0138682 0.737277 -0.670107 -0.0847743 
2931 2 298.088 971.048 -391.633 0.056377 -0.0822411 -0.99416 -0.0412726 
2932 2 296.719 972.42 -401.351 0.167621 -0.812676 -0.555403 -0.0546673 
2933 2 295.441 975.506 -410.678 0.25152 -0.917095 0.242823 0.191601 
2929 2 300.778 969.901 -372.036 -0.0531961 0.973155 0.217806 -0.0519607 
2928 2 302.911 967.63 -362.658 -0.15308 0.375903 0.913337 0.0328585 
562 1 0.345698 -714.843 -354.229 -0.72625 0.535967 -0.40235 0.153021 
592 2 52.1918 -711.028 -250.599 -0.443824 -0.362271 -0.751459 -0.327245 
591 2 42.9787 -713.481 -248.129 -0.572855 0.48611 -0.613917 0.242157 
593 2 61.1383 -709.002 -254.345 0.0560534 -0.803967 -0.207555 -0.554451 
594 2 69.7045 -705.897 -258.216 0.487082 -0.727079 0.387368 -0.28992 
561 2 23.6065 -735.174 -318.56 0.615772 0.615935 -0.491096 0.0165495 
560 2 29.2027 -727.305 -316.271 0.398143 0.766994 0.17639 -0.471263 
559 2 34.0709 -719.827 -312.026 -0.117252 0.358539 0.747086 -0.547325 
563 3 26.0255 -692.024 -347.482 -0.733273 0.541783 -0.397917 0.102196 
558 2 39.2867 -712.025 -309.038 -0.539479 -0.397349 0.699383 -0.248875 
557 2 43.5854 -703.271 -307.525 -0.634311 -0.726099 0.0291596 0.26378 
589 1 31.4364 -672.205 -228.43 -0.0633422 0.85125 0.0911614 0.512886 
556 2 46.5744 -693.841 -306.98 -0.185679 -0.4321 -0.584616 0.661087 
595 2 77.5117 -701.024 -261.665 0.666283 -0.116471 0.703547 0.217999 
555 2 48.6364 -684.242 -308.143 0.303127 0.165746 -0.649271 0.677561 
596 2 86.2776 -696.618 -262.329 0.24373 0.344041 0.511406 0.748796 
554 2 50.6518 -675.164 -311.524 0.785913 0.526484 -0.246976 0.210135 
597 2 93.9206 -690.727 -260.357 -0.474766 0.486131 0.129731 0.722111 
598 2 99.9207 -684.258 -255.861 -0.897934 0.351901 -0.261891 0.0359618 
599 2 104.961 -677.902 -250.325 -0.606641 0.0748926 -0.406291 -0.679195 
600 2 109.328 -672.193 -243.422 0.155357 -0.212367 -0.170094 -0.949649 
601 2 112.739 -668.562 -234.827 0.846908 -0.123952 0.0497589 -0.514691 
602 2 114.503 -666.697 -225.284 0.931068 -0.0949527 0.0937223 0.339576 
534 2 -65.8276 -637.3 -313.208 -0.811096 0.07225 0.580117 -0.0191715 
507 2 -63.5952 -652.698 -251.123 -0.113868 0.557334 0.110456 -0.814992 
535 1 -61.1546 -591.15 -321.586 -0.568254 0.0676547 -0.784837 0.237783 
508 1 -77.4378 -611.635 -232.335 -0.500596 0.129674 -0.850393 -0.0970569 
510 2 -74.1003 -565.114 -225.517 -0.492844 -0.0706301 -0.865927 -0.0478167 