ITEM: TIMESTEP
10000000
ITEM: NUMBER OF ATOMS
4067
ITEM: BOX BOUNDS pp pp pp
-4.6310929470000001e+03 4.6704658980000004e+03
-4.6310929470000001e+03 4.6704658980000004e+03
-4.6310929470000001e+03 4.6704658980000004e+03
ITEM: ATOMS id type x y z c_q[1] c_q[2] c_q[3] c_q[4] 
3019 1 -73.1071 60.8976 -704.037 -0.77224 0.198281 -0.159284 0.582201 
3018 2 -98.1553 33.9604 -674.481 0.209428 0.391559 -0.87845 0.176486 
3020 3 -57.4502 66.1903 -673.176 -0.806328 0.19713 -0.140508 0.53966 
3023 2 -27.2447 91.3802 -698.323 -0.903844 -0.205639 -0.247524 -0.281977 
3025 2 -19.4432 84.6947 -681.808 0.360056 -0.0311864 0.300018 -0.882823 
3026 2 -16.8135 79.8003 -673.589 0.932539 0.248346 0.213344 -0.152249 
3024 2 -22.0532 89.1731 -690.198 -0.467726 -0.214084 0.142509 -0.845631 
3022 2 -33.019 92.1165 -706.339 -0.831508 0.108268 -0.273305 0.471355 
3021 2 -37.9703 90.4875 -714.737 -0.198377 0.278537 0.0492376 0.938424 
3156 2 -192.036 290.658 -668.146 0.930282 -0.24377 -0.107925 -0.251999 
3154 1 -145.381 284.121 -666.628 -0.855615 0.0993063 0.132162 -0.490504 
3017 2 -95.5783 39.1198 -666.419 0.286217 0.929654 -0.221513 -0.068953 
3072 2 -82.0582 23.6282 -641.229 -0.523323 -0.423826 0.662165 -0.328699 
3071 2 -77.7232 32.1575 -638.762 -0.579755 -0.786204 0.117938 0.178486 
3082 2 -97.5792 78.2941 -547.153 0.460394 -0.251971 -0.490045 -0.695992 
3081 2 -98.4928 68.7212 -549.484 -0.197742 0.12614 -0.622674 -0.746501 
3080 2 -99.0208 58.9754 -551.266 -0.714921 0.593141 -0.231512 -0.288917 
3079 2 -96.2909 49.4352 -550.702 -0.641459 0.622145 0.41358 0.174404 
3078 2 -92.7265 40.2694 -549.401 -0.258657 0.0443518 0.770905 0.580374 
3077 2 -90.3541 30.5766 -549.153 0.34584 -0.465377 0.535277 0.614245 
3076 2 -87.8152 21.0369 -550.008 0.737229 -0.66468 -0.0234879 0.118924 
3074 3 -84.9521 41.5816 -592.628 -0.139229 0.160855 -0.64356 -0.735236 
3075 2 -84.5854 11.7066 -550.184 0.585458 -0.408793 -0.559281 -0.421109 
3073 1 -82.559 6.95063 -597.12 -0.108345 0.160008 -0.634748 -0.748167 
3070 2 -72.2234 39.939 -636.507 -0.115048 -0.556407 -0.531926 0.627877 
3016 2 -94.1964 45.1763 -658.718 0.170001 0.758189 0.578251 -0.248748 
3015 2 -92.009 49.723 -650.249 -0.0980902 -0.0241531 0.969774 -0.22211 
3014 2 -87.8318 54.9657 -642.936 -0.348309 -0.757595 0.55197 0.00774549 
3069 2 -67.1958 47.6785 -632.961 0.376498 0.117883 -0.808072 0.437461 
3013 2 -82.9228 60.9815 -636.814 -0.237446 -0.865994 -0.217935 0.382332 
3012 2 -78.2946 67.0394 -630.463 0.112622 -0.353939 -0.830084 0.415937 
3011 2 -73.7687 71.9711 -623.107 0.341741 0.385515 -0.845521 0.140306 
3010 2 -70.4118 77.7362 -615.786 0.347256 0.917749 -0.162932 -0.102967 
3009 2 -66.2507 83.1016 -608.607 0.059835 0.706482 0.613869 -0.347085 
3068 2 -61.4626 55.0055 -629.655 0.548543 0.701758 -0.44782 -0.0780566 
3008 2 -63.3072 88.9404 -601.192 -0.177906 -0.103594 0.93626 -0.284665 
3083 2 -99.1353 87.165 -543.075 0.82364 -0.540462 -0.159512 -0.0638266 
3027 2 -13.7606 74.4057 -665.886 0.547223 0.34685 -0.0162074 0.761564 
3067 2 -55.3522 61.7681 -625.84 0.282419 0.803734 0.220871 -0.474833 
3066 2 -49.9162 68.535 -621.055 -0.188721 0.250817 0.827272 -0.465936 
3065 2 -43.2871 74.1064 -616.321 -0.456883 -0.461495 0.75929 -0.04194 
3034 2 12.9553 51.302 -608.475 0.575731 0.256315 0.067953 0.773446 
3035 2 17.6119 50.0773 -599.8 -0.199627 0.226641 0.00611418 0.953282 
3036 2 21.9166 50.4087 -590.894 -0.850794 0.00800487 -0.311906 0.422847 
3037 2 27.2298 48.0023 -583.001 -0.829657 -0.183927 -0.108754 -0.515763 
3038 2 31.463 46.4548 -574.202 0.00248383 -0.340486 0.131821 -0.93096 
3039 2 37.406 43.8902 -566.666 0.760377 -0.020348 0.315075 -0.567574 
3064 2 -35.0365 78.1175 -612.77 -0.3126 -0.814513 0.140622 0.468055 
3040 2 42.7472 41.1383 -558.814 0.902646 0.220462 0.27156 0.250763 
3033 2 9.85296 52.5276 -617.758 0.986431 0.0439341 0.15787 -0.00999609 
3032 2 6.58675 52.3296 -627.131 0.639849 -0.129911 0.11588 -0.748524 
3031 2 2.49917 55.6004 -635.501 -0.184048 -0.258337 0.109132 -0.942061 
3030 2 -0.532547 58.7342 -644.383 -0.862105 -0.213464 -0.054071 -0.456382 
3047 3 73.6011 70.931 -564.142 -0.518871 0.205804 0.827329 -0.0628023 
3041 2 48.782 38.3474 -551.545 0.415343 0.404021 0.0959221 0.809355 
3042 2 55.7682 35.6578 -545.029 -0.368417 0.439013 -0.194766 0.795992 
3043 2 64.0607 35.5273 -539.514 -0.893557 0.0760884 -0.420153 0.138703 
3044 2 71.006 35.4731 -532.391 -0.644674 -0.28276 -0.341361 -0.622828 
3045 2 78.7508 35.9371 -526.217 0.148139 -0.435807 0.056584 -0.88596 
3028 2 -8.73689 69.7989 -658.795 -0.168429 0.141977 -0.321586 0.9209 
3029 2 -4.67774 64.2705 -651.583 -0.843984 -0.176904 -0.336917 0.378 
3063 2 -26.8689 82.9029 -609.883 0.0696466 -0.606587 -0.515158 0.60151 
3062 2 -18.6372 86.7071 -605.847 0.531138 -0.0107151 -0.813156 0.237815 
3061 2 -10.7512 89.2655 -600.462 0.40747 0.652725 -0.584859 -0.256629 
3060 2 -1.75039 91.7104 -597.12 0.05597 0.802073 0.150837 -0.575147 
3059 2 7.37738 95.199 -595.379 -0.41802 0.36871 0.662912 -0.499859 
3046 1 104.14 69.741 -547.129 -0.530927 0.179077 0.826399 -0.0557885 
3007 2 -59.8588 95.9514 -595.118 -0.430281 -0.764268 0.478394 -0.0434965 
3084 2 -100.942 96.1471 -539.346 0.485335 -0.452432 0.355379 0.658378 
3085 2 -103.355 105.043 -535.762 -0.242224 0.103868 0.507136 0.82058 
3086 2 -103.327 113.379 -530.504 -0.829822 0.441658 0.205269 0.272393 
3087 2 -103.926 121.579 -524.936 -0.806352 0.359908 -0.137055 -0.448864 
2975 2 -69.1934 243.03 -550.687 0.711695 0.533991 0.451613 -0.0662543 
2976 2 -63.6484 234.879 -550.322 0.428535 0.703071 -0.110074 0.556716 
3088 2 -105.514 128.818 -518.275 -0.216801 0.0197707 -0.308219 -0.926071 
2977 2 -57.2754 227.444 -551.439 -0.0532818 0.419087 -0.668976 0.611554 
3006 2 -57.1737 102.911 -588.532 -0.297534 -0.838469 -0.360362 0.280326 
3058 2 16.4885 97.7633 -592.613 -0.618162 -0.311446 0.716414 0.0873376 
3057 2 25.547 100.079 -589.201 -0.307278 -0.790775 0.229351 0.477131 
2978 2 -51.7406 219.508 -553.738 -0.522225 -0.142699 -0.763479 0.352162 
3005 2 -53.1203 109.45 -582.308 0.0819044 -0.295469 -0.856998 0.414179 
3056 2 35.0024 102.075 -587.225 0.221266 -0.632825 -0.467589 0.576137 
3004 2 -47.5723 113.922 -575.343 0.366649 0.464357 -0.801821 0.0838056 
3055 2 44.7048 104.102 -586.644 0.662412 0.0104544 -0.731178 0.162723 
3003 2 -44.202 118.286 -567.145 0.268418 0.936514 -0.176687 -0.140264 
3002 2 -40.9261 123.677 -559.558 0.147213 0.700579 0.632528 -0.29568 
3054 2 54.3899 105.878 -587.268 0.565237 0.540692 -0.397188 -0.480001 
3053 2 64.1027 107.53 -588.314 -0.00348158 0.668871 0.115632 -0.734322 
3052 2 73.9477 108.246 -588.706 -0.591344 0.331877 0.586497 -0.442935 
3051 2 83.8092 106.713 -588.634 -0.615921 -0.214277 0.676567 0.342028 
3000 2 -34.6186 131.664 -542.733 -0.281941 -0.808583 0.511733 0.069511 
3001 2 -38.4567 127.712 -550.835 -0.146816 -0.093516 0.96637 -0.189287 
2979 2 -44.986 212.547 -555.757 -0.621344 -0.660703 -0.359615 -0.219274 
2980 2 -37.3503 206.215 -557.005 -0.200431 -0.763102 0.314084 -0.528066 
2981 2 -30.5338 200.26 -560.952 0.387264 -0.277592 0.749261 -0.459976 
2982 2 -22.4235 195.305 -563.669 0.508208 0.411398 0.73708 0.17085 
2983 2 -13.4466 193.654 -567.631 0.243941 0.836506 0.125864 0.474245 
2984 2 -4.88996 190.904 -571.719 -0.169455 0.672787 -0.473048 0.543017 
2985 2 3.99247 188.756 -575.169 -0.593272 0.208087 -0.7123 0.312021 
2986 2 13.8191 187.223 -576.327 -0.749855 -0.396408 -0.448916 -0.281163 
2987 2 23.0479 184.715 -573.905 -0.393442 -0.62158 -0.00897531 -0.677319 
2988 2 31.5544 180.068 -572.187 0.324335 -0.28581 0.498897 -0.751147 
2989 2 38.9636 174.146 -569.193 0.705438 0.240689 0.625219 -0.231358 
2990 2 46.0228 167.418 -567.367 0.625732 0.612112 0.208908 0.436045 
2991 2 53.9558 161.78 -565.409 0.091689 0.554155 -0.312244 0.766165 
2993 3 7.46816 157.162 -542.874 -0.07969 -0.791581 0.377233 0.474072 
2999 2 -30.2835 133.962 -534.108 -0.0653228 -0.934007 -0.254977 0.241561 
2992 1 35.5807 147.252 -524.445 -0.153893 -0.755431 0.401644 0.494291 
2998 2 -25.0498 132.923 -525.821 0.287837 -0.356985 -0.885273 0.0774852 
3050 2 93.0857 104.421 -586.015 -0.048947 -0.729245 0.282304 0.621378 
2997 2 -19.4461 133.77 -517.673 0.229267 0.39285 -0.887447 -0.0744565 
3049 2 102.416 102.601 -583.449 0.482963 -0.62704 -0.464646 0.397079 
3048 2 111.869 101.789 -580.906 0.598033 0.0219526 -0.800819 -0.0237142 
3187 2 -267.848 386.723 -546.862 0.301997 0.672696 -0.0852377 0.670084 
3188 2 -259.199 381.96 -545.945 -0.439748 0.480666 -0.473364 0.592881 
3189 2 -249.393 380.75 -545.028 -0.739757 -0.0966489 -0.665883 -0.00424757 
3190 2 -239.752 379.023 -544.093 -0.404189 -0.611496 -0.309932 -0.605513 
3191 2 -230.016 377.126 -543.412 0.198564 -0.585691 0.27069 -0.737743 
3192 2 -220.378 375.398 -542.143 0.705198 -0.137912 0.619565 -0.315937 
3135 2 -218.611 283.437 -526.214 0.153521 0.969811 -0.0502227 0.182691 
3136 2 -215.239 280.135 -534.968 -0.0130794 0.545074 -0.792635 0.272861 
3134 2 -223.514 287.299 -518.556 0.327614 0.575138 0.74959 -0.000689705 
3193 2 -210.774 373.935 -540.197 0.699395 0.428161 0.443985 0.361113 
3186 2 -275.582 392.923 -547.49 0.73403 0.506239 0.443182 0.0922627 
3185 2 -282.353 399.716 -550.131 0.569192 -0.0365068 0.590187 -0.571285 
3137 2 -212.621 276.413 -543.735 -0.297125 -0.324043 -0.885513 0.150267 
2974 2 -75.5705 250.292 -552.82 0.433974 -0.079285 0.625744 -0.643292 
3138 2 -208.05 272.014 -551.411 -0.335022 -0.801372 -0.371577 -0.327862 
3157 2 -192.404 295.916 -659.777 0.728896 -0.223389 -0.00676283 0.647119 
3170 2 -197.045 371.693 -572.987 0.589702 -0.807339 -0.0210008 0.00362673 
2962 2 -163.421 259.852 -518.55 0.499749 -0.272248 -0.816926 -0.0936156 
3194 2 -201.584 371.231 -537.802 0.132891 0.630857 -0.0863734 0.759539 
3171 2 -197.387 381.297 -575.368 0.2687 -0.491325 0.582617 0.589031 
3169 2 -195.469 361.87 -573.041 0.472506 -0.442582 -0.587772 -0.485163 
3166 2 -188.846 335.285 -582.291 -0.822134 0.396295 0.219314 0.344887 
3167 2 -190.085 343.095 -576.218 -0.634585 0.624034 -0.216745 -0.401129 
3168 2 -192.617 352.48 -574.52 -0.063678 0.220279 -0.601425 -0.765317 
3165 2 -190.492 328.383 -589.064 -0.142249 0.154671 0.333745 0.918943 
3158 2 -195.062 298.885 -650.646 -0.0022792 0.0263456 0.134599 0.990547 
3164 2 -191.62 322.879 -597.177 0.659097 -0.152229 0.249745 0.692852 
3163 2 -191.445 318.398 -606.007 0.964581 -0.213382 -0.0365402 -0.15072 
3162 2 -192.64 312.386 -613.722 0.399869 -0.168469 -0.288075 -0.853661 
3161 2 -193.101 308.2 -622.737 -0.462552 0.095238 -0.168243 -0.865257 
3160 2 -194.954 304.749 -631.843 -0.966661 0.152193 -0.115414 -0.17054 
3159 2 -195.496 301.456 -641.089 -0.772576 0.126149 0.0954738 0.614897 
3153 2 -104.175 278.851 -644.3 0.227545 -0.916347 0.109135 -0.310838 
2973 2 -81.9677 257.525 -554.594 -0.226018 -0.541885 0.355807 -0.727102 
3195 2 -192.357 368.007 -536.261 -0.575452 0.327042 -0.481852 0.574211 
2972 2 -86.8345 264.158 -560.178 -0.840222 -0.449107 -0.146497 -0.266213 
2971 2 -89.9835 272.764 -564.163 -0.693209 -0.315945 -0.450601 0.465402 
3139 2 -200.388 269.058 -556.935 0.0808377 -0.813711 0.334443 -0.468494 
2970 2 -93.042 280.986 -568.683 -0.0564567 0.142849 -0.504922 0.849388 
2969 2 -97.6876 288.644 -572.731 0.504371 0.531363 -0.178849 0.656716 
3140 2 -191.97 267.728 -562.085 0.42494 -0.311952 0.79784 -0.292512 
3152 2 -110.467 275.148 -637.565 -0.136428 -0.614342 -0.67926 -0.377595 
3151 2 -113.796 269.552 -630.139 -0.272059 0.243094 -0.893954 -0.260261 
3150 2 -118.407 264.549 -622.982 -0.357541 0.790748 -0.483756 0.113409 
3149 2 -123.721 258.99 -616.741 -0.162758 0.828573 0.367356 0.389905 
3141 2 -183.558 266.183 -567.051 0.460643 0.422629 0.76572 0.151217 
2968 2 -103.283 296.025 -576.383 0.804371 0.499877 0.318664 0.0395385 
2966 3 -127.914 270.156 -543.803 -0.569088 0.0806898 -0.521717 0.630428 
3148 2 -129.99 257.032 -609.37 0.303312 0.31309 0.882922 0.174429 
3147 2 -137.688 256.936 -603.084 0.357054 -0.455971 0.785194 -0.219258 
3155 3 -154.063 287.412 -632.945 -0.866297 0.07036 0.154972 -0.469641 
3146 2 -145.841 257.855 -597.568 0.0348324 -0.880494 0.14794 -0.449033 
2965 1 -150.725 291.119 -559.958 -0.553347 0.0580386 -0.53803 0.633216 
2967 2 -109.416 303.247 -579.216 0.598232 0.103748 0.593525 -0.528283 
3142 2 -175.241 264.769 -572.277 0.0952592 0.889202 0.120752 0.430889 
3143 2 -167.374 264.06 -578.17 -0.244988 0.58417 -0.663646 0.39787 
3144 2 -159.999 262.215 -584.529 -0.39003 -0.132554 -0.90916 0.0611095 
3145 2 -152.534 260.342 -590.731 -0.292811 -0.784922 -0.489856 -0.241248 
3208 1 -66.4263 347.808 -549.282 0.763477 -0.356188 -0.533546 0.0745772 
3209 3 -95.2117 367.556 -546.156 0.757438 -0.359981 -0.543255 0.0397029 
3196 2 -183.109 366.587 -533.113 -0.821949 -0.139742 -0.542566 -0.102443 
3210 2 -63.2177 377.468 -585.865 -0.593895 0.625041 -0.0337951 -0.50544 
2964 2 -177.921 267.083 -529.813 -0.0683805 -0.751683 0.496013 0.429264 
3197 2 -173.83 366.04 -529.918 -0.482866 -0.575493 -0.282665 -0.596447 
3198 2 -164.45 363.83 -527.64 0.207201 -0.466733 0.305087 -0.803834 
2963 2 -171.064 263.788 -523.471 0.312191 -0.835557 -0.32165 0.317682 
3211 2 -69.0818 385.177 -583.491 -0.0344564 0.266514 -0.379328 -0.885378 
3212 2 -73.575 391.808 -577.829 0.587838 -0.159793 -0.452207 -0.651476 
3199 2 -155.407 361.794 -524.11 0.776079 -0.0686496 0.549653 -0.301446 
3172 2 -199.579 390.835 -576.892 -0.208106 0.200081 0.745834 0.600325 
3213 2 -77.0591 399.256 -572.27 0.897331 -0.378488 -0.210746 0.0844384 
3200 2 -146.945 358.806 -519.803 0.753904 0.402344 0.319315 0.409617 
3201 2 -139.222 355.536 -514.436 0.177346 0.647643 -0.0749123 0.737222 
2961 2 -157.098 253.754 -514.041 0.149158 0.401896 -0.747297 -0.50772 
3203 2 -121.325 347.714 -514.038 -0.649822 -0.374904 -0.660944 -0.018204 
3173 2 -200.275 400.417 -579.069 -0.611415 0.720233 0.327326 0.0171228 
3204 2 -112.571 343.352 -516.022 -0.425348 -0.675583 -0.136677 -0.586503 
3205 2 -103.478 339.409 -515.363 0.112322 -0.51035 0.363912 -0.771035 
3184 2 -289.619 405.6 -553.359 -0.0133572 -0.467587 0.310893 -0.827363 
3183 2 -296.483 412.566 -555.176 -0.651425 -0.643255 -0.159603 -0.369316 
3182 3 -247.68 416.71 -572.642 -0.60848 -0.566718 0.0228036 -0.555034 
3180 2 -229.906 456.676 -600.5 -0.71764 0.648102 0.213492 -0.139206 
3179 2 -224.846 448.073 -600.531 -0.522672 0.216049 0.671304 0.479048 
3181 1 -270.514 441.544 -581.824 -0.630023 -0.581479 -0.0432432 -0.512916 
3178 2 -218.417 440.517 -599.981 0.0223723 -0.443918 0.553121 0.704623 
3177 2 -213.665 433.381 -595.069 0.425803 -0.869586 -0.0693631 0.240211 
3176 2 -209.168 426.282 -589.84 0.455013 -0.490913 -0.717032 -0.194506 
3214 2 -81.21 405.495 -565.714 0.571717 -0.341467 0.0433116 0.744758 
3175 2 -206.113 418.265 -584.898 0.0392796 0.217671 -0.840835 -0.494038 
3174 2 -203.724 409.211 -581.73 -0.454037 0.707055 -0.39223 -0.374272 
3215 2 -85.5028 410.31 -558.234 -0.137369 -0.144921 0.274401 0.940655 
3216 2 -89.0267 415.759 -550.773 -0.738566 0.184065 0.410626 0.502022 
3217 2 -93.2644 422.68 -544.971 -0.852129 0.503252 0.100277 -0.102752 
3218 2 -96.3855 431.038 -540.685 -0.507294 0.296033 -0.352574 -0.728497 
3219 2 -97.5325 439.42 -535.491 0.207678 -0.131908 -0.445607 -0.860758 
3220 2 -97.557 447.522 -529.707 0.796743 -0.451051 -0.168482 -0.365194 
3221 2 -97.4692 455.75 -524.115 0.76353 -0.400223 0.29606 0.411329 
3222 2 -95.7538 464.092 -519.12 0.204803 0.0193258 0.486654 0.849029 
3223 2 -93.6823 472.383 -514.06 -0.511618 0.455625 0.317472 0.655641 
3125 2 -242.123 216.148 -465.715 -0.0443185 0.542959 0.158143 -0.823543 
3126 2 -251.136 214.063 -461.965 0.69266 0.420055 -0.367326 -0.456998 
3124 2 -232.434 217.123 -467.866 -0.665965 0.274363 0.566705 -0.400077 
3123 2 -223.591 216.073 -472.166 -0.767552 -0.18816 0.496431 0.359188 
3122 2 -216.176 214.454 -478.43 -0.173268 -0.370342 0.158007 0.89881 
3121 2 -207.728 212.434 -483.152 0.460651 -0.50065 -0.172397 0.712341 
3089 2 -104.676 134.051 -509.914 0.688145 -0.195429 -0.106603 -0.690579 
3090 2 -103.245 137.582 -500.754 0.988895 -0.10911 0.0227043 0.0983213 
3120 2 -198.718 211.187 -487.344 0.8192 -0.224959 -0.472098 0.23543 
3091 2 -102.536 140.268 -491.278 0.554423 0.0520664 0.107133 0.823667 
3092 2 -100.91 142.362 -481.71 -0.274344 0.158109 0.042993 0.94757 
3111 2 -112.911 203.919 -505.027 0.0596912 0.7222 -0.162979 -0.669553 
3112 2 -122.662 205.624 -505.417 0.628115 0.200346 -0.649828 -0.378228 
3095 2 -91.4295 144.81 -453.861 0.0103566 -0.248596 -0.155863 -0.955929 
3094 2 -93.8901 144.813 -463.445 -0.824936 -0.0916347 -0.0800757 -0.55197 
3096 2 -87.2167 147.04 -445.179 0.683491 -0.172601 0.180232 -0.685978 
3097 2 -82.1744 147.237 -436.637 0.941435 0.0499249 0.333011 0.017651 
3093 2 -98.3377 144.076 -472.298 -0.878937 0.126824 -0.171553 0.426562 
3113 2 -132.34 207.475 -504.742 0.717148 -0.294279 -0.544278 0.320718 
3110 2 -103.541 204.464 -501.912 -0.406048 0.564675 0.58794 -0.41303 
3109 2 -94.5685 205.091 -497.842 -0.503225 -0.129772 0.853772 0.0315776 
3108 2 -85.7111 208.368 -494.972 -0.462476 -0.704125 0.312585 0.438879 
3098 2 -75.7951 146.921 -429.023 0.526416 0.366838 0.184389 0.744525 
3119 2 -189.201 209.788 -489.376 0.638345 0.273692 -0.562364 -0.448726 
3099 2 -68.5598 146.541 -422.211 -0.249756 0.396706 -0.162897 0.868165 
3101 3 -67.9394 176.85 -464.25 -0.39997 0.228864 0.873021 -0.159624 
3107 2 -76.4409 211.14 -492.877 0.175516 -0.658619 -0.383475 0.623187 
3106 2 -66.9758 213.367 -490.842 0.549877 -0.18309 -0.761663 0.289799 
3114 2 -141.938 208.416 -502.324 0.228201 -0.603997 -0.160237 0.746616 
3118 2 -179.484 208.572 -491.087 0.0505785 0.625163 -0.117416 -0.769952 
3115 2 -151.492 209.088 -499.865 -0.502259 -0.430843 0.372462 0.650678 
3116 2 -160.74 209.917 -496.38 -0.807614 -0.0630782 0.583393 -0.058604 
3117 2 -169.727 207.966 -492.614 -0.517644 0.512638 0.391621 -0.562032 
2919 2 -129.484 242.613 -377.437 -0.482028 0.712022 -0.502191 0.0920746 
2918 2 -134.263 234.569 -374.271 -0.356339 0.73088 0.318913 0.486962 
2917 2 -138.835 227.017 -369.828 0.0844087 0.333319 0.772962 0.533201 
2958 2 -130.291 244.999 -506.156 -0.545478 -0.29719 0.701784 0.348757 
2957 2 -120.83 244.303 -503.172 -0.112227 -0.81124 0.16854 0.548534 
2959 2 -139.735 246.32 -508.597 -0.586955 0.432924 0.66538 -0.159152 
2916 2 -142.3 219.622 -364.372 0.372465 -0.374727 0.791746 0.306576 
2956 2 -111.481 245.196 -499.912 0.316376 -0.638782 -0.516031 0.474947 
2955 2 -102.369 244.529 -496.119 0.525023 0.0526888 -0.846768 -0.067516 
2954 2 -92.9033 244.281 -493.31 0.318834 0.636561 -0.486533 -0.50638 
2953 2 -83.3138 243.841 -490.845 -0.207201 0.748419 0.279002 -0.564885 
2952 2 -74.0565 244.839 -487.344 -0.505745 0.238684 0.805834 -0.194639 
2951 2 -65.0236 246.282 -483.568 -0.506512 -0.495497 0.651633 0.270743 
3105 2 -57.6604 211.845 -488.022 0.446772 0.387412 -0.72433 -0.354476 
2920 2 -122.886 248.351 -382.031 -0.418127 0.00861303 -0.873494 -0.249205 
3100 1 -41.5776 180.092 -441.455 -0.407577 0.183109 0.8807 -0.157227 
3104 2 -49.1654 210.615 -483.096 0.00480374 0.86265 -0.0779426 -0.499737 
3103 2 -39.9177 210.491 -479.518 -0.393447 0.607073 0.579221 -0.375718 
3102 2 -31.9774 212.912 -474.083 -0.455937 -0.103974 0.870739 -0.152066 
2996 2 -12.6378 133.685 -510.533 0.0536196 0.90253 -0.22567 -0.36282 
2994 2 -0.353671 137.277 -495.484 -0.383416 -0.0524318 0.91913 -0.0737824 
2995 2 -6.72074 134.834 -502.711 -0.114515 0.733447 0.598486 -0.301259 
3128 3 -231.446 255.452 -486.466 -0.354428 0.213613 -0.893339 0.175202 
3127 1 -258.139 260.674 -464.553 -0.367077 0.175633 -0.902934 0.138264 
3129 2 -248.482 304.052 -480.314 -0.0753453 0.721092 -0.645933 0.238999 
3130 2 -243.973 301.771 -488.849 -0.240048 -0.11394 -0.960973 0.0769711 
3131 2 -239.373 300.021 -497.438 -0.249522 -0.818746 -0.502566 -0.121743 
3132 2 -234.159 297.192 -505.44 -0.287505 -0.842886 0.301245 -0.340785 
3133 2 -229.173 291.075 -511.353 0.22651 -0.270594 0.880623 -0.316188 
3202 2 -130.071 352.192 -512.623 -0.41247 0.327925 -0.678267 0.512141 
2960 2 -149.063 249.161 -510.725 -0.301981 0.812942 -0.0167269 -0.497648 
2921 2 -116.007 252.914 -387.493 -0.0494674 -0.666889 -0.576239 -0.469851 
3206 2 -94.7275 335.686 -512.882 0.716341 -0.0363695 0.575945 -0.392199 
3207 2 -86.143 331.857 -509.475 0.734061 0.473414 0.334639 0.353625 
2922 2 -109.088 257.912 -392.5 0.388679 -0.854998 0.119583 -0.321881 
2923 2 -103.008 263.765 -397.609 0.509642 -0.415965 0.707893 0.257151 
2924 2 -97.5175 271.55 -400.332 0.257251 0.381284 0.706303 0.538127 
2925 2 -89.7587 277.042 -402.601 -0.304133 0.779271 0.0280744 0.547221 
2926 2 -82.3836 282.986 -405.328 -0.49402 0.588524 -0.627676 0.124931 
2927 2 -74.8608 287.813 -409.454 -0.425457 -0.0137866 -0.851183 -0.307056 
2928 2 -67.7833 292.906 -413.959 -0.0416367 -0.617095 -0.54494 -0.566127 
2929 2 -59.9297 297.655 -417.602 0.44593 -0.804281 0.184621 -0.346689 
2950 2 -56.1812 248.768 -479.778 -0.0718726 -0.819727 -0.125466 0.554202 
2930 2 -52.7523 303.363 -421.282 0.533353 -0.448524 0.705799 0.127312 
2948 2 -37.3618 252.263 -474.911 0.628313 0.278187 -0.723225 -0.069137 
2949 2 -46.7519 249.89 -476.937 0.390732 -0.519859 -0.624668 0.432278 
2947 2 -27.5599 253.471 -473.742 0.360101 0.676087 -0.299414 -0.568845 
2946 2 -17.6912 253.297 -474.491 -0.318975 0.608461 0.250043 -0.682282 
2945 2 -7.86216 252.711 -476.082 -0.738672 0.216234 0.607084 -0.197625 
2932 2 -39.4512 315.512 -429.323 -0.257751 0.808263 0.304723 0.432921 
2931 2 -46.3466 309.553 -425.51 0.289321 0.222091 0.793161 0.487714 
2944 2 1.70529 254.781 -474.824 -0.583381 -0.44387 0.603208 0.314303 
2943 2 11.0748 256.405 -472.106 -0.170019 -0.795846 0.10068 0.572351 
2942 2 19.5347 258.895 -467.654 0.282862 -0.556766 -0.655958 0.423933 
2941 2 27.4993 261.724 -462.532 0.529959 0.203848 -0.823124 0.00756012 
2940 2 36.33 265.306 -460.323 0.463408 0.702604 -0.318306 -0.436213 
2938 1 24.0126 310.403 -454.237 -0.00804494 0.648313 0.309915 -0.695398 
2939 3 -6.76149 294.041 -457.794 -0.0429398 0.661394 0.329812 -0.672264 
2934 2 -26.9058 328.763 -436.788 -0.422413 0.182402 -0.84409 -0.275335 
2936 2 -14.0605 340.208 -446.525 0.361041 -0.851021 0.106415 -0.366182 
2937 2 -7.26269 345.613 -451.055 0.496954 -0.46752 0.726831 0.0786028 
2933 2 -33.4669 322.023 -433.839 -0.598312 0.693976 -0.378745 0.130279 
2935 2 -21.0543 334.711 -442.039 -0.0837935 -0.601108 -0.610777 -0.508526 
3224 2 -91.248 481.191 -510.164 -0.886432 0.408043 -0.210795 0.05748 
3225 2 -87.0386 488.243 -504.651 -0.634963 0.00822988 -0.489395 -0.597702 
3226 2 -80.7384 494.145 -499.755 0.00969671 -0.440575 -0.277775 -0.853605 
3250 2 -127.358 546.505 -393.287 0.615206 0.354534 0.12449 -0.693058 
3251 2 -130.965 540.847 -386.088 0.957938 0.156275 -0.238778 0.0302843 
3252 2 -135.158 537.377 -377.728 0.67691 0.0307409 -0.345755 0.649078 
3253 2 -139.446 532.734 -370.041 -0.0731951 -0.176374 -0.409306 0.89219 
3254 2 -141.782 525.31 -364.071 -0.719697 -0.425813 -0.11353 0.536499 
3227 2 -73.1229 498.791 -495.423 0.663031 -0.4012 0.229499 -0.588862 
3228 2 -65.5215 501.306 -489.659 0.898586 -0.0699685 0.40185 0.161753 
3229 2 -58.3782 504.694 -483.765 0.47733 0.236875 0.348757 0.770983 
3236 3 -58.2138 551.307 -470.829 -0.617473 -0.242115 0.746857 -0.0480853 
3249 2 -124.836 552.969 -400.317 -0.111122 0.0736449 0.401908 -0.905924 
3230 2 -50.9694 507.871 -477.897 -0.237444 0.491255 -0.000642197 0.838027 
3231 2 -42.778 510.119 -472.821 -0.849566 0.312229 -0.37732 0.195912 
3232 2 -35.32 514.334 -467.904 -0.707193 -0.131611 -0.485709 -0.496632 
3233 2 -27.1038 517.15 -462.988 -0.00885867 -0.445152 -0.1682 -0.879471 
3234 2 -19.365 519.532 -457.365 0.635167 -0.417112 0.245426 -0.601952 
3248 2 -121.755 560.393 -406.088 -0.827867 -0.319255 0.320596 -0.331557 
3247 2 -117.051 566.061 -412.869 -0.751492 -0.385998 0.0374967 0.533722 
3246 2 -112.461 568.516 -421.291 -0.0577558 -0.271908 -0.154825 0.948029 
3245 2 -107.813 570.1 -429.816 0.745839 -0.0698034 -0.219551 0.625019 
3244 2 -104.518 572.418 -438.732 0.962274 0.174346 -0.132359 -0.161597 
3243 2 -98.7122 575.386 -446.166 0.426775 0.351307 0.026361 -0.832918 
3242 2 -92.4307 579.865 -452.422 -0.312298 0.201398 0.355862 -0.857479 
3241 2 -85.8823 585.346 -457.461 -0.830858 -0.194047 0.478897 -0.206586 
3240 2 -79.6282 591.31 -462.323 -0.696427 -0.521601 0.102716 0.482049 
3239 2 -71.5427 595.671 -465.922 0.108827 -0.447742 -0.339782 0.819897 
3238 2 -63.03 599.392 -469.324 0.716894 -0.0234608 -0.593114 0.36569 
3237 2 -54.4059 603.022 -472.578 0.75085 0.432398 -0.376547 -0.327823 
3235 1 -27.9824 565.81 -460.668 -0.595532 -0.262461 0.758323 -0.0374593 
645 2 362.923 -280.003 -243.507 0.223511 0.430612 -0.651002 0.583792 
646 2 364.941 -289.321 -245.867 -0.339656 -0.245836 -0.731245 0.538032 
647 2 367.405 -298.781 -247.641 -0.687106 -0.634474 -0.349781 0.0545989 
648 2 371.126 -307.863 -247.744 -0.449134 -0.589477 0.35997 -0.56676 
649 2 374.212 -317.239 -247.472 0.220123 -0.0583335 0.611919 -0.757429 
650 2 377.917 -326.015 -244.776 0.801477 0.278217 0.458559 -0.264486 
651 2 384.008 -332.501 -240.494 0.760668 0.376689 0.0626877 0.524938 
652 2 388.974 -337.703 -233.615 -0.0110252 0.319166 -0.258176 0.911788 
653 2 394.711 -342.108 -226.812 -0.70277 -0.0297336 -0.364999 0.609923 
654 2 399.677 -346.842 -219.635 -0.928123 -0.286593 -0.20953 -0.112025 
643 1 400.138 -263.368 -219.708 0.328923 0.54816 -0.471308 0.607618 
655 2 404.325 -351.621 -212.342 -0.536602 -0.340289 0.128667 -0.761385 
644 3 407.885 -297.29 -223.896 0.337095 0.508718 -0.501704 0.61308 
633 2 442.255 -351.419 -216.618 -0.624379 0.65326 -0.366515 -0.221514 
637 2 447.821 -312.888 -212.562 0.642779 -0.41614 0.426746 0.481196 
634 2 444.094 -341.792 -217.877 -0.215776 0.132636 -0.666168 -0.701476 
636 2 445.844 -322.429 -214.534 0.72585 -0.648475 -0.0615353 -0.220985 
635 2 444.932 -331.894 -217.264 0.394965 -0.308354 -0.467866 -0.728026 
638 2 449.186 -303.409 -210.077 -0.015052 0.0611246 0.561068 0.825373 
632 2 441.178 -360.327 -212.509 -0.49606 0.807768 0.258283 0.186345 
2915 2 -143.863 211.913 -358.347 0.42525 -0.884849 0.189248 -0.0197308 
2911 1 -110.6 216.093 -314.619 0.402259 -0.887954 0.0650365 0.213297 
2913 2 -142.356 197.901 -344.39 0.119948 -0.0613551 -0.916367 -0.376987 
2914 2 -143.627 204.632 -351.65 0.320633 -0.731006 -0.56441 -0.210396 
2912 3 -121.5 244.026 -332.582 0.436167 -0.875463 0.0268577 0.206404 
2910 2 -86.9924 251.669 -294.644 0.270881 -0.181091 0.481349 -0.813715 
2909 2 -92.8575 258.119 -299.156 -0.410209 -0.481317 0.18394 -0.752482 
2908 2 -98.4711 265.548 -302.543 -0.801864 -0.525318 -0.22367 -0.176142 
2895 2 -103.74 363.071 -253.435 -0.418875 -0.682021 0.595413 -0.0698118 
2892 2 -96.4633 385.23 -235.441 0.337156 0.298718 -0.844901 0.288506 
2894 2 -101.884 371.159 -248.005 -0.406631 -0.864692 -0.20462 0.212344 
2893 2 -100.273 378.447 -241.549 -0.0852728 -0.408713 -0.809306 0.413166 
2899 2 -118.128 338.035 -280.054 0.353513 0.447295 -0.776016 0.269733 
2896 2 -107.792 356.026 -259.028 -0.216853 -0.0165344 0.916411 -0.335995 
2897 2 -111.686 350.196 -265.93 0.105194 0.639851 0.667377 -0.366241 
2898 2 -115.199 343.862 -272.644 0.33832 0.929564 -0.0493455 -0.137893 
2891 2 -91.3963 391.487 -229.621 0.451177 0.826551 -0.314513 -0.119728 
2900 2 -121.579 330.91 -285.966 -0.0601406 -0.419219 -0.812722 0.400151 
2901 2 -123.714 323.993 -292.671 -0.395245 -0.852562 -0.287905 0.184474 
2902 2 -124.578 316.097 -298.663 -0.489433 -0.717984 0.365787 -0.333397 
2903 2 -123.027 306.808 -301.681 0.007388 -0.160266 0.737034 -0.656537 
2904 2 -121.012 297.227 -302.929 0.580242 0.438978 0.617623 -0.298595 
2905 2 -116.623 288.568 -304.779 0.666059 0.693385 0.0780517 0.26361 
2906 2 -111.535 280.104 -304.938 0.161782 0.428365 -0.438749 0.773194 
2907 2 -105.998 272.107 -302.971 -0.547554 0.0231745 -0.717994 0.429107 
2890 2 -85.2058 398.378 -226.18 0.18086 0.760719 0.334617 -0.525954 
2799 2 -371.847 484.636 -225.526 0.0965051 -0.635326 0.0197519 0.765936 
2800 2 -381.469 485.742 -223.405 -0.606671 -0.304246 0.4952 0.542366 
2801 2 -390.912 487.055 -220.578 -0.747087 0.150988 0.624253 -0.171383 
2802 2 -400.65 486.933 -218.775 -0.359737 0.560754 0.300754 -0.682416 
2804 3 -370.675 529.281 -218.32 0.474958 0.0441516 0.876721 -0.0618473 
2798 2 -362.104 486.299 -226.597 0.574423 -0.302732 -0.61661 0.445179 
2832 2 -229.204 531.904 -352.41 -0.881989 -0.0878226 -0.170386 -0.430525 
2829 2 -258.491 450.069 -322.694 0.373192 0.74531 0.550549 0.0462262 
2830 1 -240.669 486.443 -346.938 -0.916518 0.142569 0.170765 0.332428 
2833 2 -225.609 532.619 -343.154 -0.10389 -0.195999 -0.110505 -0.968803 
2828 2 -263.141 455.025 -315.468 0.239891 0.00318884 0.938155 -0.249612 
2827 2 -266.743 458.508 -306.855 -0.0399109 -0.745977 0.621662 -0.235503 
2826 2 -269.612 464.498 -299.493 -0.365609 -0.91252 -0.158047 -0.0930496 
2825 2 -271.106 471.598 -292.727 -0.256034 -0.485012 -0.784484 0.289474 
2816 2 -314.561 536.935 -262.359 0.267568 0.876323 0.0889931 0.39057 
2817 2 -307.841 532.261 -267.906 -0.0107051 0.51259 -0.680578 0.523403 
2818 2 -302.084 525.632 -272.469 -0.502452 -0.097624 -0.817065 0.265362 
2819 2 -294.699 520.093 -276.096 -0.649747 -0.634011 -0.35047 -0.230283 
2820 2 -287.168 513.711 -277.323 -0.215744 -0.692577 0.379199 -0.574456 
2821 2 -281.116 506.104 -279.312 0.21292 0.0204489 0.793285 -0.570041 
2822 2 -277.325 497.263 -281.772 0.588436 0.634821 0.472259 -0.166482 
2823 2 -273.862 488.206 -283.479 0.546266 0.738876 -0.261632 0.295303 
2824 2 -272.228 478.787 -286.164 0.0405035 0.232128 -0.885319 0.400858 
2831 3 -246.356 500.086 -315.194 -0.89633 0.13286 0.137279 0.400118 
2815 2 -320.726 542.236 -256.712 0.467672 0.565043 0.679356 -0.0220251 
2814 2 -326.834 547.14 -250.587 0.216264 -0.265594 0.851749 -0.396502 
2834 2 -221.597 534.04 -334.234 0.653117 -0.138478 0.261326 -0.697116 
2794 2 -325.712 499.093 -233.058 -0.649903 -0.0855513 0.720304 -0.226868 
2795 2 -334.776 495.141 -233.496 -0.300893 0.491046 0.363483 -0.732268 