ITEM: TIMESTEP
10000000
ITEM: NUMBER OF ATOMS
4067
ITEM: BOX BOUNDS pp pp pp
-4.6310929470000001e+03 4.6704658980000004e+03
-4.6310929470000001e+03 4.6704658980000004e+03
-4.6310929470000001e+03 4.6704658980000004e+03
ITEM: ATOMS id type x y z c_q[1] c_q[2] c_q[3] c_q[4] 
2319 2 -20.2347 214.696 -863.801 0.147939 0.0957864 -0.328739 -0.927831 
2320 2 -22.6229 221.037 -856.576 0.779988 -0.20665 -0.382203 -0.450373 
2321 2 -26.7114 227.852 -850.682 0.82882 -0.450822 0.100105 0.315905 
2317 1 7.60785 241.304 -890.976 -0.475121 0.150212 -0.220752 -0.83843 
2322 2 -28.7328 235.602 -844.817 0.361171 -0.206091 0.356764 0.836541 
2323 2 -29.6164 243.173 -838.534 -0.333814 0.27177 0.35776 0.828684 
2351 2 -84.9615 354.583 -841.688 -0.941728 -0.00376718 -0.171844 0.289143 
2350 2 -86.6084 356.494 -851.223 -0.369247 0.0333788 -0.118312 0.921165 
2349 2 -88.1585 362.132 -859.289 0.378084 0.186587 -0.22187 0.879211 
2348 2 -88.9656 368.522 -866.681 0.886839 0.351051 -0.080082 0.289599 
2347 2 -90.3514 375.479 -873.487 0.750468 0.332963 0.282418 -0.496159 
2346 2 -92.5939 380.66 -881.591 0.237725 -0.0816113 0.281391 -0.926092 
2352 2 -81.7768 354.225 -832.354 -0.831007 -0.105786 -0.172956 -0.518 
2353 2 -77.9103 353.642 -823.253 -0.156014 -0.127604 0.0356894 -0.978827 
2324 2 -28.0305 250.345 -831.993 -0.853876 0.479917 0.116975 0.163989 
2345 3 -51.1318 384.229 -850.611 0.47656 0.363755 -0.314012 0.736185 
2318 3 6.5531 258.98 -860.846 -0.495151 0.151639 -0.179327 -0.836465 
2316 2 36.1637 277.949 -899.116 0.00702339 0.0310627 0.974771 -0.220923 
2315 2 36.4335 281.947 -889.987 -0.157843 -0.694167 0.688025 -0.140856 
2314 2 37.4947 286.138 -881.111 -0.228081 -0.966893 -0.0720825 0.0888922 
2313 2 38.6103 289.371 -871.743 -0.0150049 -0.504145 -0.844135 0.181796 
2312 2 37.9165 289.658 -861.891 -0.0283126 0.360052 -0.932439 0.0108949 
2311 2 37.5455 289.402 -851.94 -0.00040925 0.952106 -0.303577 0.0365428 
2310 2 36.8573 287.264 -842.348 -0.0781898 0.833582 0.535039 0.112968 
2309 2 38.4078 285.529 -832.791 -0.0661743 -0.0219427 0.993972 0.0846069 
2308 2 40.6143 284.823 -823.13 -0.0491496 -0.799596 0.59106 0.0942217 
2325 2 -28.1176 258.683 -826.499 -0.650561 0.490395 -0.446295 -0.370275 
2259 2 87.6589 294.955 -828.365 -0.0864939 0.667843 0.728519 0.125559 
2326 2 -26.419 268.4 -825.492 -0.105385 -0.000392614 -0.689045 -0.717016 
2327 2 -25.1955 278.225 -824.658 0.491321 -0.571431 -0.398333 -0.522877 
2328 2 -23.4918 287.944 -824.301 0.647458 -0.717461 0.236617 0.100302 
2329 2 -22.147 297.626 -825.61 0.317684 -0.267967 0.716774 0.559916 
2336 2 -12.8574 362.994 -840.186 0.316684 9.84421e-05 0.61885 0.718843 
2337 2 -9.71709 372.005 -837.824 -0.373045 0.482576 0.501141 0.613853 
2260 2 87.8017 298.378 -837.644 -0.130387 0.989503 -0.0603337 0.0155833 
2338 2 -7.35392 381.675 -837.316 -0.643115 0.763512 -0.0205765 -0.0550384 
2332 2 -17.5954 325.824 -833.239 -0.400569 0.614493 -0.537828 -0.415554 
2335 2 -16.1222 353.802 -841.751 0.715571 -0.530201 0.391773 0.230996 
2333 2 -18.4227 335.126 -836.673 0.121562 -0.175517 -0.797831 -0.563811 
2334 2 -18.5055 344.349 -840.153 0.525583 -0.713103 -0.263378 -0.38194 
2330 2 -20.5164 307.267 -827.385 -0.164044 0.386102 0.660305 0.622906 
2331 2 -18.22 316.636 -829.524 -0.562722 0.797275 0.152413 0.15642 
2261 2 88.1098 299.905 -847.336 -0.125926 0.580322 -0.803764 -0.0365098 
2262 2 89.7358 301.826 -856.953 -0.0662252 -0.208159 -0.97097 -0.0974769 
2339 2 -7.93478 391.384 -839.143 -0.34072 0.537389 -0.516713 -0.572827 
2258 2 88.5541 290.656 -819.447 -0.0215324 -0.169477 0.956309 0.237247 
2265 2 179.347 313.681 -840.733 0.0214844 -0.034309 -0.298193 0.953647 
2266 2 178.792 307.611 -832.941 -0.745982 -0.359263 -0.189772 0.527662 
2263 1 135.308 313.925 -857.64 0.624907 0.229309 0.168338 -0.727029 
2264 3 132.834 294.128 -828.94 0.646484 0.255759 0.188927 -0.693508 
2267 2 178.21 300.594 -826.041 -0.878483 -0.293331 0.195474 -0.322512 
2344 1 -60.4914 412.721 -868.647 0.460024 0.379471 -0.311834 0.739688 
2340 2 -10.4105 400.974 -840.099 0.300186 -0.0540012 -0.779725 -0.546811 
2343 2 -23.0655 427.534 -844.055 -0.0687001 -0.231177 0.720523 0.650142 
2342 2 -18.9873 418.485 -842.947 0.502491 -0.722881 0.202485 0.428889 
2341 2 -14.1591 409.878 -842.309 0.679915 -0.588321 -0.427289 -0.0949655 
2155 1 310.029 30.5506 -676.693 -0.784034 0.0443887 -0.0943012 -0.611906 
2154 2 356.436 37.1622 -671.231 0.0367827 -0.149264 -0.982047 -0.10932 
2289 2 21.6025 178.496 -764.965 -0.492422 0.0109464 0.627071 -0.603476 
2288 2 28.1138 185.634 -767.014 -0.770266 -0.48837 0.408695 0.0339535 
2287 2 35.8115 191.379 -769.369 -0.416385 -0.620364 -0.013186 0.664528 
2290 1 23.0196 193.265 -720.155 -0.285925 -0.0644892 -0.856061 -0.425732 
2286 2 44.4906 195.446 -772.1 0.262565 -0.446699 -0.441171 0.732726 
2285 2 52.9403 199.793 -774.985 0.74854 0.101519 -0.592409 0.280059 
2284 2 60.5039 204.736 -778.99 0.723079 0.486073 -0.249927 -0.422405 
2283 2 67.181 211.019 -782.545 0.200806 0.517805 0.264109 -0.788544 
2282 2 74.7423 217.353 -783.216 -0.425597 0.18801 0.631202 -0.620567 
2291 3 37.6679 219.765 -737.799 -0.253318 -0.081597 -0.88813 -0.374696 
2281 2 81.898 223.715 -785.625 -0.757238 -0.336966 0.5404 -0.144954 
2292 2 34.9569 223.601 -686.07 0.108598 -0.485176 -0.755667 -0.426355 
2293 2 37.7567 231.162 -691.821 0.404466 -0.871298 -0.124334 -0.248573 
2294 2 40.6393 238.938 -697.21 0.435244 -0.641741 0.613421 0.149821 
2240 2 79.9532 234.465 -682.253 -0.576246 0.544449 -0.482378 -0.372597 
2241 2 81.6694 244.161 -682.869 -0.168226 -0.0888097 -0.760732 -0.620564 
2239 2 79.1145 224.569 -681.774 -0.655124 0.717316 0.0826649 0.222345 
2238 2 78.9045 214.86 -679.859 -0.24759 0.352969 0.703068 0.565516 
2280 2 89.7365 229.12 -788.441 -0.57209 -0.580748 0.110913 0.568457 
2295 2 44.0434 246.344 -702.854 0.0404713 0.19618 0.936353 0.288303 
2279 2 98.4132 233.63 -789.757 0.110138 -0.535456 -0.380653 0.745828 
2278 2 106.313 238.643 -792.799 0.681871 0.0364427 -0.586547 0.43553 
2236 1 106.054 201.053 -715.895 0.440486 -0.265806 0.642989 0.567348 
2235 2 135.744 208.795 -751.746 0.324045 0.308006 -0.732791 0.512976 
2234 2 137.031 218.13 -748.731 0.596247 0.74259 -0.281229 0.118156 
2233 2 141.038 226.323 -744.774 0.344953 0.72334 0.39744 -0.447021 
2232 2 147.13 233.027 -740.65 -0.247113 0.270557 0.797574 -0.479177 
2231 2 151.354 239.402 -734.486 -0.368449 -0.44303 0.7991 -0.171489 
2237 3 113.135 235.285 -713.19 0.428368 -0.274227 0.634499 0.581989 
2230 2 154.741 245.57 -727.56 -0.35653 -0.917754 0.135082 0.111205 
2277 2 114.178 242.239 -797.608 0.796893 0.394129 -0.354132 -0.290198 
2276 2 123.075 245.354 -800.739 0.127271 0.569089 0.0597564 -0.810166 
2354 2 -75.8135 351.955 -813.743 0.696788 -0.000985003 0.236804 -0.677059 
2355 2 -72.6637 348.281 -805.061 0.975687 0.188145 0.0793456 0.0796307 
2356 2 -71.0968 344.769 -795.951 0.506509 0.260972 -0.0899179 0.816858 
2359 2 -63.7811 331.253 -770.789 -0.803928 -0.319541 0.0735986 -0.496162 
2360 2 -61.8574 324.92 -763.535 -0.179808 -0.176457 0.35736 -0.899347 
2357 2 -68.1244 341.418 -787.177 -0.274839 0.0511659 -0.299779 0.912128 
2358 2 -65.8932 336.766 -778.785 -0.895394 -0.256751 -0.209002 0.29777 
2361 2 -59.5114 318.287 -756.598 0.566258 0.148933 0.501258 -0.637112 
2296 2 45.9798 251.891 -710.758 -0.26612 0.831641 0.469992 0.12908 
2242 2 85.23 253.048 -685.22 0.344672 -0.665589 -0.504895 -0.428104 
2243 2 87.8047 261.803 -689.144 0.536582 -0.780626 0.297408 -0.119381 
2307 2 42.1656 282.091 -813.714 0.15194 -0.945842 -0.286298 0.0181734 
2257 2 92.3245 288.286 -810.658 0.0425329 -0.896499 0.388746 0.208225 
2362 2 -56.0986 310.113 -752.224 0.85054 0.442781 0.283768 0.00168801 
2363 2 -51.4803 302.492 -748.046 0.534825 0.472274 -0.117981 0.690652 
2384 2 -25.241 339.509 -698.066 0.8724 0.290966 -0.117256 0.374844 
2364 2 -46.3061 295.973 -742.761 -0.270282 0.184717 -0.544084 0.772529 
2365 2 -40.0486 288.874 -739.58 -0.754751 -0.216986 -0.578381 0.220781 
2306 2 43.5241 280.437 -804.084 0.108872 -0.359018 -0.924381 -0.0690798 
2366 2 -33.0923 282.362 -736.928 -0.56325 -0.641127 -0.289389 -0.433542 
2367 2 -24.0538 278.057 -736.864 0.0207227 -0.711112 0.355588 -0.606174 
2370 2 3.21931 267.855 -741.707 0.227218 0.767192 0.0116219 0.599712 
2368 2 -15.4027 273.802 -739.155 0.571019 -0.138581 0.723356 -0.362614 
2369 2 -6.12656 270.753 -740.305 0.577701 0.539312 0.54531 0.279357 
2372 3 -8.63761 316.69 -754.6 -0.782733 0.208493 0.572938 0.124911 
2371 1 23.065 304.76 -763.45 -0.793386 0.18758 0.559874 0.147967 
2382 2 -24.0134 349.153 -715.264 0.187979 0.114457 0.302615 -0.927355 
2381 2 -22.8508 353.662 -723.982 -0.636533 -0.0854359 0.212101 -0.736573 
2380 2 -21.2563 357.306 -732.998 -0.978749 -0.180052 0.0841877 0.0504397 
2379 2 -18.5839 359.409 -742.368 -0.620354 -0.15781 0.0465375 0.766871 
2378 2 -13.3771 360.902 -750.646 0.123566 -0.278093 -0.0726722 0.949797 
2373 2 24.0227 349.634 -778.061 -0.808271 0.30894 0.490324 -0.104099 
2374 2 15.624 353.889 -775.017 -0.542878 0.515945 0.0733314 -0.658564 
2375 2 7.68983 358.261 -770.941 0.193025 0.430319 -0.234223 -0.850122 
2376 2 0.020065 360.817 -765.234 0.861535 0.122372 -0.36886 -0.326688 
2377 2 -6.8119 360.876 -758.008 0.832064 -0.173064 -0.306555 0.428652 
2297 2 45.7378 257.359 -718.896 -0.150836 0.948482 -0.273406 -0.0536694 
2298 2 45.4107 260.636 -728.262 -0.0311535 0.435899 -0.897743 -0.0554852 
2299 2 45.1299 262.363 -737.923 0.0850921 -0.272909 -0.956876 -0.0516494 
2300 2 43.9976 264.017 -747.668 0.144105 -0.942422 -0.301414 -0.0149631 
2301 2 43.3909 266.651 -757.202 0.152465 -0.755764 0.633522 0.0649975 
2305 2 45.3326 279.761 -794.403 0.0532373 0.536217 -0.840688 -0.0536761 
2302 2 44.1668 270.383 -766.336 0.0611242 0.040252 0.983497 0.165462 
2303 2 45.3738 273.399 -775.648 -0.118482 0.75412 0.624881 0.163671 
2304 2 46.141 276.718 -785.004 -0.157975 0.97487 -0.151005 -0.0432538 
2406 2 13.7432 327.098 -692.382 -0.475842 0.349025 -0.443683 -0.674464 
2405 2 16.272 318.293 -696.043 -0.819326 0.549659 0.0936727 -0.133433 
2404 2 21.2476 310.018 -697.956 -0.626166 0.261742 0.587476 0.440771 
2383 2 -25.0909 343.553 -707.183 0.886153 0.168447 0.0676945 -0.426352 
2403 2 28.1375 302.964 -696.918 -0.105373 -0.452025 0.57348 0.675048 
2402 2 36.6514 299.307 -693.541 0.360338 -0.778788 -0.260535 0.442457 
2401 2 44.2039 294.369 -689.647 0.544134 -0.350533 -0.758045 -0.0800767 
2400 2 52.7713 290.166 -686.903 0.294751 0.468917 -0.642154 -0.529978 
2407 2 13.5664 336.353 -689.034 0.209848 -0.143468 -0.411492 -0.875246 
2408 2 14.0566 344.078 -682.884 0.840998 -0.418247 -0.0865817 -0.332107 
2385 2 -24.5571 333.918 -689.931 0.290902 0.0996327 -0.187634 0.932868 
2409 2 14.8831 351.678 -676.623 0.794179 -0.302379 0.359312 0.385671 
2386 2 -24.1493 329.768 -680.873 -0.595447 -0.118885 -0.132215 0.783472 
2387 2 -24.2177 326.3 -671.601 -0.971607 -0.232987 -0.0160614 0.037927 
2410 2 17.8623 359.619 -671.578 0.199928 0.157173 0.398483 0.881214 
2244 2 93.1481 269.006 -693.341 0.299493 -0.201455 0.900409 0.242863 
2268 2 176.705 293.995 -818.86 -0.251036 0.0189418 0.516726 -0.818301 
2229 2 158.805 249.208 -719.223 -0.0303329 -0.751877 -0.602754 0.26542 
2269 2 174.198 285.79 -814.046 0.481326 0.560741 0.240599 -0.629291 
2245 2 97.3724 274.963 -700.02 0.0735006 0.588875 0.729288 0.340533 
2256 2 95.9504 287.768 -801.467 0.0991349 -0.859234 -0.469408 0.177608 
2246 2 102.141 279.25 -707.619 -0.0777445 0.986287 -0.105305 0.100521 
2255 2 100.338 287.729 -792.549 0.20394 -0.210292 -0.954851 0.0494557 
2247 2 103.884 281.076 -717.176 -0.144669 0.592307 -0.791481 0.0424365 
2254 2 104.797 287.295 -783.65 0.142645 0.582026 -0.784864 -0.157755 
2249 2 110.168 284.424 -735.668 0.0399784 -0.906027 -0.410748 -0.0938183 
2250 2 112.024 285.588 -745.269 0.0395577 -0.895678 0.442564 0.0182778 
2252 2 110.754 287.94 -764.811 -0.0644384 0.65104 0.750993 -0.0894657 
2253 2 108.751 287.598 -774.565 0.0608872 0.977077 -0.0489036 -0.198046 
2248 2 106.652 282.427 -726.591 -0.157055 -0.242012 -0.943418 -0.163484 
2251 2 112.062 286.524 -755.119 -0.073611 -0.24182 0.96257 0.0977939 
2275 2 132.132 248.59 -803.099 -0.459396 0.347632 0.504151 -0.64338 
2274 2 140.128 253.86 -805.498 -0.797302 -0.239348 0.552785 -0.0380913 
2228 2 161.834 254.005 -711.045 0.163226 -0.0299486 -0.954682 0.247067 
2270 2 169.307 277.521 -811.626 0.815649 0.454025 -0.34155 0.109186 
2271 2 165.09 269.182 -808.47 0.537695 -0.0710238 -0.640041 0.544231 
2272 2 157.713 262.818 -806.396 -0.00600275 -0.592227 -0.295948 0.749431 
2273 2 148.887 258.564 -805.194 -0.478035 -0.694466 0.261238 0.470058 
2227 2 164.803 257.392 -702.176 0.246235 0.670986 -0.698817 -0.0282949 
2226 2 167.145 261.613 -693.567 0.204677 0.965043 0.0573059 -0.153345 
2225 2 170.096 267.911 -686.457 0.0625292 0.536699 0.761071 -0.358907 
2223 2 171.815 283.211 -673.97 -0.367003 -0.838928 0.371208 -0.15399 
2224 2 171.474 275.651 -680.355 -0.155092 -0.205745 0.875196 -0.409448 
2222 2 172.688 291.775 -669.288 -0.441845 -0.80341 -0.312991 0.247671 
2046 2 231.223 -189.649 -610.414 -0.157753 -0.133593 -0.977016 0.0520263 
2045 2 228.77 -187.408 -601.111 -0.0188872 0.668361 -0.723102 0.17338 
2044 2 227.068 -184.933 -591.615 0.0969385 0.987206 0.00385476 0.12654 
2043 2 224.412 -181.366 -582.8 0.238322 0.665488 0.704941 -0.0581908 
2042 2 222.29 -177.649 -573.715 0.102442 -0.148008 0.964109 -0.195176 
2041 2 220.251 -174.38 -564.654 -0.0944792 -0.857494 0.475081 -0.173424 
2040 2 217.855 -169.924 -556.169 -0.260647 -0.866298 -0.423979 -0.0428168 
2039 2 216.062 -163.072 -549.237 -0.130047 -0.0976689 -0.921077 0.353789 
2038 2 212.264 -156.702 -542.737 0.0636268 0.666375 -0.619063 0.410679 
2037 2 210.736 -150.645 -535.057 0.321601 0.932402 0.162793 0.0264326 
2036 2 209.214 -143.372 -528.417 0.225824 0.350275 0.831403 -0.367532 
2035 2 206.791 -138.356 -520.184 0.0170242 -0.478229 0.838658 -0.260116 
2048 3 267.36 -181.269 -574.171 0.615318 0.0260632 -0.242574 -0.749575 
2047 1 278.235 -191.146 -605.997 0.590337 0.0491384 -0.230672 -0.771931 
2055 2 287.315 -182.887 -533.862 0.655914 -0.261989 -0.283327 0.64874 
2049 2 318.553 -185.142 -582.186 0.0929467 -0.203645 0.00987665 0.974573 
2050 2 314.128 -184.682 -573.411 -0.678701 -0.178282 0.120737 0.702142 
2051 2 310.117 -185.388 -564.365 -0.977333 0.0499773 0.172039 -0.112807 
2052 2 307.215 -184.25 -554.924 -0.445672 0.211051 0.05746 -0.868062 
2053 2 302.406 -183.836 -546.347 0.38943 0.323457 -0.260496 -0.822108 
2054 2 295.474 -182.959 -539.382 0.885047 0.0343308 -0.450678 -0.111368 
2056 2 280.397 -182.187 -526.849 -0.0339746 -0.364155 0.0322165 0.930161 
2057 2 273.529 -181.083 -519.834 -0.709199 -0.0828867 0.322182 0.621583 
2127 2 218.781 -0.150535 -579.272 -0.0311674 0.584322 0.00829251 -0.810881 
2126 2 228.378 -0.540847 -581.794 -0.643579 0.352468 0.491892 -0.468631 
2128 1 217.039 6.63418 -532.625 0.545164 0.440759 0.648086 0.29751 
2125 2 237.885 -0.825249 -584.509 -0.752288 -0.206853 0.564933 0.268562 
2124 2 247.38 -3.51847 -584.76 -0.0943937 -0.642001 0.304282 0.697379 
2112 2 318.366 -55.1647 -515.04 -0.295924 0.72358 0.610392 -0.127609 
2157 2 265.584 28.0402 -660.923 -0.0668294 0.178729 0.299637 0.934777 
2153 2 356.499 35.1951 -661.574 -0.0808659 0.625011 -0.774083 -0.0601422 
2113 2 312.422 -52.7263 -522.606 -0.101885 0.941697 -0.200326 -0.250389 
2114 2 308.311 -49.9715 -531.147 0.0415338 0.515954 -0.801958 -0.298211 
2115 2 304.598 -45.7122 -539.275 0.391102 -0.225724 -0.869365 -0.200729 
2116 2 298.902 -39.9817 -544.992 0.499644 -0.793171 -0.333093 0.101413 
2117 2 293.887 -33.3208 -550.242 0.233975 -0.808929 0.352741 0.407999 
2123 2 256.764 -6.12118 -583.273 0.41172 -0.714511 -0.312994 0.471164 
2118 2 289.215 -26.7412 -556.014 -0.177775 -0.227536 0.892805 0.345721 
2158 2 268.639 33.4387 -653.105 -0.76432 0.329193 0.096249 0.546061 
2165 2 272.786 79.7122 -603.172 -0.725336 0.339086 0.381593 0.461839 
2164 2 272.859 71.7356 -609.058 -0.0645366 -0.0100135 0.462012 0.884466 
2152 2 356.685 34.4477 -651.705 -0.0399745 0.998233 -0.0431749 -0.00829516 
2163 2 273.302 64.7132 -616.023 0.637806 -0.262001 0.273053 0.670821 
2159 2 270.441 39.7123 -645.677 -0.921441 0.23193 -0.0759221 -0.302308 
2160 2 270.847 44.3325 -636.94 -0.288754 0.0549612 -0.284065 -0.912638 
2161 2 271.971 49.8953 -628.779 0.486062 -0.171436 -0.354602 -0.780135 
2156 3 313.14 38.5465 -642.712 -0.783805 0.054342 -0.0895796 -0.612105 
2162 2 271.36 56.8748 -621.753 0.87162 -0.467453 0.0401817 -0.141953 
2151 2 356.757 34.8691 -641.799 -0.0232521 0.654016 0.756121 0.00199517 
2150 2 355.437 36.3252 -632.069 0.0438881 -0.200094 0.975683 -0.0779663 
2138 2 296.135 26.2999 -532.261 -0.0693456 0.961184 0.154481 0.217833 
2139 2 300.097 28.4059 -541.041 -0.237616 0.733363 -0.628509 0.103414 
2140 2 305.155 30.5504 -549.25 -0.215985 -0.0282019 -0.973862 -0.0644098 
2141 2 309.465 31.7287 -558.108 7.54831e-05 -0.791419 -0.548066 -0.270703 
2142 2 313.847 34.5774 -566.48 0.196745 -0.871305 0.396812 -0.211328 
2143 2 319.008 36.377 -574.724 0.279737 -0.236915 0.930041 0.0253538 
2122 2 266.068 -7.19084 -580.157 0.5371 -0.123216 -0.832926 0.0507566 
2121 2 274.229 -10.4706 -575.607 0.256496 0.559594 -0.641461 -0.457812 
2120 2 279.931 -14.4735 -568.576 -0.244857 0.922544 0.0330577 -0.296421 
2119 2 284.49 -20.7693 -562.379 -0.398458 0.545996 0.727399 0.118364 
2144 2 324.547 38.3418 -582.673 0.204657 0.519086 0.810008 0.180422 
2145 2 329.681 38.7677 -591.182 -0.0820096 0.94024 0.061571 0.324703 
2146 2 335.485 40.9374 -599.001 -0.298439 0.548734 -0.742232 0.242729 
2147 2 342.113 40.3971 -606.293 -0.367335 -0.208743 -0.903418 0.0729921 
2148 2 347.897 38.2385 -614.113 -0.18432 -0.863341 -0.406867 -0.234792 
2149 2 352.814 36.8401 -622.58 0.0309114 -0.891009 0.431833 -0.136628 
2166 2 270.08 88.1866 -598.737 -0.790651 0.499789 0.0222856 -0.352966 
2129 3 251.232 3.02295 -538.979 0.525497 0.408516 0.667821 0.333141 
2137 2 290.439 23.4871 -524.73 0.21918 0.402132 0.845943 0.273184 
2136 2 285.064 19.3969 -517.567 0.337711 -0.464476 0.817038 0.0516012 
2481 2 122.592 237.889 -568.056 -0.656771 0.616954 0.326339 0.285523 
2171 2 236.264 117.025 -581.567 -0.419121 -0.42695 0.52847 0.602305 
2172 2 226.912 120.028 -580.441 -0.708002 0.123482 0.691603 0.071901 
2173 2 217.437 122.653 -580.513 -0.618664 0.456945 0.263393 -0.582306 
2174 2 208.715 125.358 -576.745 0.112607 0.455154 -0.232051 -0.852236 
2175 2 200.47 128.257 -572.27 0.6911 0.137573 -0.531834 -0.469688 
2176 2 192.072 131.028 -567.952 0.834648 -0.222042 -0.387381 0.322483 
2177 2 184.609 131.369 -561.449 0.139712 -0.351386 -0.118906 0.91808 
2179 2 170.537 127.174 -548.289 -0.881033 -0.179677 0.32828 -0.28936 
2178 2 177.547 130.172 -554.605 -0.673663 -0.402196 0.163891 0.59796 
2180 2 165.406 122.776 -541.049 -0.334612 0.0495417 0.334538 -0.879582 
2181 2 162.379 117.576 -533.178 0.576123 0.288313 0.138143 -0.752246 
2183 3 182.577 165.276 -529.479 0.016209 -0.0949107 -0.958493 -0.268366 
2189 2 185.514 213.403 -522.964 -0.276429 0.302805 0.90195 0.135579 
2190 2 181.573 217.536 -531.085 -0.268319 0.89878 0.3464 -0.0143817 
2191 2 179.066 222.606 -539.242 -0.144737 0.794024 -0.523664 -0.272676 
2192 2 176.605 227.504 -547.507 0.125959 0.0601897 -0.918099 -0.370951 
2193 2 173.402 234.231 -553.929 0.394763 -0.609308 -0.684752 -0.0634059 
2479 1 117.347 226.656 -522.559 -0.698153 0.68139 0.198796 0.0936526 
2170 2 244.997 112.689 -583.471 0.338672 -0.625085 -0.0126062 0.703144 
2194 2 169.363 239.907 -560.946 0.304501 -0.915384 0.0356016 0.26093 
2188 2 189.873 208.484 -515.548 -0.0448855 -0.492112 0.794934 0.351981 
2195 2 164.435 245.592 -567.406 -0.0122444 -0.461904 0.810321 0.360381 
2482 2 122.019 247.813 -567.726 -0.694294 0.638734 -0.234951 -0.234034 
2167 2 266.187 96.3357 -594.65 -0.127785 0.401276 -0.428665 -0.799309 
2169 2 253.633 109.373 -587.184 0.809194 -0.31648 -0.448764 0.20894 
2168 2 260.871 103.927 -591.089 0.605438 0.0584948 -0.528205 -0.592471 
2411 2 22.4892 365.978 -665.615 -0.524707 0.503803 0.0982538 0.679126 
2388 2 -23.844 322.139 -662.614 -0.70716 -0.106943 -0.00821125 -0.698871 
2412 2 28.3873 372.054 -660.509 -0.869771 0.355659 -0.313996 0.13569 
2413 2 34.5462 377.235 -654.756 -0.649852 -0.045097 -0.416375 -0.634264 
2391 2 -19.8227 318.206 -633.597 0.933039 0.10175 0.178622 0.295261 
2389 2 -22.8561 320.647 -652.908 0.178398 -0.0541479 0.102726 -0.977082 
2390 2 -21.5865 318.628 -643.29 0.866234 0.00863628 0.122427 -0.48433 
2394 2 -0.20003 314.635 -613.011 -0.745686 0.00615751 -0.614632 0.257181 
2395 2 8.719 311.37 -610.535 -0.679862 -0.379982 -0.34208 -0.525721 
2396 2 17.4109 309.889 -606.034 -0.0227899 -0.483833 0.132085 -0.864835 
2397 2 25.6625 307.665 -600.92 0.678401 -0.20495 0.448245 -0.544834 
2398 1 47.5092 293.053 -640.076 -0.553619 0.63906 0.496095 -0.19748 
2399 3 19.9678 310.764 -652.336 -0.547184 0.663292 0.471413 -0.195964 
2393 2 -8.88229 316.705 -617.444 -0.312477 0.416472 -0.324115 0.789847 
2392 2 -15.7872 317.463 -624.657 0.352785 0.37243 0.144055 0.846219 
2441 2 78.0013 371.787 -594.479 0.256195 -0.471382 0.0374132 -0.843068 
2440 2 68.5226 371.112 -597.085 -0.445382 -0.476667 -0.410751 -0.636952 
2439 2 58.6532 370.615 -597.837 -0.745 0.0168749 -0.666825 -0.00583855 
2438 2 49.1136 372.96 -596.525 -0.31979 0.56176 -0.517589 0.56059 
2437 2 39.8893 375.594 -594.314 0.254691 0.768633 0.0461448 0.584985 
2442 2 86.1409 373.514 -589.084 0.806909 -0.236262 0.360339 -0.404021 
2443 2 93.3918 374.449 -582.406 0.781355 0.0239514 0.479495 0.398741 
2208 2 75.8022 313.689 -619.045 0.269381 -0.750148 0.0324856 0.60304 
2462 2 50.2888 369.233 -525.351 0.281281 -0.0839383 0.673281 -0.678622 
2207 2 84.3892 309.087 -617.477 0.602919 -0.577197 -0.49351 0.244501 
2461 2 47.6171 378.416 -527.793 -0.44973 -0.491355 0.418668 -0.617277 
2460 2 45.4116 387.719 -530.423 -0.811937 -0.573728 -0.0957305 -0.0493013 
2436 2 31.4564 378.574 -589.999 0.542965 0.413102 0.725173 0.0930585 
2463 2 56.0207 361.252 -524.303 0.730595 0.402831 0.525411 -0.16704 
2435 2 22.9287 383.348 -590.925 0.482311 -0.220961 0.653746 -0.5396 
2464 2 62.6257 353.951 -523.369 0.674922 0.595502 0.0208271 0.435229 
2414 2 40.3209 382.098 -648.243 -0.0154315 -0.414644 -0.226365 -0.881244 
2459 2 42.5868 397.058 -531.86 -0.545939 -0.358044 -0.555778 0.514651 
2415 2 46.9849 385.671 -641.854 0.658213 -0.320033 0.169417 -0.660024 
2434 2 15.2645 389.569 -591.341 -0.0910218 -0.587196 0.36253 -0.717975 
2416 2 53.3782 387.746 -634.621 0.881953 -0.116243 0.4217 0.175543 
2417 2 60.3104 391.329 -628.572 0.355676 0.253643 0.422117 0.794341 
2433 2 8.41459 396.721 -591.28 -0.60088 -0.69421 -0.200162 -0.34198 
2418 2 67.4612 395.924 -623.556 -0.341674 0.627164 0.124009 0.688873 
2465 2 68.0638 346.373 -520.101 0.162217 0.35156 -0.388044 0.836369 
2206 2 92.7663 303.84 -617.226 0.589213 0.00722742 -0.720641 -0.365312 
2209 1 94.2854 355.42 -631.054 0.542257 0.0307658 0.74122 -0.394466 
2466 2 72.831 338.689 -516.094 -0.468653 -0.108943 -0.550642 0.682121 
2221 2 172.164 301.206 -666.289 -0.204098 -0.2808 -0.765731 0.541435 
2220 2 170.819 310.517 -663.121 0.226453 0.390773 -0.720192 0.52663 
2219 2 168.597 319.424 -659.522 0.533499 0.800469 -0.154089 0.225575 
2444 2 101.3 377.38 -577.265 0.0249159 0.299385 0.368268 0.879845 
2196 2 160.48 251.319 -574.45 -0.41104 0.245492 0.840677 0.253065 
2483 2 122.154 257.649 -567.035 -0.24406 0.204779 -0.613123 -0.722898 
2197 2 155.004 257.616 -579.775 -0.448452 0.813854 0.329431 -0.167354 
2198 2 149.456 264.094 -584.817 -0.103128 0.688666 -0.507302 -0.507689 
2445 2 107.071 383.589 -572.018 -0.643275 0.452221 -0.0853863 0.611885 
2205 2 100.463 297.919 -615.501 0.051516 0.579881 -0.491484 -0.64771 
2480 3 111.286 261.087 -522.812 -0.735325 0.647526 0.184297 0.0777303 
2484 2 122.035 267.415 -565.59 0.276151 -0.34804 -0.561847 -0.697808 
2446 2 113.755 388.199 -566.323 -0.870981 0.211258 -0.40312 -0.185087 
2218 2 165.752 328.464 -656.943 0.547643 0.591825 0.533839 -0.254647 
2217 2 161.9 337.438 -655.445 0.235644 -0.0368389 0.766355 -0.596502 
2216 2 159.893 346.921 -653.205 -0.402991 -0.655302 0.439877 -0.463343 
2215 2 156.767 355.939 -650.687 -0.584664 -0.772028 -0.248302 -0.0220835 
2214 2 150.717 363.533 -649.442 -0.564572 -0.216039 -0.705682 0.369593 
2213 2 143.829 370.646 -649.282 0.0216541 0.480766 -0.517145 0.707783 
2212 2 137.33 377.738 -646.883 0.464274 0.798406 0.0393969 0.381372 
2211 2 129.255 383.49 -645.538 0.659694 0.442285 0.607608 -7.39657e-05 
2485 2 123.031 277.106 -564.105 0.811148 -0.503546 -0.0332907 -0.295587 
2486 2 124.972 285.436 -559.201 0.702731 -0.354567 0.341595 0.51358 
2487 2 126.074 293.683 -553.77 -0.0275264 0.0183473 0.341676 0.939235 
2488 2 126.51 300.007 -546.288 -0.706638 0.264879 0.2426 0.609629 
2489 2 126.302 306.436 -538.73 -0.960109 0.215565 -0.0305557 -0.175468 
2490 2 126.126 311.043 -529.97 -0.511714 -0.0572175 -0.193464 -0.835133 
2204 2 109.38 295.114 -612.314 -0.383022 0.747162 0.3028 -0.45095 
2203 2 117.561 291.389 -608.129 -0.542862 0.254292 0.798806 0.0504579 
2210 3 121.581 333.739 -633.091 0.571343 0.0690388 0.729038 -0.370545 
2202 2 125.151 285.368 -605.682 -0.283428 -0.342139 0.71448 0.540488 
2199 2 143.543 270.776 -589.104 0.231753 0.0485095 -0.936825 -0.257482 
2200 2 138.387 274.361 -596.733 0.450846 -0.675746 -0.574882 0.0980585 
2201 2 132.037 278.884 -602.831 0.313557 -0.794168 0.14788 0.49911 
2513 2 163.949 366.932 -532.3 -0.310422 0.393799 0.0824395 -0.861257 
2514 2 156.786 367.901 -525.586 0.470471 0.324854 -0.246122 -0.782656 
2512 2 172.901 366.489 -536.373 -0.799305 0.182126 0.517247 -0.245756 
2511 2 181.919 367.53 -540.029 -0.755586 -0.301774 0.44713 0.371613 
2510 2 191.638 367.131 -541.971 -0.165106 -0.613745 0.147142 0.757896 
2509 2 201.515 366.199 -542.19 0.488701 -0.539016 -0.419284 0.542986 
2508 2 211.222 364.562 -542.935 0.718017 0.0370283 -0.684149 -0.122559 
2491 2 129.21 313.966 -521.013 0.441913 -0.160308 -0.167478 -0.866582 
2447 2 119.946 393.624 -560.885 -0.302066 -0.116318 -0.553813 -0.767149 
2515 2 150.148 369.4 -518.469 0.938244 -0.0392407 -0.275376 -0.205733 
2558 2 166.012 396.518 -520.917 -0.207398 0.375489 0.835952 0.342313 
2557 2 167.41 388.473 -515.373 0.151755 -0.444927 0.763142 0.443424 
2585 2 297.223 345.51 -554.266 0.123179 0.00587244 0.991216 0.0477905 
2586 2 300.206 346.02 -563.68 0.0462317 0.775312 0.620761 0.106817 
2584 2 295.559 342.579 -544.917 0.175143 -0.70082 0.690682 0.0336869 
2583 2 295.59 338.088 -536.101 0.258399 -0.948299 -0.180005 -0.0394592 
2582 2 295.425 335 -526.691 0.0621336 -0.387726 -0.898928 -0.194257 
2588 3 299.427 379.469 -524.071 0.9709 0.161003 0.10667 -0.141609 
2587 1 295.16 392.319 -556.357 0.977223 0.154333 0.0867378 -0.117017 
2581 2 294.227 335.338 -516.941 -0.0616091 0.482277 -0.872366 0.0509076 
2419 2 74.9448 401.584 -620.348 -0.817457 0.435467 -0.37206 0.0608614 
2432 2 2.96874 404.881 -592.648 -0.686922 -0.340756 -0.554297 0.323696 
2431 2 0.0126278 414.218 -594.077 -0.0897563 0.0637351 -0.63037 0.76845 
2430 2 -3.37326 423.191 -596.358 0.533821 0.541753 -0.293274 0.579249 
2425 1 45.0096 457.992 -600.245 -0.558694 -0.577283 0.493532 -0.333215 
2426 3 41.9156 423.305 -603.32 -0.570315 -0.560872 0.487127 -0.350528 
2429 2 -3.50703 432.676 -599.037 0.782973 0.601465 0.116951 -0.107314 
2428 2 -1.87192 442.202 -600.938 0.317874 0.296976 0.556258 -0.708053 
2427 2 -1.59963 451.694 -603.789 -0.284176 -0.246488 0.566589 -0.73312 
2456 2 39.3648 424.261 -542.144 0.836251 0.51307 0.0873063 -0.17269 
2420 2 81.349 408.003 -616.474 -0.466301 0.0616425 -0.548851 -0.691032 
2421 2 84.7382 416.45 -612.719 0.318963 -0.259606 -0.473803 -0.778703 
2422 2 85.8461 425.412 -608.62 0.823231 -0.525631 -0.0288984 -0.212529 
2455 2 40.6402 433.107 -546.176 0.392697 0.340918 0.408234 -0.750272 
2423 2 87.2379 434.237 -604.118 0.658609 -0.322275 0.456529 0.503939 
2454 2 41.4558 442.978 -546.685 -0.189253 -0.145781 0.686402 -0.686865 
2424 2 89.7543 443.031 -600.144 -0.0537101 0.191159 0.526265 0.826812 
2453 3 81.437 409.821 -545.68 0.567227 0.555798 -0.518155 0.31758 
2457 2 38.904 415.472 -537.628 0.631731 0.489091 -0.317519 0.510771 
2458 2 39.558 406.225 -534.303 0.0275084 0.184533 -0.576301 0.795656 
2452 1 88.2289 443.874 -540.738 0.558114 0.543279 -0.52988 0.335534 
2448 2 124.776 401.143 -556.673 0.538989 -0.367855 -0.279739 -0.704216 
2559 2 165.218 403.582 -527.772 -0.393507 0.873552 0.272711 0.087679 
2449 2 127.003 409.289 -551.505 0.898622 -0.419673 0.0978379 -0.0823528 
2450 2 129.361 416.613 -545.152 0.600771 -0.208352 0.369612 0.677533 
2451 2 131 424.064 -538.835 -0.145551 0.175935 0.403165 0.886183 
2589 2 292.366 430.801 -529.261 0.730557 0.335619 0.0696541 0.590589 
2590 2 297.297 427.112 -521.511 -0.0556318 0.253583 -0.218178 0.940744 
1992 2 207.916 -242.874 -439.377 -0.029588 0.351949 0.781846 -0.513783 
1991 2 212.204 -234.998 -434.975 -0.436177 -0.414412 0.754209 -0.263023 
1990 2 216.571 -226.964 -431.317 -0.547006 -0.805772 0.171799 0.148326 
1989 2 221.668 -220.539 -425.77 -0.0983968 -0.715405 -0.533074 0.440847 
1988 2 226.86 -214.896 -419.49 0.324767 0.0189852 -0.896001 0.302239 
1994 3 189.098 -217.703 -398.003 0.529985 -0.201509 0.566597 0.597895 
1993 1 175.677 -249.189 -405.537 0.530988 -0.14496 0.592895 0.587804 
1996 2 149.873 -225.194 -368.648 0.351834 -0.435733 -0.622361 -0.546824 
1995 2 149.773 -235.13 -368.702 -0.158822 0.176241 -0.680209 -0.693564 
1997 2 150.982 -215.52 -370.465 0.569439 -0.810526 -0.0542998 -0.125851 
1987 2 230.221 -209.328 -412.03 0.355632 0.797057 -0.487625 -0.0211669 
2034 2 203.496 -132.779 -512.769 -0.266851 -0.920515 0.165724 -0.232332 
1998 2 152.445 -206.183 -373.447 0.475983 -0.506845 0.668598 0.263676 
1986 2 233.02 -204.64 -403.808 0.177007 0.908058 0.313042 -0.214719 
1985 2 233.613 -199.938 -395.144 0.0560782 0.263617 0.934071 -0.234247 
1984 2 233.939 -197.85 -385.433 -0.0470529 -0.545546 0.829456 -0.11031 