ITEM: TIMESTEP
10000000
ITEM: NUMBER OF ATOMS
4067
ITEM: BOX BOUNDS pp pp pp
-4.6310929470000001e+03 4.6704658980000004e+03
-4.6310929470000001e+03 4.6704658980000004e+03
-4.6310929470000001e+03 4.6704658980000004e+03
ITEM: ATOMS id type x y z c_q[1] c_q[2] c_q[3] c_q[4] 
3883 1 -305.559 400.396 -991.656 -0.650264 -0.0564864 -0.500421 -0.568811 
4067 2 20.4962 272.412 -1032.48 -0.0497443 -0.968395 -0.230756 0.0805439 
4066 2 22.1537 273.475 -1022.79 0.0482961 -0.469715 -0.877051 0.0884148 
4065 2 24.1447 272.297 -1013.11 0.078621 0.438482 -0.889927 -0.0978887 
4064 2 27.5363 270.056 -1004.1 -0.0743997 0.942203 -0.27642 -0.174098 
4063 2 29.554 269.159 -994.478 -0.0943809 0.784445 0.611672 -0.0399465 
4062 2 32.7987 268.154 -985.279 -0.164502 0.0366986 0.985498 0.0196295 
4061 2 37.0853 268.4 -976.364 -0.170198 -0.697132 0.676691 0.164709 
4039 2 90.4181 308.684 -987.458 -0.374787 -0.526616 -0.64308 -0.410681 
4038 2 82.4099 307.825 -981.786 -0.454676 0.152839 -0.877329 0.014256 
4037 2 74.0141 307.858 -976.489 -0.237164 0.764652 -0.450543 0.395059 
4040 2 99.382 310.104 -991.481 0.141837 -0.74767 -0.0309295 -0.648009 
4044 2 135.564 325.067 -992.972 -0.49689 0.683653 -0.175551 0.504877 
4043 2 126.948 320.204 -992.393 0.025244 0.610011 0.402884 0.681861 
4042 2 117.973 316.076 -993.243 0.640383 0.0910989 0.669632 0.364971 
4041 2 109.081 311.786 -992.76 0.625229 -0.545784 0.484214 -0.27703 
3877 2 -238.884 405.271 -983.395 0.316227 -0.187062 -0.92815 0.0595386 
3878 2 -244.345 405.097 -991.674 0.144978 -0.804819 -0.516897 0.25311 
3879 2 -250.212 404.504 -999.661 -0.0912285 -0.871726 0.381604 0.293511 
3880 2 -256.034 405.216 -1007.73 -0.404433 -0.188374 0.886123 0.125442 
3882 2 -269.673 405.198 -1021.88 0.118991 0.927557 -0.135647 -0.327229 
3881 2 -263.367 405.696 -1014.33 -0.205099 0.671783 0.659359 -0.268119 
3876 2 -235.01 405.57 -974.342 0.152379 0.701078 -0.686302 -0.119412 
3884 3 -281.805 417.997 -973.02 -0.639865 -0.0566769 -0.490968 -0.588482 
3862 2 -244 376.339 -844.589 -0.228599 0.581937 -0.767157 -0.143395 
3863 2 -242.484 381.303 -852.981 -0.0281355 -0.275031 -0.906982 -0.317727 
3864 2 -240.886 386.213 -861.446 0.11484 -0.905292 -0.382789 -0.14398 
3865 2 -239.322 389.235 -870.783 0.215309 -0.87122 0.437894 -0.0535337 
3861 2 -246.675 369.288 -838.253 -0.380266 0.913268 0.0184338 0.14491 
3860 2 -248.905 361.342 -832.748 -0.16571 0.495142 0.727087 0.445779 
3940 2 -227.181 385.508 -837.439 0.271643 -0.921881 -0.183667 -0.206427 
3941 2 -224.098 391.392 -844.882 0.38376 -0.697321 0.582681 -0.164177 
3859 2 -251.778 352.751 -828.799 0.31809 -0.225331 0.800781 0.454746 
3939 2 -227.039 379.431 -829.621 0.168835 -0.384969 -0.847998 -0.32279 
3858 2 -252.991 343.506 -825.545 0.56722 -0.775833 0.252821 0.111477 
3942 2 -218.032 395.16 -851.686 0.425751 -0.128365 0.868053 0.220775 
3856 1 -221.077 317.18 -848.293 0.530819 -0.387174 0.628477 0.416346 
3866 2 -236.447 392.322 -879.736 0.131626 -0.139325 0.980344 0.0467779 
3867 2 -233.728 394.127 -888.974 0.0642346 0.605421 0.744006 0.27531 
3943 2 -211.063 399.436 -857.308 0.195367 0.578895 0.695953 0.377308 
3805 2 -212.442 314.212 -819.628 -0.23045 -0.295946 -0.727768 -0.574163 
3868 2 -230.073 397.628 -897.51 -0.11434 0.984471 -0.0400786 0.127033 
3857 3 -209.275 349.881 -852.784 0.523894 -0.376489 0.643383 0.412127 
3869 2 -227.54 399.536 -906.878 -0.0308824 0.653546 -0.755813 -0.0258993 
3870 2 -227.303 400.841 -916.718 -0.061381 -0.222533 -0.965935 -0.116967 
3806 2 -205.159 320.654 -821.158 0.370565 -0.732072 -0.167136 -0.546642 
4020 2 -83.722 320.91 -953.909 0.85264 -0.161308 0.476696 -0.140516 
3855 2 -182.549 311.262 -874.872 -0.544351 -0.818268 0.0900283 0.161286 
3854 2 -178.771 319.722 -871.556 -0.217443 -0.582225 -0.581069 0.525443 
3853 2 -174.82 328.003 -868.068 0.298471 0.0334291 -0.828941 0.471862 
3847 2 -162.481 372.847 -834.54 -0.042653 -0.354699 -0.882908 0.304701 
3848 2 -163.466 366.928 -842.378 -0.34964 -0.869592 -0.290072 0.193443 
3846 2 -160.798 378.183 -826.444 0.197599 0.427021 -0.85206 0.229351 
3849 2 -164.893 360.051 -849.246 -0.399844 -0.732661 0.52266 -0.173666 
3850 2 -165.9 352.8 -855.962 -0.112825 0.0382143 0.902443 -0.414013 
3851 2 -167.803 345.465 -862.369 0.44952 0.748491 0.357207 -0.331808 
3852 2 -170.343 336.551 -865.872 0.628654 0.63908 -0.437129 0.0727222 
3964 1 -113.698 384.154 -860.701 -0.340062 0.338878 -0.871963 0.0959097 
3965 3 -90.7482 391.24 -886.165 -0.358158 0.326985 -0.868967 0.098493 
3963 2 -91.088 343.183 -866.509 0.383697 0.091527 0.161935 -0.904531 
3962 2 -90.5586 347.022 -875.607 -0.45415 -0.070838 0.197947 -0.865764 
3961 2 -88.2674 351.953 -883.893 -0.942794 -0.232273 0.144773 -0.190341 
3960 2 -88.2741 356.332 -892.815 -0.759326 -0.191349 -0.15845 0.601418 
3959 2 -90.7352 360.513 -901.446 -0.0602996 0.0991086 -0.213045 0.970131 
3958 2 -96.828 365.739 -907.302 0.651906 0.438194 0.0311724 0.618088 
3957 2 -103.538 371.037 -912.402 0.862031 0.259126 0.42888 -0.076281 
3956 2 -112.155 374.749 -915.597 0.459483 -0.324684 0.514954 -0.646744 
3955 2 -121.018 378.906 -917.234 -0.234648 -0.625529 0.142187 -0.730368 
3954 2 -129.769 383.471 -918.042 -0.664326 -0.542813 -0.405981 -0.314967 
4018 1 -103.603 304.112 -914.546 -0.686395 0.517395 -0.208509 0.46657 
4017 2 -106.327 298.326 -867.776 -0.36428 -0.768539 -0.142682 0.506251 
4016 2 -100.05 305.763 -865.972 0.22144 -0.266573 -0.726701 0.593135 
4015 2 -94.4686 313.222 -862.688 0.568793 0.488135 -0.645289 0.147653 
4014 2 -88.2459 320.763 -861.248 0.517786 0.758935 -0.00829124 -0.394774 
4021 2 -75.2885 322.447 -948.872 0.629622 0.306216 0.510953 0.498734 
4019 3 -75.5427 321.434 -902.636 -0.698573 0.523185 -0.208482 0.441372 
4013 2 -80.6706 326.811 -859.124 -0.129949 0.51559 0.589857 -0.607741 
4012 2 -74.0009 334.032 -860.039 -0.613035 -0.14061 0.645078 -0.433925 
4022 2 -65.8437 323.713 -946.127 0.0540278 0.598711 0.0368664 0.79829 
4011 2 -68.9096 342.188 -862.534 -0.7911 -0.549974 0.247062 0.103199 
3976 2 -68.3335 393.46 -929.522 0.234474 -0.204115 0.600112 -0.737038 
3977 2 -62.5271 385.594 -927.699 0.751488 0.284762 0.485523 -0.344156 
3953 2 -138.301 388.275 -916.619 -0.588188 -0.168361 -0.751286 0.247507 
3807 2 -198.184 327.468 -822.631 0.668697 -0.567747 0.444032 -0.1826 
4010 2 -65.0568 350.564 -866.134 -0.485262 -0.477734 -0.285503 0.674373 
3808 2 -190.232 333.447 -823.002 0.606011 0.1014 0.642305 0.458162 
4009 2 -62.2015 359.182 -870.125 0.207701 -0.039339 -0.545581 0.810959 
3809 2 -182.009 338.673 -821.146 0.0510441 0.391024 0.27634 0.876431 
3952 2 -146.178 393.377 -913.304 -0.223596 0.461407 -0.688835 0.51246 
4008 2 -57.247 365.953 -875.393 0.829662 0.254536 -0.399869 0.294918 
3951 2 -153.646 397.893 -908.724 0.185474 0.821083 -0.214872 0.49523 
3978 2 -57.4319 377.923 -924.154 0.703379 0.560573 0.00956121 0.436948 
4023 2 -56.4781 324.098 -943.089 -0.419901 0.497253 -0.493073 0.577323 
4060 2 42.3621 270.624 -968.19 -0.0653006 -0.955219 -0.13014 0.257598 
4036 2 66.163 309.81 -970.771 0.25038 0.851569 0.285477 0.361445 
4035 2 57.1979 310.54 -966.632 0.553459 0.262827 0.781337 0.118815 
4059 2 48.3108 272.109 -960.338 0.246813 -0.50176 -0.786147 0.263234 
4034 2 48.5345 312.179 -962.008 0.420093 -0.392994 0.754546 -0.315813 
4033 2 39.958 312.092 -956.997 0.0885332 -0.8588 0.14458 -0.483448 
4032 2 30.2671 312.498 -955.028 -0.415501 -0.614432 -0.474382 -0.474125 
3979 2 -52.1465 370.709 -919.947 0.160799 0.356846 -0.38141 0.837455 
3993 2 48.6604 360.326 -952.18 0.347773 0.359676 -0.592855 -0.631039 
3980 2 -47.454 363.256 -915.457 -0.498945 -0.103832 -0.487485 0.708965 
3994 2 39.7446 364.656 -952.464 0.696492 -0.245119 -0.663315 -0.121778 
3995 2 30.9715 369.08 -952.542 0.559084 -0.578212 -0.229956 0.54792 
3981 2 -43.7064 355.57 -910.408 -0.854146 -0.451477 -0.252955 0.0511587 
4031 2 20.4138 313.272 -954.699 -0.70188 -0.0598386 -0.709745 0.00681267 
4030 2 10.8642 315.733 -954.054 -0.359195 0.479812 -0.554706 0.577114 
4029 2 1.00688 315.84 -952.742 0.0902596 0.758487 0.0354503 0.644433 
4028 2 -8.88597 316.268 -952.403 0.599485 0.396473 0.613372 0.327417 
4027 2 -18.5274 317.923 -950.82 0.556448 -0.215253 0.751912 -0.280464 
4026 2 -27.722 320.099 -947.651 0.0381842 -0.772331 0.239751 -0.586997 
4025 2 -36.8991 321.368 -944.147 -0.372632 -0.693551 -0.438934 -0.432978 
4058 2 55.2562 274.363 -953.705 0.390266 0.306884 -0.868004 0.00914212 
4024 2 -46.6394 322.882 -943.19 -0.694054 -0.144494 -0.705184 -0.0112131 
3991 1 41.1625 322.303 -925.262 0.704394 -0.330182 -0.619981 -0.102139 
3992 3 11.4979 340.526 -921.915 0.725703 -0.337305 -0.598714 -0.0334921 
3982 2 -40.0198 347.619 -905.811 -0.477677 -0.541615 0.324351 -0.610961 
3983 2 -35.8293 339 -903.255 0.314332 -0.16615 0.637216 -0.683773 
3984 2 -29.591 331.375 -902.157 0.794299 0.292138 0.467698 -0.254955 
3985 2 -23.3756 324.588 -898.525 0.694918 0.567527 0.159959 0.4116 
3986 2 -16.8167 317.921 -895.458 0.169141 0.584627 -0.299789 0.734663 
3987 2 -9.39482 311.523 -894.234 -0.516904 0.175325 -0.711299 0.44286 
3988 2 -0.865906 306.459 -894.987 -0.660572 -0.49759 -0.559932 -0.0502434 
3989 2 7.10851 300.901 -896.405 -0.411995 -0.687321 -0.0185974 -0.597917 
3990 2 15.4739 295.701 -895.925 0.262338 -0.41189 0.538663 -0.686562 
4057 2 62.7836 276.766 -947.865 0.280673 0.822653 -0.332836 -0.36563 
4056 2 70.0748 279.951 -941.926 -0.00657947 0.800175 0.387174 -0.45801 
4055 2 76.1928 282.336 -934.509 -0.270921 0.254295 0.903568 -0.21331 
4007 2 -52.5197 369.845 -883.129 0.813591 0.325214 -0.0914392 -0.473227 
3996 2 22.2126 373.2 -950.497 -0.0367332 -0.403803 0.222307 0.886664 
3997 2 15.3797 377.607 -944.917 -0.742575 -0.0815607 0.453932 0.485671 
4006 2 -48.5074 373.225 -891.602 0.154184 0.243598 0.143793 -0.946684 
3998 2 7.99331 381.066 -939.318 -0.81019 0.302699 0.286811 -0.411953 
3999 2 0.752014 384.106 -933.431 -0.0954417 0.466727 -0.00598141 -0.879216 
4000 2 -7.25695 385.794 -927.84 0.682309 0.269079 -0.404655 -0.546174 
4001 2 -15.6078 387.033 -922.705 0.854259 -0.180633 -0.454621 0.175877 
4005 2 -44.2292 378.173 -899.028 -0.585387 0.00280391 0.370213 -0.721288 
4002 2 -23.9122 388.554 -917.588 0.319656 -0.371758 -0.228571 0.841054 
4004 2 -38.2186 382.77 -905.488 -0.9083 -0.263611 0.315356 0.0777866 
4003 2 -31.4763 386.933 -911.357 -0.522932 -0.446105 0.019714 0.726047 
4054 2 82.2194 283.273 -926.679 -0.298696 -0.513236 0.793961 0.130366 
4053 2 88.3898 285.36 -919.296 -0.149339 -0.920094 0.098387 0.348489 
4052 2 96.036 288.241 -913.575 0.23391 -0.617579 -0.630556 0.407777 
4051 2 102.989 291.219 -907.255 0.426692 0.226435 -0.871419 0.0853767 
4045 1 145.89 322.131 -947.057 -0.44938 -0.700933 0.27092 0.483067 
4046 3 113.934 308.123 -948.846 -0.491645 -0.657159 0.314955 0.476688 
4047 2 135.78 312.39 -902.025 -0.676348 -0.421127 0.601346 0.0599137 
4048 2 127.402 307.096 -902.802 -0.524737 0.22761 0.655612 -0.492968 
4049 2 118.634 302.315 -902.711 0.130108 0.696414 0.286412 -0.645017 
4050 2 110.401 297.244 -904.604 0.567436 0.700657 -0.370384 -0.223409 
3910 1 -363.754 462.282 -854.234 0.277962 -0.853359 0.0969763 -0.430246 
3912 2 -360.339 437.421 -894.183 -0.199404 0.811932 -0.255433 0.48555 
3874 2 -228.214 404.954 -955.73 -0.179006 0.529527 0.82724 -0.0568551 
3885 2 -326.241 404.901 -949.503 -0.858199 0.329827 -0.391625 -0.0365781 
3875 2 -231.367 405.36 -965.122 -0.00897129 0.962452 0.172813 -0.209144 
3886 2 -320.174 410.834 -944.51 -0.422107 -0.107228 -0.529713 -0.727827 
3887 2 -314.435 417.844 -940.516 0.302537 -0.457509 -0.380196 -0.74472 
3871 2 -226.206 402.951 -926.296 -0.000135938 -0.88838 -0.459097 -0.00321923 
3913 2 -351.257 438.122 -898.079 -0.590441 0.221331 -0.759634 0.15921 
3888 2 -309.804 426.016 -937.559 0.755853 -0.572454 0.241803 -0.20619 
3872 2 -226.096 403.281 -936.186 -0.00213079 -0.909464 0.413627 0.0422319 
3889 2 -302.852 432.757 -935.575 0.563041 -0.162604 0.68252 0.436706 
3873 2 -226.811 403.648 -946.019 -0.0473553 -0.23538 0.968613 0.0643576 
3775 1 -246.702 429.855 -890.752 0.720168 -0.229711 0.058826 -0.652021 
3774 2 -279.923 414.604 -860.871 -0.356469 -0.858514 0.363983 -0.0583049 
3890 2 -296.569 440.465 -935.493 0.116234 0.380616 0.563951 0.723589 
3891 2 -290.138 448.024 -935.271 -0.596813 0.647029 0.206194 0.427377 
3914 2 -341.646 438.638 -900.163 -0.5053 -0.339922 -0.615314 -0.500513 
3911 3 -335.184 475.441 -869.524 0.255653 -0.84802 0.129365 -0.445835 
3915 2 -332.198 441.475 -900.367 0.0733758 -0.67666 -0.196294 -0.705844 
3892 2 -287.263 457.51 -934.98 -0.74108 0.604963 -0.228115 -0.181065 
3893 2 -285.27 467.037 -933.525 -0.2851 0.219122 -0.586707 -0.725588 
3906 2 -326.215 507.483 -836.117 -0.841853 -0.257102 0.401716 -0.2526 
3905 2 -320.539 511.224 -843.282 -0.750072 -0.307768 0.138453 0.568772 
3904 2 -315.49 512.396 -851.659 -0.078671 -0.265051 -0.0319571 0.960488 
3916 2 -323.103 445.234 -900.175 0.556774 -0.649788 0.366434 -0.365382 
3917 2 -314.624 450.304 -900.641 0.720209 -0.118503 0.622729 0.281894 
3894 2 -284.846 476.692 -931.388 0.438085 -0.254653 -0.542792 -0.669784 
3895 2 -285.471 485.898 -927.778 0.900031 -0.409566 -0.139444 0.0524885 
3896 2 -288.146 493.343 -921.806 0.618468 -0.267888 0.102122 0.731645 
3897 2 -291.091 498.928 -914.086 -0.209301 -0.0970424 0.250128 0.940325 
3898 2 -293.903 502.995 -905.553 -0.905532 0.0527686 0.189754 0.375794 
3899 2 -296.53 505.788 -896.408 -0.90769 0.115505 0.116989 -0.386096 
3900 2 -299.778 507.41 -887.232 -0.230496 0.227709 -0.0679134 -0.943614 
3901 2 -303.642 509.593 -878.36 0.524549 0.0782531 -0.107032 -0.840993 
3918 2 -306.352 455.202 -898.553 0.208703 0.454244 0.263208 0.825123 
3919 2 -297.882 457.922 -894.142 -0.52028 0.478985 -0.188825 0.681342 
3902 2 -306.248 510.383 -868.894 0.957745 -0.0623308 -0.234886 -0.153841 
3903 2 -310.462 511.979 -860.186 0.704483 -0.18479 -0.178374 0.661618 
3920 2 -289.161 460.232 -890.174 -0.855141 0.0740267 -0.511775 0.0365988 
3921 2 -280.402 461.588 -885.746 -0.506453 -0.251907 -0.409109 -0.716016 
3922 2 -272.41 463.768 -880.283 0.178682 -0.568528 0.12728 -0.792873 
3923 2 -263.149 463.811 -876.7 0.740189 -0.148326 0.524704 -0.393452 
3924 2 -254.176 461.791 -872.984 0.803173 0.297699 0.287822 0.428307 
3925 2 -246.624 459.523 -866.974 0.213068 0.448588 0.0794236 0.864328 
3926 2 -238.464 459.575 -861.324 -0.637181 0.396155 -0.0806278 0.656171 
3776 3 -232.706 436.07 -859.302 0.73733 -0.228388 0.073925 -0.631441 
3927 2 -232.748 463.921 -854.428 -0.933376 0.209431 -0.278182 -0.0869573 
3773 2 -278.204 421.329 -853.756 -0.273922 -0.811126 -0.453143 0.2484 
3928 2 -228.132 468.103 -846.784 -0.566975 -0.0420412 -0.341299 -0.748524 
3772 2 -275.363 427.641 -846.671 0.0461464 -0.234482 -0.900269 0.363875 
3907 2 -332.102 501.443 -830.83 -0.354353 0.320783 0.46697 -0.743956 
3771 2 -273.764 434.067 -839.376 0.297688 0.583483 -0.711204 0.255184 
3770 2 -273.465 440.934 -832.353 0.376444 0.925758 0.0321065 0.01523 
3929 2 -223.489 472.305 -839.104 0.188087 -0.331852 -0.0404364 -0.923506 
3930 2 -217.75 474.548 -831.429 0.811016 -0.16582 0.27924 -0.486602 
3769 2 -273.645 446.607 -824.084 0.168735 0.57542 0.766699 -0.229332 
3908 2 -340.063 496.678 -827.471 0.323663 0.514133 -0.0365022 -0.793459 
3909 2 -348.386 494.025 -822.864 0.826966 0.284579 -0.429458 -0.225184 
3931 2 -211.561 474.845 -823.745 0.915856 0.209409 0.247377 0.236983 
3938 3 -213.473 429.436 -826.527 0.319652 -0.947022 0.0164177 0.0264897 
3975 2 -73.9988 401.532 -929.28 -0.392653 -0.667422 0.261976 -0.575969 
3944 2 -204.184 403.382 -863.247 -0.140203 0.902513 -0.0312143 0.406004 
3945 2 -196.77 405.231 -869.493 -0.294433 0.459385 -0.810366 0.213497 
3777 2 -205.74 450.747 -901.218 0.906655 -0.172877 -0.0764426 -0.377157 
3950 2 -160.633 402.159 -903.147 0.444985 0.697435 0.543348 0.142637 
3778 2 -206.009 454.809 -892.165 0.792145 -0.0384406 0.207109 0.57283 
3949 2 -167.41 403.485 -896.025 0.407798 -0.0823548 0.902234 -0.113547 
3946 2 -190.156 404.793 -876.912 -0.438988 -0.307586 -0.836273 -0.115447 
3948 2 -175.178 403.43 -889.694 0.219078 -0.765372 0.477296 -0.37202 
3947 2 -182.832 404.381 -883.508 -0.203267 -0.853348 -0.282301 -0.388311 
3974 2 -79.3224 409.731 -927.992 -0.678806 -0.635148 -0.365764 -0.0450258 
3779 2 -203.189 457.632 -883.112 0.0828971 0.27656 -0.064347 0.95525 
3780 2 -198.393 456.439 -874.621 -0.649991 0.0704447 -0.263334 0.709369 
3781 2 -193.804 453.665 -866.275 -0.956958 -0.245608 -0.153288 0.0202596 
3782 2 -190.405 448.962 -858.307 -0.66423 -0.291816 0.0445677 -0.686771 
3783 2 -188.287 444.552 -849.775 0.0560773 -0.0622298 0.197592 -0.976699 
3784 2 -186.621 440.551 -840.853 0.808926 0.182724 0.15504 -0.536855 
3973 2 -86.9149 415.266 -924.835 -0.452095 0.0400039 -0.802898 0.386477 
3972 2 -94.4562 420.379 -921.105 -0.00598547 0.674327 -0.447083 0.587677 
3971 2 -100.913 424.384 -914.791 0.350371 0.811037 0.408837 0.228718 
3966 2 -124.735 428.319 -873.134 -0.150886 0.37195 -0.912065 0.0838095 
3967 2 -121.082 427.636 -882.366 -0.154849 -0.494876 -0.83657 -0.17683 
3970 2 -107.489 426.809 -907.723 0.362 0.126986 0.920067 -0.0794205 
3969 2 -113.762 429.764 -900.626 0.107375 -0.677428 0.627717 -0.368148 
3968 2 -116.904 429.083 -891.24 -0.00381901 -0.959757 -0.221574 -0.1725 
3785 2 -185.608 436.032 -832.063 0.889943 0.290497 -0.0927811 0.339123 
3786 2 -185.204 431.008 -823.614 0.265257 0.118639 -0.328032 0.898865 
3804 2 -220.048 308.192 -817.826 -0.639713 0.364682 -0.670245 -0.0924454 
3802 1 -224.436 313.592 -771.154 -0.505176 0.778688 -0.140065 0.344708 
3801 2 -212.354 332.171 -729.484 -0.562343 -0.493816 -0.206179 0.630401 
3810 2 -174.564 342.985 -816.213 -0.656354 0.387392 -0.168656 0.625046 
3800 2 -208.598 340.487 -733.41 0.171471 -0.115503 -0.547446 0.8109 
3845 2 -157.613 381.062 -817.576 0.179424 0.938094 -0.270127 -0.121726 
3799 2 -204.436 349.061 -736.2 0.680256 0.377307 -0.48164 0.403625 
3844 2 -156.993 383.432 -808.001 0.101021 0.819321 0.548735 -0.131902 
3798 2 -198.361 356.036 -739.806 0.70521 0.552043 -0.127318 -0.426284 
3797 2 -192.724 362.954 -744.04 0.119809 0.396872 0.346582 -0.841439 
3796 2 -186.828 368.6 -749.784 -0.603302 0.0114026 0.46882 -0.645062 
3803 3 -200.345 337.495 -779.656 -0.505515 0.77365 -0.158404 0.347605 
3811 2 -167.396 345.874 -810.075 -0.819809 0.14579 -0.519562 -0.19161 
3795 2 -182.794 373.901 -757.046 -0.951794 -0.23909 0.191834 -0.0111545 
3792 2 -180.382 388.943 -782.077 0.784618 0.223132 -0.168191 0.553443 
3794 2 -180.835 378.395 -765.565 -0.610325 -0.249115 -0.0974247 0.745623 
3793 2 -180.439 383.211 -774.064 0.134407 0.00413381 -0.280796 0.950301 
3812 2 -159.851 350.473 -805.464 -0.302 -0.314133 -0.384164 -0.813962 
3813 2 -152.599 354.67 -800.163 0.50215 -0.398598 0.0260604 -0.766998 
3814 2 -146.086 358.474 -793.708 0.918594 -0.288114 0.249141 -0.105378 
3815 2 -140.785 363.144 -786.757 0.691794 -0.139383 0.373241 0.602233 
3816 2 -136.779 369.357 -780.112 -0.0982894 0.304669 0.290999 0.901574 
3817 2 -132.317 375.467 -773.727 -0.723956 0.43094 -0.072742 0.533748 
3818 2 -126.838 380.421 -767.182 -0.922366 0.281346 -0.23343 -0.124884 
3819 2 -123.141 386.363 -760.115 -0.501066 0.00569543 -0.325896 -0.801681 
3820 2 -119.904 392.062 -752.636 0.291598 -0.266285 -0.18011 -0.900901 
3843 2 -156.1 386.074 -798.51 -0.0269805 0.0802076 0.985887 -0.144449 
3842 2 -158.73 389.469 -789.565 -0.0478467 -0.761026 0.608454 -0.219848 
3821 2 -115.988 397.036 -744.926 0.892307 -0.265775 0.0831811 -0.355292 
3791 2 -181.714 395.878 -789.115 0.872038 0.324675 0.205971 -0.30284 
3841 2 -161.856 397.088 -783.988 -0.41582 -0.891198 -0.142618 -0.111891 
3768 2 -273.544 452.35 -816.096 -0.0979076 -0.190775 0.929056 -0.301453 
3767 2 -275.276 458.911 -808.924 -0.274655 -0.814588 0.430841 -0.274567 
3751 2 -328.672 479.79 -677.57 -0.482225 0.265702 -0.814177 -0.184331 
3755 2 -301.932 493.124 -702.182 0.20799 0.388631 0.888801 0.125458 
3766 2 -277.074 464.874 -801.136 -0.32045 -0.895067 -0.309424 0.0205925 
3756 2 -296.943 493.395 -710.815 0.0464913 0.945978 0.200721 0.250352 
3757 2 -292.065 493.118 -719.473 -0.0567924 0.647751 -0.70657 0.2792 
3758 2 -288.048 490.158 -728.056 -0.16873 -0.232994 -0.951345 0.110392 
3759 2 -285.408 486.803 -737.035 -0.179334 -0.907002 -0.378975 -0.0395608 
3760 2 -282.831 483.714 -746.065 -0.108565 -0.879966 0.41242 -0.209243 
3761 2 -280.249 480.372 -754.944 0.0595423 -0.248677 0.945904 -0.199699 
3762 2 -277.911 477.554 -764.185 0.158907 0.654367 0.73908 -0.0177096 
3763 2 -275.904 475.089 -773.529 0.195763 0.977432 -0.0771122 0.0189193 
3764 2 -275.901 471.723 -782.743 0.129036 0.49292 -0.854138 0.104056 
3765 2 -276.912 469.192 -792.197 -0.0737445 -0.269463 -0.935528 0.21619 
3754 2 -308.152 491.739 -694.593 0.350955 -0.513761 0.775513 -0.107054 
3753 2 -314.973 489.244 -687.807 0.13728 -0.913516 -0.0264329 -0.382025 
3752 2 -322.458 485.733 -682.439 -0.239636 -0.49939 -0.727734 -0.404459 
3750 2 -336.294 474.515 -674.095 -0.471582 0.769519 -0.339005 0.265568 
3748 1 -307.232 437.43 -673.678 0.764642 -0.409431 0.470547 0.162091 
3937 1 -210.438 409.904 -797.653 0.283513 -0.958352 -0.0177417 0.0294347 
3747 2 -265.489 416.468 -666.958 0.304054 0.913821 -0.178501 -0.201544 
3822 2 -113.057 401.23 -736.509 0.833661 -0.0569329 0.135522 0.532355 
3787 2 -184.88 424.726 -816.013 -0.55634 -0.14006 -0.326899 0.751003 
3932 2 -205.801 472.437 -816.013 0.512666 0.269221 -0.0755561 0.811779 
3824 2 -110.284 405.323 -717.475 -0.609282 0.0969517 0.125633 0.776912 
3828 2 -119.662 407.484 -680.195 0.925475 0.152479 -0.0864831 -0.335808 
3827 2 -117.607 409.123 -689.747 0.294733 0.120881 0.066982 -0.945533 
3826 2 -113.197 409.928 -698.551 -0.586722 0.128507 0.20299 -0.773329 
3825 2 -110.317 408.158 -707.904 -0.987708 0.0902107 0.127263 0.00999237 
3790 2 -181.456 403.474 -795.524 0.288035 0.133379 0.369793 -0.873212 
3823 2 -111.549 404.137 -727.164 0.160604 0.0617888 0.101907 0.979798 
3831 2 -193.4 452.939 -710.733 0.220397 0.878005 -0.370615 0.207789 
3832 2 -191.176 448.027 -719.098 -0.0443851 0.259454 -0.946715 0.185594 
3833 2 -189.44 444.188 -728.012 -0.189226 -0.500666 -0.813253 0.228356 
3840 2 -164.81 403.579 -777.154 -0.346475 -0.522967 -0.74929 0.212193 
3789 2 -182.413 410.915 -802.017 -0.500962 -0.2538 0.338389 -0.75506 
3788 2 -183.644 417.986 -808.886 -0.912365 -0.40565 -0.054563 -0.00777743 
3933 2 -201.75 468.117 -808.073 -0.20123 -0.0246806 -0.261648 0.94363 
3934 2 -201.031 462.788 -799.815 -0.843006 -0.214073 -0.166878 0.464397 
3935 2 -199.759 457.999 -791.208 -0.891249 -0.284612 -0.00928773 -0.352965 
3936 2 -197.173 452.813 -783.146 -0.331873 -0.20352 0.177677 -0.903809 
3830 3 -150.053 425.193 -718.299 5.80822e-05 -0.603561 0.777637 -0.176055 
3839 2 -167.404 409.561 -769.631 -0.0477829 0.242763 -0.911414 0.328796 
3838 2 -170.598 415.103 -761.986 0.213273 0.882206 -0.339251 0.247257 
3837 2 -175.493 421.179 -755.887 0.424518 0.669524 0.607491 -0.0497589 
3836 2 -180.737 426.258 -749.259 0.283104 -0.0342986 0.921879 -0.262326 
3835 2 -185.578 431.859 -742.742 -0.0275682 -0.689372 0.616233 -0.379818 
3834 2 -187.877 438.796 -736.168 -0.38917 -0.914268 -0.0838403 -0.075048 
3829 1 -158.757 433.37 -685.352 -0.00906818 -0.602885 0.777591 -0.178324 
3585 2 -236.829 187.148 -541.699 -0.192251 -0.644289 -0.673728 0.30663 
3584 2 -235.52 193.662 -534.285 0.0902001 0.0415007 -0.931248 0.350599 
3583 2 -233.126 200.925 -528.037 0.393791 0.798615 -0.444792 0.096453 
3582 2 -231.448 206.646 -520.09 0.257474 0.85954 0.387054 -0.212337 
3586 1 -265.91 159.168 -517.289 0.480315 -0.108924 0.387348 0.779355 
3642 2 -378.27 321.797 -514.949 -0.797154 -0.0493285 -0.400548 -0.449081 
3640 1 -361.982 351.008 -548.19 -0.519347 -0.304056 -0.162083 -0.782021 
3639 2 -329.026 378.724 -567.526 -0.3061 0.829814 0.21232 -0.41549 
3638 2 -320.986 375.377 -562.791 -0.524718 0.343814 0.77823 -0.0286572 
3637 2 -312.925 372.524 -557.8 -0.275881 -0.516077 0.719555 0.373891 
3636 2 -305.179 368.975 -552.676 0.137447 -0.872776 0.118318 0.45318 
3635 2 -299.245 364.075 -546.447 0.433714 -0.702332 -0.561985 0.0528586 
3634 2 -293.706 357.65 -541.418 0.37525 -0.0835525 -0.849748 -0.360741 
3633 2 -287.308 351.218 -537.264 -0.128819 0.695153 -0.473899 -0.524965 
3632 2 -281.404 344.496 -532.985 -0.4732 0.815105 0.173534 -0.285608 
3641 3 -336.297 350.944 -524.416 -0.514945 -0.330172 -0.242349 -0.753051 
3631 2 -274.47 339.369 -528.307 -0.498716 0.329338 0.795722 0.0982084 
3630 2 -265.916 336.918 -523.967 -0.371947 -0.413739 0.751372 0.354847 
3629 2 -256.686 335.01 -520.932 0.0803021 -0.770438 0.141668 0.616366 
3628 2 -248.338 334.671 -515.669 0.348146 -0.570577 -0.679655 0.302167 
3721 1 -378.78 515.824 -600.432 0.753752 -0.0140401 0.653912 -0.0637233 
3690 2 -376.603 522.156 -558.898 -0.114173 -0.388897 0.774635 0.485453 
3691 2 -381.523 529.622 -563.381 -0.512907 0.337151 0.731623 0.29662 
3692 2 -386.96 537.211 -566.465 -0.604058 0.753655 0.182496 -0.183885 
3689 2 -373.108 515.06 -553.06 0.328812 -0.875482 0.192125 0.297493 
3688 2 -371.486 508.651 -545.595 0.32048 -0.71313 -0.599283 -0.17204 
3687 2 -369.963 503.72 -537.233 0.0382897 0.0509835 -0.963972 -0.258248 
3695 3 -369.659 546.018 -521.081 -0.831013 -0.482078 -0.276218 0.026875 
3686 2 -367.801 500.505 -528.192 -0.0549709 0.771011 -0.605912 -0.188125 
3693 2 -391.72 545.664 -568.063 -0.240072 0.587367 -0.48798 -0.599367 
3720 2 -365.643 472.737 -614.484 -0.385705 0.405971 0.819743 -0.120172 
3685 2 -365.596 495.843 -519.729 -0.246769 0.942438 0.212056 -0.077124 
3749 3 -285.994 464.042 -665.601 0.751772 -0.47574 0.437058 0.132251 
3719 2 -358.389 471.809 -607.83 -0.303174 -0.442679 0.81381 0.223235 
3746 2 -260.776 420.931 -659.488 0.0576728 0.711833 0.603278 -0.354996 
3718 2 -350.724 471.794 -601.404 -0.0151436 -0.909618 0.131917 0.393654 
3717 2 -344.468 472.29 -593.742 0.175568 -0.641086 -0.690492 0.285317 
3716 2 -336.454 471.008 -588.144 0.425992 0.158724 -0.874992 -0.166511 
3722 3 -343.936 516.589 -597.303 0.75827 0.0147906 0.651607 -0.0146858 
3715 2 -330.419 469.297 -580.48 0.0687801 0.81511 -0.476771 -0.3218 
3714 2 -325.745 469.281 -571.759 -0.131685 0.887386 0.377934 -0.228847 
3713 2 -322.02 471.682 -562.862 -0.193043 0.196985 0.950257 -0.144714 
3712 2 -318.329 476.487 -554.998 -0.314255 -0.713475 0.623498 -0.0587183 
3711 2 -315.721 480.095 -546.236 -0.166869 -0.96205 -0.0937992 0.194465 
3710 2 -315.586 484.294 -537.304 -0.0742779 -0.437966 -0.869335 0.216624 
3709 2 -315.088 487.826 -528.064 0.113592 0.431004 -0.883631 0.143279 
3740 2 -255.64 470.182 -631.09 0.50283 0.851325 0.133865 0.0669968 
3739 2 -259.458 478.629 -627.406 0.416534 0.379675 0.736498 -0.374055 
3741 2 -252.339 461.78 -635.119 0.3712 0.576788 -0.597873 0.414819 
3742 2 -252.464 452.634 -638.881 -0.0721711 -0.14427 -0.895859 0.414023 
3743 2 -252.324 444.453 -644.417 -0.430823 -0.771883 -0.3787 0.274178 
3738 2 -263.655 486.272 -622.787 0.0435183 -0.342424 0.795878 -0.497423 
3744 2 -253.154 435.78 -649.214 -0.536875 -0.681681 0.490392 -0.081194 
3745 2 -257.028 427.707 -653.4 -0.21735 -0.0148759 0.88832 -0.404259 
3708 2 -317.345 493.597 -520.306 0.241993 0.926513 -0.215282 0.191485 
3737 2 -267.997 492.929 -616.893 -0.315979 -0.870892 0.196004 -0.321383 
3736 2 -273.563 500.215 -612.985 -0.560044 -0.671091 -0.485718 0.0081517 
3735 2 -277.907 507.781 -608.258 -0.197346 0.053141 -0.861121 0.465511 
3734 2 -283.615 515.554 -605.743 0.273013 0.69108 -0.385916 0.546756 
3733 2 -289.474 522.884 -602.29 0.573927 0.686481 0.433094 0.108539 
3732 2 -294.888 530.11 -598.33 0.39621 0.133286 0.826658 -0.376682 
3731 2 -301.687 536.091 -594.312 0.0475121 -0.612207 0.575909 -0.539698 
3730 2 -308.166 543.338 -592.812 -0.472209 -0.770426 -0.0237647 -0.427665 
3729 2 -314.606 549.922 -589.069 -0.571259 -0.462628 -0.66862 0.112186 
3723 2 -370.271 560.033 -586.204 -0.216495 -0.60083 -0.45241 -0.622462 
3694 1 -385.794 575.208 -531.758 -0.812235 -0.442851 -0.366526 0.0990757 
3724 2 -360.856 562.768 -587.05 0.326582 -0.629505 0.30254 -0.636818 
3728 2 -323.24 554.701 -588.637 -0.441599 0.265759 -0.655855 0.551558 
3725 2 -351.033 563.388 -587.1 0.667618 -0.123477 0.707387 -0.19658 
3727 2 -331.722 559.721 -587.87 0.17216 0.703929 -0.201557 0.658954 
3726 2 -341.18 562.501 -587.371 0.558898 0.569498 0.424471 0.427938 
3447 2 -144.114 -93.2803 -419.318 -0.24477 0.716514 0.653125 -0.0110559 
3446 2 -140.981 -96.8204 -410.646 -0.184801 -0.0328082 0.96824 0.165178 
3445 2 -139.65 -99.5429 -401.175 0.060293 -0.66458 0.731166 0.141757 
3444 2 -137.553 -102.247 -391.888 0.120241 -0.978024 -0.139835 0.0972498 
3448 2 -147.624 -89.8281 -427.874 -0.279766 0.874203 -0.241461 -0.314956 
3449 2 -152.414 -83.4657 -433.736 0.128457 0.311965 -0.840894 -0.423172 
3443 2 -135.258 -108.89 -385.015 0.295485 -0.459338 -0.790421 -0.277368 
3442 2 -132.25 -114.563 -377.417 0.0160461 0.377065 -0.849318 -0.369084 
3450 2 -157.035 -77.0511 -439.72 0.407834 -0.448648 -0.777435 -0.167274 
3452 3 -163.847 -66.1815 -389.361 -0.856456 -0.244627 -0.33157 -0.310969 
3441 2 -129.383 -120.77 -370.18 -0.258702 0.912289 -0.202771 -0.244309 
3440 2 -125.516 -127.445 -363.965 -0.422637 0.682631 0.585864 0.110259 
3451 1 -189.05 -56.7022 -411.616 -0.844635 -0.248687 -0.329155 -0.34118 
3530 2 -232.074 19.994 -426.593 -0.484872 -0.666054 0.559903 0.0882054 
3531 2 -238.61 14.4337 -431.578 -0.36224 0.0815929 0.85886 -0.352823 
3532 1 -271.626 5.4357 -399.09 -0.542828 0.0922325 -0.548144 -0.629578 
3533 3 -253.632 32.1145 -385.2 -0.560465 0.0802208 -0.577875 -0.587796 
3529 2 -225.409 24.6048 -420.922 -0.22218 -0.876741 -0.111114 0.411842 
3528 2 -219.465 27.3539 -413.547 0.213642 -0.564529 -0.738849 0.299609 
3527 2 -214.291 30.2017 -405.648 0.277312 0.384056 -0.880104 0.0318839 
3544 2 -247.708 92.3476 -371.663 0.375091 0.0479227 0.749835 0.542916 
3543 2 -250.44 83.1247 -369.411 0.581147 -0.616811 0.48047 0.225747 
3526 2 -209.135 32.9022 -397.57 0.166822 0.933216 -0.217441 -0.232372 