ITEM: TIMESTEP
10000000
ITEM: NUMBER OF ATOMS
4067
ITEM: BOX BOUNDS pp pp pp
-4.6310929470000001e+03 4.6704658980000004e+03
-4.6310929470000001e+03 4.6704658980000004e+03
-4.6310929470000001e+03 4.6704658980000004e+03
ITEM: ATOMS id type x y z c_q[1] c_q[2] c_q[3] c_q[4] 
4044 2 -1349.34 851.827 -817.285 0.00716919 -0.911224 -0.0217897 0.411272 
4043 2 -1341.91 852.023 -810.674 0.323663 -0.51947 -0.749711 0.251647 
4042 2 -1333.44 851.34 -805.662 0.475029 0.246994 -0.826918 -0.171892 
4041 2 -1325 848.964 -801.039 0.0629053 0.820293 -0.256055 -0.507542 
4040 2 -1316.91 849.881 -795.552 -0.301857 0.644702 0.585332 -0.388109 
3994 2 -1285.47 844.241 -749.988 0.26227 -0.241366 -0.586369 -0.727411 
3993 2 -1285.52 834.776 -752.654 -0.416634 0.324568 -0.507122 -0.681102 
4045 1 -1377.26 857.776 -779.686 -0.690431 -0.127077 -0.532379 -0.473 
3939 2 -1315.61 775.184 -676.251 0.0597142 -0.485563 0.381363 0.784363 
3940 2 -1322.84 781.589 -673.817 -0.532656 -0.103218 0.617407 0.569589 
4039 2 -1309.14 852.495 -789.976 -0.434558 -0.1482 0.877514 -0.138439 
3942 2 -1337.26 794.509 -670.456 -0.472181 0.66847 -0.232832 -0.525341 
3943 2 -1342.33 803.002 -670.319 0.138883 0.27964 -0.589209 -0.745215 
3941 2 -1330.71 787.421 -672.536 -0.776569 0.483032 0.39973 -0.0619434 
3937 1 -1279.34 805.005 -671.23 -0.487637 0.524859 0.023062 -0.697281 
3995 2 -1284.92 853.931 -747.996 0.702565 -0.651146 -0.0706816 -0.278235 
3944 2 -1347.36 811.453 -668.696 0.634805 -0.36998 -0.524216 -0.430506 
4038 2 -1302.22 857.74 -785.357 -0.469676 -0.74519 0.403379 0.247753 
3945 2 -1350.28 820.72 -666.518 0.774181 -0.593556 -0.0716404 0.207854 
3991 1 -1243.67 819.376 -737.198 0.776483 -0.534858 0.133365 0.305311 
3992 3 -1246.97 850.496 -721.6 0.771314 -0.517926 0.135684 0.344117 
3990 2 -1204.68 822.52 -710.822 0.346217 0.500775 0.75071 -0.256502 
3989 2 -1207.3 829.514 -704.31 0.00807638 -0.283929 0.860501 -0.422914 
3988 2 -1208.9 835.999 -697.115 -0.331812 -0.875167 0.28929 -0.200737 
3987 2 -1211.64 842.495 -690.204 -0.402883 -0.73044 -0.545878 0.0784888 
3986 2 -1216.64 849.888 -685.925 -0.237653 0.0130525 -0.857493 0.456133 
3985 2 -1223.67 856.201 -683.019 0.133442 0.717218 -0.395452 0.558041 
4037 2 -1294.39 861.502 -780.609 0.00387539 -0.777456 -0.376895 0.503485 
4036 2 -1286.28 865.266 -776.382 0.498644 -0.102052 -0.811075 0.288264 
4046 3 -1345.91 868.616 -768.235 -0.710015 -0.0977584 -0.565924 -0.407496 
4047 2 -1386.06 871.206 -735.304 0.77938 -0.247984 0.563721 0.11528 
3955 2 -1342.31 909.463 -673.176 -0.248177 0.92588 -0.0577869 0.278955 
3956 2 -1336.6 913.481 -680.23 -0.264318 0.450181 -0.827245 0.207699 
3957 2 -1330.1 912.672 -687.713 -0.2861 -0.405933 -0.860658 -0.112394 
3958 2 -1323.85 911.552 -695.32 -0.173457 -0.920977 -0.12683 -0.325005 
3959 2 -1317.4 909.679 -702.646 0.128601 -0.639333 0.66822 -0.358046 
3960 2 -1311.4 907.35 -710.231 0.393114 0.143585 0.906134 -0.0613713 
3961 2 -1304.55 905.365 -717.045 0.189301 0.80116 0.504381 0.260592 
3962 2 -1298.39 904.59 -724.794 -0.0867546 0.917841 -0.31272 0.228577 
4048 2 -1378.49 877.014 -732.592 0.415587 0.275717 0.569595 0.653321 
4049 2 -1370.33 882.183 -730.469 -0.221113 0.68395 0.152428 0.678297 
3963 2 -1293.76 904.907 -733.551 -0.244651 0.377877 -0.886491 0.107184 
4050 2 -1361.78 887.092 -730.101 -0.635451 0.57466 -0.411908 0.31032 
4051 2 -1352.9 891.313 -730.804 -0.578531 -0.0338572 -0.784662 -0.220139 
4052 2 -1343.8 894.713 -733.157 0.00970691 -0.695804 -0.458421 -0.552823 
4053 2 -1336.13 899.97 -736.761 0.386734 -0.83523 0.269597 -0.283099 
4054 2 -1329.79 904.79 -742.615 0.479325 -0.356787 0.793926 0.112395 
4055 2 -1323.52 909.924 -748.177 0.276932 0.425905 0.806581 0.302226 
4056 2 -1316.82 912.709 -754.886 -0.083127 0.945907 0.0834341 0.302307 
4057 2 -1310.55 914.565 -762.218 -0.372011 0.675013 -0.631545 0.0843638 
4058 2 -1305.21 918.389 -769.589 -0.380455 -0.12674 -0.893019 -0.204223 
3965 3 -1286.28 941.17 -697.065 0.905659 0.241588 -0.0510125 -0.344695 
4059 2 -1298.1 921.239 -775.777 -0.154036 -0.653829 -0.53234 -0.515164 
4060 2 -1289.85 924.625 -780.072 0.335124 -0.855848 0.183675 -0.34854 
4035 2 -1277.79 868.752 -772.575 0.50629 0.572529 -0.625349 -0.157545 
4061 2 -1282.75 929.016 -785.443 0.554758 -0.380162 0.739519 -0.0288378 
3996 2 -1282.21 863.38 -746.649 0.761701 -0.423298 0.395162 0.29065 
3997 2 -1279.21 872.448 -744.034 0.351177 0.0929599 0.519583 0.773347 
3954 2 -1346.87 902.246 -668.164 -0.0211466 0.54023 0.668651 0.5105 
3964 1 -1277.34 949.013 -730.005 0.917143 0.165489 -0.0523892 -0.358771 
4020 2 -1153.25 860.962 -703.385 0.0862578 0.765753 -0.507553 -0.38545 
4067 2 -1233.28 956.321 -802.518 0.43741 -0.79223 0.153463 -0.396854 
3998 2 -1274.61 880.177 -739.872 -0.3654 0.522496 0.218609 0.738709 
4066 2 -1240.94 951.218 -799 -0.0316325 -0.625336 -0.524382 -0.577043 
4034 2 -1268.88 869.202 -768.243 0.118414 0.83395 -0.1299 -0.523099 
4065 2 -1248.74 945.743 -796.416 -0.471403 0.0126609 -0.808179 -0.352796 
3966 2 -1265.99 988.031 -706.113 -0.691716 -0.114014 -0.0409472 0.711936 
4021 2 -1159.97 863.184 -710.274 0.412371 0.0671436 -0.90421 -0.0885771 
3967 2 -1267.14 986.155 -696.431 -0.951974 -0.299206 -0.0230364 -0.0607527 
3968 2 -1266.85 980.397 -688.36 -0.556272 -0.0818654 0.129944 -0.816685 
3969 2 -1267 977.307 -678.845 0.380329 0.182735 0.227883 -0.877512 
3970 2 -1269.27 972.044 -670.837 0.913523 0.351454 0.0274921 -0.202978 
4062 2 -1274.6 932.874 -789.43 0.411319 0.327295 0.678314 0.513405 
3999 2 -1268.5 886.897 -735.75 -0.828362 0.498694 -0.224618 0.121111 
4064 2 -1257.15 941.106 -793.68 -0.564161 0.597558 -0.518764 0.235652 
4063 2 -1265.81 937.151 -791.031 -0.113036 0.775495 0.175185 0.595936 
4000 2 -1263.58 894.61 -731.945 -0.555264 0.14795 -0.637542 -0.51316 
4022 2 -1167.8 864.221 -716.378 0.531097 -0.648572 -0.504893 0.205847 
4023 2 -1175.9 868.76 -719.886 0.0969194 -0.862771 0.206774 0.451084 
4001 2 -1257.88 902.264 -729.436 -0.00570767 -0.32484 -0.440766 -0.836763 
4024 2 -1183.16 872.392 -725.481 -0.297143 -0.335662 0.756205 0.476645 
4033 2 -1259.73 869.854 -764.499 -0.359637 0.579488 0.583493 -0.440897 
4029 2 -1223.6 875.327 -750.194 0.454503 -0.422677 -0.730549 0.284727 
4025 2 -1190.51 877.543 -729.635 -0.427654 0.336764 0.837762 -0.0430889 
4026 2 -1198.11 879.507 -735.884 -0.191378 0.766414 0.451005 -0.415426 
4032 2 -1250.6 871.764 -761.155 -0.552742 -0.148087 0.820087 -0.00204662 
4031 2 -1241.42 874.067 -758.467 -0.410323 -0.723293 0.35628 0.426082 
4002 2 -1253 909.983 -725.632 0.664188 -0.510569 -0.045718 -0.544135 
4030 2 -1232.69 874.359 -753.811 0.111719 -0.823777 -0.246746 0.498023 
4003 2 -1248.09 917.111 -721.053 0.767284 -0.403717 0.481863 0.126872 
4004 2 -1241.86 924.543 -718.606 0.432064 0.177901 0.573199 0.673138 
4005 2 -1234.84 930.997 -716.08 -0.100121 0.605567 0.266989 0.742954 
4028 2 -1214.98 876.123 -745.299 0.447962 0.400773 -0.779012 -0.17847 
4006 2 -1226.31 935.881 -714.812 -0.612828 0.559998 -0.336802 0.444307 
4007 2 -1217.28 939.734 -713.786 -0.682416 -0.0434097 -0.710501 -0.166169 
4008 2 -1207.72 942.069 -713.45 -0.351224 -0.556949 -0.396667 -0.639613 
4009 2 -1197.97 943.524 -712.689 0.32343 -0.601262 0.086847 -0.725489 
4010 2 -1188.7 946.267 -710.623 0.715524 -0.49406 0.46931 -0.15388 
4027 2 -1206.31 878.849 -741.43 0.273839 0.816548 -0.18441 -0.473556 
4011 2 -1180.34 951.525 -710.235 0.630567 0.0586185 0.691134 0.348256 
4012 2 -1171.35 955.574 -710.23 0.180206 0.656169 0.292912 0.671692 
4013 2 -1161.59 957.37 -710.992 -0.223776 0.66027 -0.405367 0.591309 
4014 2 -1152.13 955.235 -712.772 -0.626984 0.0524295 -0.706627 0.32376 
4018 1 -1128.84 901.32 -703.409 -0.16554 0.806924 -0.00816963 -0.566924 
4019 3 -1160.14 910.799 -715.859 -0.107769 0.80733 -0.0188216 -0.579871 
4015 2 -1142.8 951.785 -712.507 -0.607325 -0.503664 -0.496427 -0.361993 
4016 2 -1133.31 949.28 -712.173 -0.0306478 -0.692822 0.0768257 -0.716349 
3984 2 -1230.32 862.874 -679.849 0.522237 0.781525 0.237905 0.244723 
3983 2 -1235.72 870.378 -676.183 0.483696 0.272853 0.769419 -0.315568 
3982 2 -1239.89 878.74 -672.767 -0.013832 -0.39742 0.69147 -0.603105 
3981 2 -1245.24 885.546 -667.997 -0.395873 -0.864382 -0.00603567 -0.309986 
4017 2 -1123.59 947.51 -711.569 0.566097 -0.339332 0.603671 -0.447179 
3946 2 -1353.75 829.486 -663.798 0.286077 -0.395484 0.52036 0.700698 
3947 2 -1356.78 838.716 -662.31 -0.379573 0.174299 0.56475 0.71176 
3948 2 -1358.75 848.094 -659.741 -0.758665 0.600083 0.172007 0.186389 
3938 3 -1305.42 821.145 -654.345 -0.492586 0.489801 0.0338465 -0.718546 
3931 2 -1290.9 849.33 -620.794 0.033895 -0.878496 0.217846 -0.423837 
3932 2 -1283.11 848.401 -626.694 0.326209 -0.34765 0.859344 -0.185081 
3933 2 -1276.68 847.066 -633.993 0.292962 0.349938 0.88179 0.119005 
3930 2 -1299.3 853.38 -617.513 -0.51977 -0.673836 -0.448391 -0.273367 
3828 2 -1279.05 845.361 -542.358 0.160526 0.566221 0.553448 -0.589339 
3949 2 -1359.15 857.825 -657.949 -0.620661 0.477073 -0.457964 -0.421249 
3929 2 -1307.28 857.171 -613.094 -0.505912 -0.00139384 -0.836277 0.211404 
3934 2 -1271.07 846.443 -642.167 0.0745305 0.932382 0.272476 0.225536 
3936 2 -1260.06 846.119 -658.455 -0.348207 0.0989112 -0.931593 0.0332162 
3935 2 -1266.53 845.814 -650.958 -0.18103 0.809458 -0.467129 0.306262 
3827 2 -1274.41 853.471 -539.332 -0.388671 -0.14135 0.787535 -0.456885 
3953 2 -1350.91 894.757 -662.961 0.30842 -0.174927 0.861227 0.364097 
3860 2 -1288.18 864.851 -549.295 -0.376541 0.428644 0.0337848 -0.820573 
3952 2 -1355.33 886.637 -659.198 0.569727 -0.752621 0.33011 6.95485e-05 
3859 2 -1283.3 864.534 -557.791 -0.926469 0.0838247 0.254015 -0.264772 
3861 2 -1295.03 867.919 -542.889 0.341601 0.253895 -0.272474 -0.862904 
3862 2 -1301.12 870.87 -535.686 0.895659 -0.0415992 -0.422204 -0.133451 
3928 2 -1315.37 860.837 -608.924 -0.171083 0.642032 -0.552769 0.502963 
3863 2 -1308.8 872.869 -529.653 0.625486 -0.372655 -0.318417 0.607047 
3950 2 -1357.69 867.483 -656.379 -0.0223972 -0.0226014 -0.699404 -0.714018 
3951 2 -1356.7 877.319 -655.963 0.436485 -0.703004 -0.42094 -0.371585 
3927 2 -1323.6 864.51 -604.673 0.315557 0.817066 0.163399 0.454012 
3926 2 -1331.25 868.939 -600.161 0.521667 0.387601 0.759803 -0.0181233 
3909 2 -1308.54 952.772 -649.387 0.430428 -0.688813 0.525221 0.253794 
3908 2 -1309.78 944.096 -644.865 0.461391 -0.843462 -0.182387 -0.205972 
3925 2 -1339.25 874.083 -597.57 0.369685 -0.296067 0.743821 -0.471601 
3924 2 -1346.54 879.215 -593.362 -0.0879129 -0.803768 0.275006 -0.520193 
3923 2 -1352.82 885.555 -588.951 -0.489052 -0.741435 -0.435894 -0.145256 
3912 2 -1381.56 981.665 -601.735 0.743254 0.353776 0.273577 -0.497566 
3913 2 -1381.25 973.547 -596.079 0.784403 0.539902 -0.19032 0.238737 
3910 1 -1344.19 977.012 -630.19 -0.815927 -0.481162 0.232821 -0.220322 
3914 2 -1381.6 964.366 -592.446 0.186438 0.199545 -0.55685 0.784437 
3915 2 -1381.87 954.999 -589.37 -0.469316 -0.363781 -0.491671 0.636919 
3916 2 -1381.76 945.28 -587.315 -0.794973 -0.582724 -0.16821 -0.0124696 
3917 2 -1379.06 936.035 -585.137 -0.413933 -0.500116 0.362931 -0.668449 
3918 2 -1375.86 927.059 -582.585 0.183491 -0.048066 0.639688 -0.744863 
3919 2 -1372.83 917.907 -580.346 0.621846 0.43412 0.565767 -0.323657 
3920 2 -1368.46 909.037 -580.711 0.558624 0.786754 0.0615094 0.255293 
3907 2 -1310.91 934.651 -642.025 0.183429 -0.394695 -0.696528 -0.570455 
3911 3 -1347.06 945.346 -615.388 -0.809743 -0.481528 0.212331 -0.259542 
3906 2 -1313.3 925.88 -637.928 -0.327776 0.266499 -0.784803 -0.453458 
3905 2 -1316.77 918.214 -632.73 -0.480869 0.845963 -0.224609 0.0516035 
3901 2 -1328.95 901.659 -600.055 0.0710681 -0.990541 -0.068995 -0.0949573 
3902 2 -1326.84 903.353 -609.614 0.208716 -0.613585 0.760979 0.0293651 
3903 2 -1323.91 906.968 -618.329 0.154684 0.130156 0.944361 0.25945 
3904 2 -1320.65 911.363 -626.634 -0.171906 0.726062 0.536658 0.394056 
3921 2 -1363.97 900.749 -583.652 0.148646 0.557791 -0.537947 0.614318 
3922 2 -1358.63 892.621 -585.338 -0.396865 -0.064238 -0.822245 0.402847 
3900 2 -1329.94 901.052 -590.235 -0.0565717 -0.595409 -0.798806 -0.0647817 
3899 2 -1331.52 901.637 -580.492 -0.0929689 0.343444 -0.933301 0.0485008 
3898 2 -1330.22 904.112 -570.986 0.162634 0.912117 -0.373891 -0.0424079 
3897 2 -1329.29 906.409 -561.425 0.0890349 0.849563 0.508461 -0.108546 
3896 2 -1329.53 906.881 -551.499 0.00444553 0.117951 0.992823 -0.0192599 
3895 2 -1329.51 908.153 -541.665 -0.0724211 -0.728699 0.679891 -0.038749 
3855 2 -1310.13 948.015 -585.237 -0.211297 -0.760622 0.613317 -0.0254886 
3854 2 -1307.76 950.775 -576.084 -0.12426 -0.936853 -0.291249 0.148458 
3853 2 -1306.23 952.357 -566.499 0.0662321 -0.362483 -0.925398 0.0886411 
3857 3 -1298.29 909.849 -552.095 0.000860086 0.053683 -0.00499136 -0.998545 
3894 2 -1328.92 910.101 -532.002 -0.105502 -0.984899 -0.13171 0.0386692 
3893 2 -1326.93 914.517 -523.352 -0.0295524 -0.491483 -0.841626 0.221896 
3856 1 -1293.11 903.985 -586.138 0.0151112 0.0784506 -0.0300161 -0.996351 
3852 2 -1305.78 953.207 -556.735 0.06776 0.575089 -0.815074 0.0183244 
3851 2 -1305.13 952.883 -546.788 -0.0139398 0.993314 -0.0895102 -0.0715638 
3850 2 -1303.76 950.777 -537.196 -0.134108 0.724765 0.675567 0.0184309 
3864 2 -1317.17 873.542 -524.55 -0.125176 -0.427143 0.136487 0.885015 
3849 2 -1299.65 947.827 -528.699 -0.179111 -0.166511 0.949966 0.194313 
3865 2 -1325.31 875.044 -519.081 -0.716663 -0.171391 0.599682 0.312089 
3848 2 -1298.64 942.16 -520.58 0.228781 -0.812888 0.490475 0.215188 
3858 2 -1277.3 864.47 -565.768 -0.730222 -0.177282 0.229576 0.618581 
3892 2 -1323.81 919.501 -515.32 0.207292 0.38822 -0.88599 0.146069 
3973 2 -1277.14 949.52 -654.515 -0.608829 -0.487723 -0.345978 0.521299 
3974 2 -1277.65 940.064 -651.587 -0.690078 -0.631161 0.242461 -0.258148 
3975 2 -1277.09 930.186 -651.645 -0.203766 -0.359244 0.621949 -0.665284 
3866 2 -1334.9 876.201 -516.922 -0.732851 0.374414 0.43743 -0.36249 
3847 2 -1296.9 934.851 -514.143 0.417982 -0.84271 -0.334925 -0.0543745 
3971 2 -1270.28 965.75 -663.333 0.732203 0.229269 -0.387373 0.511132 
3801 2 -1263.03 999.702 -554.746 -0.292038 0.540132 -0.713245 -0.338013 
3800 2 -1263.11 991.811 -548.817 -0.444838 0.89486 -0.0333465 -0.01523 
3972 2 -1273.28 957.947 -658.049 0.0860796 -0.182211 -0.512171 0.834908 
3976 2 -1275.14 920.52 -652.343 0.351306 0.115003 0.79728 -0.477182 
3826 2 -1269.45 861.966 -538.18 -0.636895 -0.712777 0.286428 0.0653575 
3980 2 -1252.23 890.632 -663.141 -0.507222 -0.445629 -0.736878 0.0339314 
3979 2 -1258.24 897.555 -659.306 -0.164997 0.270251 -0.792601 0.521079 
3978 2 -1264.04 904.941 -656.33 0.353526 0.788087 -0.169642 0.474509 
3977 2 -1270.74 912.126 -654.863 0.660673 0.602817 0.445298 0.0428096 
3825 2 -1262.91 869.235 -536.83 -0.256057 -0.676749 -0.332124 0.605095 
3824 2 -1256.17 875.907 -534.007 0.27799 -0.167016 -0.792677 0.516227 
3799 2 -1262.05 983.957 -542.725 -0.28992 0.54106 0.733071 0.29293 
3798 2 -1260.78 975.28 -538.243 0.0205193 -0.147761 0.846691 0.510745 
3797 2 -1259.14 968.041 -531.723 0.305222 -0.786781 0.467495 0.263181 
3796 2 -1256.57 962.022 -524.306 0.362353 -0.838246 -0.407483 0.00106698 
3742 2 -1145.21 994.761 -520.829 -0.252773 -0.692699 -0.103576 -0.667492 
3743 2 -1135.59 992.662 -521.163 0.313863 -0.6141 0.506996 -0.517036 
3741 2 -1153.27 999.82 -518.145 -0.604951 -0.530829 -0.589938 -0.0650284 
3823 2 -1252.08 883.256 -528.885 0.440313 0.601451 -0.648148 0.155834 
3744 2 -1126.06 991.166 -523.314 0.672031 0.00603304 0.738907 0.0485087 
3822 2 -1248.99 890.407 -522.813 0.369872 0.882637 0.158167 -0.243166 
3795 2 -1251.82 958.119 -516.549 0.281277 -0.129261 -0.940647 -0.139134 
3740 2 -1159.3 1007.62 -516.902 -0.402362 0.0493753 -0.74426 0.530795 
3803 3 -1230.73 998.096 -514.05 -0.778787 -0.432558 -0.376423 0.254342 
3821 2 -1243.85 895.938 -516.278 -0.0650159 0.48905 0.774366 -0.396183 
3746 2 -1106.42 991.175 -523.338 -0.246453 0.648008 -0.156362 0.703489 
3747 2 -1096.64 992.068 -522.06 -0.680345 0.306416 -0.591016 0.306497 
3745 2 -1116.2 991.36 -524.365 0.412578 0.561782 0.408988 0.58899 
3802 1 -1242.77 1029.34 -524.148 -0.758166 -0.420512 -0.419399 0.269182 
3739 2 -1163.98 1015.86 -514.041 0.257603 0.674593 -0.446184 0.528663 
3642 2 -1001.44 1198.85 -528.196 0.781372 -0.372527 -0.260131 0.427801 
3643 2 -1008.36 1203 -522.663 0.273603 -0.468487 0.135961 0.828961 
3589 2 -978.777 1222.45 -515.292 -0.412568 0.633368 -0.12444 -0.642765 
3644 2 -1015.73 1207.44 -517.734 -0.578116 -0.169812 0.395334 0.693294 
3588 2 -971.853 1215.61 -517.225 -0.779516 0.427274 0.454551 0.0563456 
3829 1 -1264.51 820.098 -505.256 0.010968 0.0624769 0.578065 0.813522 
3831 2 -1247.17 815.301 -461.66 -0.398349 0.351911 -0.470745 -0.704185 
3832 2 -1248.71 824.545 -458.611 0.295228 -0.1169 -0.523984 -0.790326 
3833 2 -1249.37 833.837 -454.913 0.783525 -0.507464 -0.263574 -0.243102 
3834 2 -1250.88 842.952 -451.468 0.628197 -0.578358 0.230239 0.466756 
3835 2 -1253.81 852.228 -449.629 -0.120352 -0.266233 0.669612 0.682829 
3830 3 -1259.76 853.232 -494.797 0.0927688 0.0588817 0.600869 0.79176 
3867 2 -1343.99 878.555 -513.854 -0.159902 0.554782 -0.102219 -0.810061 
3868 2 -1352.52 881.965 -510.174 0.593983 0.122535 -0.420654 -0.6747 
3891 2 -1323.24 925.192 -507.203 0.30279 0.92789 -0.213073 0.0440221 
3890 2 -1320.47 931.579 -500.135 0.178683 0.699818 0.600261 -0.343533 
3889 2 -1316.35 936.218 -492.452 -0.250958 0.0189544 0.933835 -0.254191 
3888 2 -1311.34 942.726 -486.867 -0.457588 -0.732843 0.501372 0.0466935 
3869 2 -1359.3 886.226 -504.406 0.861674 -0.337834 -0.378294 -0.0167368 
3870 2 -1365.14 892.415 -499.433 0.542734 -0.469228 0.0973696 0.689771 
3871 2 -1370.62 898.3 -493.642 -0.142422 -0.173477 0.370478 0.901315 
3872 2 -1374.67 904.616 -487.238 -0.737509 0.325734 0.341318 0.483197 
3873 2 -1376.82 912.553 -481.78 -0.78265 0.541636 0.0383034 -0.30434 
3874 2 -1380.94 920.642 -477.908 -0.137128 0.363625 -0.390985 -0.834328 
3875 2 -1385.39 928.258 -473.398 0.502422 -0.147132 -0.593928 -0.610879 
3876 2 -1389.74 936.805 -471.006 0.829266 -0.523516 -0.166602 0.10243 
3877 2 -1393.96 945.072 -467.605 0.490409 -0.453723 0.403322 0.625273 
3878 2 -1395.94 954.446 -464.972 -0.141646 0.130924 0.626616 0.755081 
3879 2 -1395.88 964.27 -463.65 -0.568367 0.677571 0.229077 0.406669 
3880 2 -1392.98 973.734 -463.694 -0.654235 0.563829 -0.436288 -0.252441 
3881 2 -1390.7 983.451 -464.09 -0.19359 0.0325775 -0.764759 -0.613681 
3884 3 -1351.79 957.67 -476.496 -0.241508 -0.503606 -0.61902 0.55215 
3883 1 -1341.49 990.05 -468.005 -0.25642 -0.545994 -0.563585 0.564368 
3887 2 -1307.74 950.273 -481.494 -0.363236 -0.838818 -0.247241 0.321428 
3886 2 -1304.77 958.516 -476.916 -0.044425 -0.308556 -0.793947 0.521985 
3885 2 -1300.73 966.941 -473.401 0.430214 0.353932 -0.748859 0.358968 
3882 2 -1388.53 992.872 -466.024 0.351086 -0.579095 -0.505687 -0.534479 
3846 2 -1296.37 928.353 -506.689 0.122755 -0.278468 -0.898635 -0.315977 
3845 2 -1291.22 922.565 -500.497 0.0488045 0.552065 -0.725718 -0.407646 
3844 2 -1288.38 916.742 -492.945 -0.309729 0.925313 -0.115087 -0.186062 
3843 2 -1283.38 911.301 -486.46 -0.415029 0.60263 0.679992 0.0468946 
3842 2 -1277.54 906.012 -480.399 -0.20943 -0.174996 0.89427 0.354679 
3836 2 -1258.93 860.773 -449.329 -0.531179 0.506264 0.545745 0.404609 
3794 2 -1246.48 955.484 -508.675 0.131018 0.608571 -0.725062 -0.294551 
3837 2 -1260.96 870.396 -450.677 -0.46545 0.86637 -0.0152752 -0.180348 
3841 2 -1273.62 899.522 -474.056 0.218833 -0.820527 0.402389 0.341952 
3820 2 -1237.8 902.727 -512.409 -0.501792 -0.288662 0.763453 -0.286389 
3838 2 -1263.87 878.057 -456.311 -0.125746 0.61869 -0.679853 -0.37311 
3840 2 -1269.38 892.397 -468.635 0.467076 -0.805435 -0.352312 0.0948181 
3814 2 -1206.14 949.376 -501.309 -0.0450042 0.17387 0.76282 -0.621168 
3815 2 -1208.47 940.106 -503.737 0.409169 0.711747 0.245693 -0.515395 
3839 2 -1266.74 884.664 -463.078 0.279398 -0.184494 -0.86046 -0.384068 
3808 2 -1194.69 1004.63 -488.703 0.537771 0.584693 0.522351 -0.309976 
3809 2 -1192.91 995.079 -490.453 0.634435 0.731144 -0.225234 0.11041 
3811 2 -1195.58 976.014 -494.787 -0.126813 -0.437214 -0.594949 0.662419 
3812 2 -1199.26 966.766 -495.708 -0.545471 -0.757672 -0.0354337 0.356566 
3810 2 -1194.36 985.497 -492.293 0.267044 0.243185 -0.748111 0.556667 
3813 2 -1203.64 958.136 -497.559 -0.481317 -0.576508 0.607802 -0.25797 
3816 2 -1212.51 931.21 -505.488 0.685068 0.558265 -0.467674 0.0174215 
3817 2 -1218.47 923.324 -505.957 0.464381 0.048914 -0.664055 0.583942 
3818 2 -1224.36 915.479 -505.102 -0.147377 -0.712977 -0.420213 0.541632 
3819 2 -1230.72 908.632 -508.576 -0.545734 -0.741384 0.304011 0.245154 
3789 2 -1227.33 972.944 -470.495 -0.275522 -0.800967 -0.323439 0.421813 
3790 2 -1232.11 966.227 -475.864 -0.368478 -0.862127 0.347425 0.0160386 
3791 2 -1235.2 959.752 -482.693 -0.165123 -0.261183 0.936548 -0.165519 
3792 2 -1237.39 955.843 -491.502 -0.127885 0.597963 0.744458 -0.268082 
3793 2 -1241.87 953.66 -500.042 -0.0952475 0.960473 -0.00554535 -0.261514 
3788 2 -1223.32 980.27 -465.128 0.136182 -0.219736 -0.842787 0.472102 
3787 2 -1217.03 987.179 -461.947 0.520155 0.419871 -0.7195 0.188326 
3786 2 -1212.18 995.193 -458.788 0.52082 0.817517 -0.0741504 -0.234338 
3785 2 -1207.37 1003.15 -455.416 0.169558 0.617852 0.529218 -0.556272 
3765 2 -1213.48 992.323 -415.062 0.848072 -0.142107 -0.482268 0.167321 
3764 2 -1204.23 992.294 -418.866 0.587164 0.415021 -0.366502 -0.590486 
3766 2 -1221.96 993.017 -410.117 0.339154 -0.5199 -0.05598 0.782014 
3767 2 -1230.5 995.665 -405.908 -0.263646 -0.446846 0.31484 0.794792 
3768 2 -1239.36 998.297 -402.341 -0.657819 0.163112 0.655784 0.332591 
3763 2 -1195.54 993.134 -423.52 -0.0789351 0.494245 0.11437 -0.858144 
3762 2 -1187.52 995.794 -428.724 -0.704612 0.149238 0.467094 -0.512907 
3769 2 -1246.79 1004.75 -401.152 -0.702521 0.610889 0.208025 -0.300007 
3761 2 -1180.71 1000.39 -434.405 -0.857577 -0.370069 0.318033 0.162682 
3760 2 -1174.12 1005.18 -440.172 -0.345586 -0.468622 -0.0805078 0.809001 
3759 2 -1167.47 1010.67 -445.08 0.362134 -0.228291 -0.463046 0.7761 
3784 2 -1202.35 1011.53 -453.321 -0.337715 -0.00140957 0.761837 -0.552767 
3738 2 -1167.77 1024.47 -510.943 0.565613 0.785198 0.214528 0.132374 
3807 2 -1198.74 1013.66 -488.26 0.200324 -0.11261 0.71186 -0.66366 
3737 2 -1169.7 1033.51 -507.619 0.422629 0.483818 0.67162 -0.369096 
3770 2 -1253.4 1012.02 -399.891 -0.231869 0.582131 -0.428385 -0.651036 
3736 2 -1169.57 1043.11 -505.231 -0.120113 -0.148151 0.772468 -0.605737 
3774 2 -1274.84 1044.31 -407.441 -0.220512 -0.167863 0.726802 0.628455 
3758 2 -1161.53 1017 -449.713 0.831183 0.22608 -0.457504 0.220712 
3771 2 -1259.41 1019.9 -400.748 0.345814 -0.0665387 -0.792283 -0.498271 
3735 2 -1170.77 1052.3 -501.7 -0.452884 -0.735168 0.380353 -0.331294 
3783 2 -1197.11 1019.93 -453.156 -0.705879 -0.57143 0.417178 -0.034131 
3734 2 -1170.09 1062.09 -500.233 -0.62627 -0.715489 -0.228082 0.209379 
3733 2 -1167.95 1071.71 -499.06 -0.0633254 -0.246053 -0.689177 0.678589 
3806 2 -1203.64 1022.28 -488.276 -0.442874 -0.619317 0.279709 -0.58487 
3732 2 -1164.57 1080.77 -497.019 0.468779 0.399103 -0.686601 0.386706 
3731 2 -1161.37 1089.78 -494.555 0.603856 0.776799 -0.110879 -0.140168 
3782 2 -1192.4 1028.6 -453.174 -0.496323 -0.658143 -0.205626 0.527475 
3757 2 -1155.68 1023.76 -453.941 0.718347 0.52589 -0.0881779 -0.446813 
3805 2 -1207.72 1031.26 -489.342 -0.752541 -0.624805 -0.196303 -0.0690353 
3756 2 -1151.62 1032.6 -455.851 0.11811 0.350533 0.539385 -0.756466 
3781 2 -1189.97 1038.03 -451.494 0.0151686 -0.236404 -0.737901 0.63197 
3776 3 -1226.64 1037.01 -425.228 -0.413119 -0.235186 -0.707139 0.523425 
3804 2 -1212.55 1039.96 -489.535 -0.522281 -0.130043 -0.676153 0.503119 
3730 2 -1158.2 1098.92 -492.456 0.248426 0.517741 0.601998 -0.554823 
3729 2 -1154.75 1107.75 -489.849 -0.297561 -0.0854808 0.77801 -0.546673 
3780 2 -1189.09 1047.3 -448.156 0.369588 0.476874 -0.677626 0.420499 
3779 2 -1190.46 1056.3 -444.432 0.525502 0.842263 -0.0372229 0.114263 
3719 2 -1180.44 1088.63 -402.258 0.711059 -0.164091 -0.658285 -0.184744 
3717 2 -1163.05 1080.37 -406.112 -0.42059 0.587283 0.0505062 -0.689675 
3718 2 -1171.54 1084.44 -403.146 0.261622 0.469058 -0.487476 -0.688408 
3716 2 -1155.38 1076.22 -410.667 -0.82921 0.343871 0.385438 -0.213543 
3720 2 -1189.16 1093.37 -401.638 0.562354 -0.630992 -0.248292 0.473242 
3778 2 -1192.3 1065.74 -442.029 0.501829 0.540178 0.57969 -0.346894 
3777 2 -1194.59 1075.09 -439.745 0.0713155 -0.118504 0.789148 -0.598428 
3715 2 -1147.34 1072.03 -414.548 -0.651597 -0.0973798 0.555426 0.507385 
3721 1 -1174.66 1132.47 -423.691 0.205406 -0.0514951 0.868296 -0.448575 
3714 2 -1138.93 1069.26 -418.841 -0.116173 -0.471331 0.238116 0.84122 
3722 3 -1160.03 1106.74 -442.38 0.220831 -0.0742212 0.87647 -0.421337 
3775 1 -1237.75 1069.92 -421.431 -0.380404 -0.208109 -0.722838 0.538042 
3728 2 -1152.68 1117.21 -487.594 -0.566263 -0.717649 0.366116 -0.174026 
3723 2 -1151.11 1155.61 -457.463 0.383365 0.669512 0.604667 -0.197895 
3725 2 -1149.05 1140.56 -469.888 0.23961 0.464365 -0.789842 0.321095 
3727 2 -1151.5 1125.11 -481.8 -0.392308 -0.834478 -0.311587 0.229463 
3726 2 -1149.69 1133.4 -476.597 -0.0766312 -0.321332 -0.817203 0.472284 
3755 2 -1145.81 1040.51 -454.83 -0.52429 -0.197978 0.708887 -0.428257 
3724 2 -1148.83 1148.12 -463.554 0.384359 0.903729 -0.173955 0.0726737 
3754 2 -1139.41 1047.88 -455.899 -0.742133 -0.577925 0.280987 0.190491 
3772 2 -1264.43 1028.26 -402.628 0.563675 -0.666563 -0.487171 -0.0250589 
3773 2 -1269.52 1036.03 -406.118 0.408924 -0.700404 0.242879 0.532189 
3753 2 -1131.92 1053.82 -458.329 -0.284938 -0.567828 -0.225031 0.738744 
3713 2 -1129.56 1069.64 -421.798 0.451559 -0.431773 -0.365268 0.690105 
3749 3 -1124.25 1022.43 -490.192 0.692091 0.381831 -0.540155 -0.288875 
3640 1 -1003.52 1154.23 -512.885 0.812921 -0.154998 -0.541894 -0.146582 
3712 2 -1120.25 1068.56 -425.026 0.809612 -0.052244 -0.581037 -0.0647684 
3752 2 -1123.45 1057.85 -461.646 0.425508 -0.309135 -0.483393 0.699793 
3711 2 -1110.6 1066.77 -426.256 0.466869 0.465419 -0.423758 -0.621166 
3748 1 -1090.18 1029.73 -494.312 0.678528 0.394882 -0.544824 -0.294677 
3710 2 -1101.39 1063.15 -425.829 -0.224588 0.746275 -0.0203264 -0.626275 
3751 2 -1114.3 1060.84 -463.825 0.7877 0.187703 -0.585186 0.0430655 
3750 2 -1105.05 1063.86 -465.356 0.48205 0.590913 -0.273288 -0.586313 
3709 2 -1093.18 1057.52 -425.782 -0.713667 0.484182 0.492426 -0.11732 
3708 2 -1084.4 1053.43 -423.953 -0.500252 -0.227923 0.718585 0.425951 
3707 2 -1076.12 1049.58 -420.064 0.0833321 -0.800951 0.296262 0.513578 
3693 2 -1002.1 1091.21 -476.489 0.55204 -0.171744 0.815422 0.0290214 
3692 2 -1011.11 1089.03 -473.131 0.388811 -0.727224 0.367915 -0.429662 
3691 2 -1020.91 1089.33 -471.62 -0.262956 -0.696133 -0.30904 -0.592239 
3637 2 -1044.22 1123.01 -490.149 -0.344638 0.479836 -0.533521 0.605257 
3636 2 -1053.17 1127.15 -489.161 0.265559 0.734254 -0.0259327 0.624241 
3635 2 -1060.79 1133.45 -489.65 0.712056 0.499673 0.474362 0.135217 
3687 2 -1056.27 1095.17 -456.716 0.506301 0.458901 0.717673 0.134215 
3688 2 -1047.7 1092.18 -460.775 0.21532 0.837607 0.0203646 0.501635 
3686 2 -1065.03 1098.53 -453.523 0.471789 -0.213859 0.804036 -0.291899 
3685 2 -1074.3 1100.95 -450.812 0.0749735 -0.729049 0.312608 -0.60427 
3684 2 -1082.8 1104.04 -446.986 -0.368715 -0.761522 -0.366558 -0.387 
3683 2 -1088.96 1110.23 -442.319 -0.471117 -0.340729 -0.79034 0.193173 
3682 2 -1094.64 1117.63 -439.231 -0.155419 0.290269 -0.753995 0.568402 
3689 2 -1039.43 1089.1 -465.274 -0.418945 0.478556 -0.688777 0.347931 
3690 2 -1030.72 1089.26 -469.941 -0.647704 -0.175917 -0.728822 -0.135463 
3680 2 -1104.92 1133.27 -432.902 0.534461 0.697531 0.476664 -0.0243627 
3681 2 -1099.59 1125.58 -436.225 0.379943 0.772456 -0.261473 0.436563 
3638 2 -1034.67 1120.15 -490.545 -0.630764 -0.083167 -0.765022 0.0998073 
3639 2 -1025.32 1117.69 -492.338 -0.450003 -0.669374 -0.390028 -0.444201 
3695 3 -1017.89 1082.61 -427.808 -0.448587 -0.605258 0.288395 0.590982 
3662 2 -1040.82 1129.13 -417.369 0.947057 0.0472692 0.302669 0.096128 
3661 2 -1047.2 1132.15 -424.366 0.611138 -0.117212 0.386842 -0.680533 
3706 2 -1068.29 1047.88 -414.129 0.328451 -0.741142 -0.519886 0.269343 
3705 2 -1059.65 1048.6 -409.325 0.510548 0.0324918 -0.858499 0.0355592 
3663 2 -1035.06 1129.26 -409.255 0.543214 0.195621 0.129368 0.806173 
3660 2 -1054.37 1134.8 -430.732 -0.17241 -0.44167 0.0621687 -0.878258 
3659 2 -1060.77 1138.65 -437.241 -0.804632 -0.380934 -0.207975 -0.40522 
3704 2 -1051.31 1051.52 -404.935 0.428017 0.698099 -0.510105 -0.263159 
3679 2 -1108.42 1142.03 -429.742 0.282241 0.11843 0.796278 -0.521781 
3678 2 -1108.61 1149.97 -423.855 -0.28303 -0.54481 0.695498 -0.373309 
3677 2 -1109.07 1157.1 -417.008 -0.399355 -0.912277 -0.0872944 0.0254086 
3703 2 -1042.85 1053.49 -400.131 0.00598837 0.847462 0.149259 -0.509405 
3694 1 -984.085 1089.59 -432.928 -0.460896 -0.5901 0.307325 0.587289 
3702 2 -1034.22 1055.1 -395.638 -0.417929 0.40131 0.745639 -0.329101 
3701 2 -1026.3 1058.9 -391.228 -0.469579 -0.45808 0.751035 0.0748646 
3700 2 -1017.25 1062.16 -388.955 -0.320775 -0.753984 0.172392 0.54671 
3634 2 -1066.56 1141.46 -488.885 0.521399 0.162246 0.719745 -0.428702 
3633 2 -1070.65 1150.44 -488.569 -0.0911431 -0.387887 0.630808 -0.665821 
3658 2 -1066.62 1142.8 -443.987 -0.824232 -0.114089 -0.392708 0.391671 
3664 2 -1030.32 1129.61 -400.458 -0.330783 0.140563 -0.0817717 0.92959 
3665 2 -1027.39 1128.57 -391.05 -0.914184 0.098335 -0.19091 0.343731 
3657 2 -1070.7 1148.8 -450.65 -0.112946 0.193902 -0.346878 0.910671 
3699 2 -1008.51 1066.08 -386.487 0.134627 -0.612212 -0.497738 0.59944 
3698 2 -1001.53 1072.97 -384.941 0.498716 0.0729049 -0.765895 0.399214 
3697 2 -994.206 1079.62 -384.099 0.671045 0.591584 -0.425653 -0.136183 
3696 2 -987.314 1086.47 -385.975 0.403712 0.607241 0.18379 -0.659164 
3666 2 -1023.07 1128.82 -382.165 -0.86005 -0.0780447 -0.212062 -0.457442 