ITEM: TIMESTEP
10000000
ITEM: NUMBER OF ATOMS
4067
ITEM: BOX BOUNDS pp pp pp
-4.6310929470000001e+03 4.6704658980000004e+03
-4.6310929470000001e+03 4.6704658980000004e+03
-4.6310929470000001e+03 4.6704658980000004e+03
ITEM: ATOMS id type x y z c_q[1] c_q[2] c_q[3] c_q[4] 
1537 2 -300.033 -377.957 -540.275 0.377305 -0.155515 -0.842247 -0.352246 
1536 2 -292.325 -383.77 -538.211 0.0881096 0.536537 -0.566743 -0.619005 
1538 2 -305.666 -371.112 -544.758 0.506879 -0.790528 -0.32793 0.102959 
1539 2 -310.17 -363.445 -549.238 0.380934 -0.727795 0.339112 0.458483 
1562 3 -366.422 -218.556 -521.748 -0.413407 -0.870414 0.0883469 -0.252329 
1534 1 -253.113 -357.784 -541.665 -0.356008 0.668194 -0.16005 -0.633371 
1552 2 -334.576 -239.514 -556.805 0.66673 -0.699719 -0.247856 -0.0665726 
1553 2 -336.38 -229.844 -557.724 0.515571 -0.590372 0.389328 0.483809 
1550 2 -332.995 -259.178 -555.333 -0.207131 0.330814 -0.670858 -0.630562 
1548 2 -326.937 -277.861 -556.68 -0.655409 0.482867 0.462053 0.351831 
1551 2 -334.183 -249.393 -556.325 0.294375 -0.302993 -0.66163 -0.619504 
1549 2 -329.434 -268.37 -555.729 -0.656458 0.688678 -0.0808873 -0.297058 
1547 2 -326.184 -287.603 -557.868 -0.131258 0.0564214 0.655047 0.741958 
1546 2 -325.785 -297.493 -556.981 0.447281 -0.487485 0.515195 0.54486 
1540 2 -314.594 -355.025 -552.005 -0.100172 -0.16591 0.699876 0.687468 
1541 2 -318.625 -346.027 -552.477 -0.634138 0.431936 0.532684 0.35714 
1545 2 -324.426 -307.15 -555.425 0.657496 -0.751722 -0.0415063 0.0298456 
1544 2 -323.953 -317.085 -554.521 0.386284 -0.365909 -0.650043 -0.542531 
1535 3 -278.483 -333.71 -539.421 -0.371322 0.655421 -0.137476 -0.643152 
1542 2 -322.03 -336.741 -552.368 -0.625612 0.736333 -0.152987 -0.20741 
1543 2 -323.095 -326.927 -553.582 -0.187809 0.211202 -0.680412 -0.676137 
1533 2 -229.315 -317.047 -541.229 0.288776 -0.23664 0.718235 -0.587152 
1554 2 -338.078 -220.213 -558.367 -0.0870433 -0.0423454 0.696823 0.710681 
1532 2 -236.283 -310.189 -539.729 -0.237182 -0.694595 0.295361 -0.611591 
1531 2 -243.476 -303.564 -538.09 -0.629179 -0.643091 -0.408621 -0.153611 
1671 2 -233.507 -214.619 -564.853 -0.406707 -0.146693 0.437068 0.788696 
1530 2 -251.119 -297.719 -535.589 -0.518283 -0.0212268 -0.796378 0.310989 
1529 2 -259.917 -294.37 -532.581 -0.136793 0.654404 -0.464555 0.580716 
1643 3 -221.88 -228.784 -525.524 0.675907 -0.703014 -0.199448 0.0956074 
1528 2 -269.047 -292.586 -529.169 0.277676 0.794492 0.213512 0.496076 
1527 2 -276.447 -293.143 -522.616 0.393286 0.213492 0.885675 0.123803 
1574 2 -320.39 -253.956 -526.58 -0.109179 -0.573893 -0.316878 -0.747205 
1575 2 -311.272 -250.351 -525.192 0.530618 -0.533779 0.295161 -0.588561 
1573 2 -329.611 -257.355 -525.258 -0.536542 -0.168397 -0.734745 -0.379362 
1572 2 -339.198 -259.407 -524.267 -0.615987 0.428662 -0.614207 0.244047 
1648 2 -218.809 -220.532 -570.069 0.736303 -0.488985 -0.317831 -0.343126 
1647 2 -218.105 -230.422 -569.46 0.17252 -0.13311 -0.701595 -0.678442 
1644 2 -220.124 -259.854 -567.113 -0.462165 0.490881 0.514448 0.529889 
1645 2 -219.912 -250.049 -567.299 -0.649033 0.75732 -0.0581743 0.0428796 
1646 2 -218.623 -240.317 -569.044 -0.469819 0.452426 -0.567334 -0.502705 
1571 2 -348.182 -261.487 -520.754 -0.161873 0.827222 -0.0530532 0.53543 
1649 2 -220 -211.206 -567.177 0.82341 -0.457029 0.145706 0.303135 
1576 2 -302.234 -247.547 -522.238 0.882717 -0.0432433 0.463308 0.0654723 
1526 2 -284.525 -294.994 -517.13 0.420596 -0.555605 0.689618 -0.19705 
1570 2 -357.07 -261.649 -516.483 0.335813 0.620016 0.584715 0.401146 
1577 2 -294.085 -246.586 -516.638 0.51493 0.437506 0.196238 0.710582 
1555 2 -339.788 -210.42 -558.681 -0.679408 0.383461 0.415015 0.468108 
1642 1 -208.832 -260.988 -521.359 0.651138 -0.734337 -0.187085 0.0420426 
2065 2 -43.1745 -218.568 -547.138 -0.747493 -0.219003 -0.623477 0.0675838 
2066 2 -34.4285 -222.777 -545.045 -0.601936 -0.536718 -0.137358 -0.575099 
2084 2 -37.5624 -220.272 -599.515 0.517625 -0.298186 0.549204 0.584401 
2082 2 -37.2991 -238.232 -607.716 0.634348 -0.371517 -0.346218 -0.582847 
2081 2 -37.0663 -247.491 -611.156 -0.13443 0.112935 -0.548972 -0.817193 
2080 2 -36.0053 -257.095 -613.316 -0.719523 0.581879 -0.169925 -0.338863 
2079 2 -34.5802 -266.916 -612.934 -0.646124 0.59058 0.394999 0.278775 
2078 2 -33.125 -276.532 -611.098 -0.133091 0.0620055 0.779747 0.608635 
2077 2 -30.9761 -285.951 -608.907 0.36213 -0.574048 0.528341 0.510085 
2076 2 -26.0006 -294.308 -607.479 0.648259 -0.723362 -0.208892 0.11346 
2075 3 -14.8613 -256.482 -573.783 -0.635563 0.71226 0.0203942 -0.297202 
2074 1 2.29671 -286.771 -570.541 -0.627302 0.72968 0.0658479 -0.26405 
2073 2 19.997 -260.554 -535.512 -0.533104 -0.739234 -0.0301569 -0.410394 
2072 2 13.8235 -252.919 -535.097 -0.678017 -0.481937 -0.546697 0.0956675 
2071 2 6.74037 -246.027 -535.105 -0.414923 0.148322 -0.684187 0.581143 
2067 2 -26.3429 -226.99 -541.203 0.138074 -0.459385 0.329459 -0.813239 
2070 2 -0.709747 -239.514 -533.985 0.218837 0.672602 -0.292337 0.643626 
2068 2 -18.2028 -231.366 -537.812 0.750253 -0.069597 0.551315 -0.35823 
2069 2 -9.57445 -234.934 -534.493 0.670994 0.547831 0.406632 0.290344 
2083 2 -37.1637 -229.555 -602.933 0.810069 -0.580155 0.0348362 0.0774281 
2085 2 -35.3181 -210.655 -597.757 -0.253706 0.115767 0.556635 0.782553 
2064 2 -51.351 -213.285 -549.068 -0.376265 0.314125 -0.550406 0.675872 
1617 2 -373.052 -94.455 -520.628 -0.318116 -0.314031 0.208813 -0.869818 
1672 2 -239.067 -208.997 -559.036 -0.879387 0.242365 0.337405 0.232584 
1673 2 -244.375 -203.505 -552.686 -0.723152 0.426085 0.0627569 -0.539967 
1560 2 -344.529 -172.031 -529.32 0.811306 -0.322656 0.0695144 0.482539 
1559 2 -342.804 -178.196 -536.893 0.887101 -0.27651 -0.180279 -0.322636 
1558 2 -340.947 -185.696 -543.1 0.261489 -0.0237099 -0.462894 -0.846635 
1557 2 -340.725 -193.741 -548.947 -0.510422 0.266153 -0.364103 -0.732162 
1674 2 -250.14 -198.553 -546.325 -0.121774 0.370603 -0.380214 -0.838607 
1603 2 -318.91 -180.508 -521.332 -0.0791214 -0.0544551 -0.890858 -0.444011 
1556 2 -341.573 -201.356 -555.22 -0.900634 0.384475 -0.147904 -0.138426 
1669 1 -242.03 -192.338 -605.569 -0.0213316 -0.157293 0.346422 0.924552 
1675 2 -255.537 -191.56 -541.951 0.487235 -0.183773 -0.567456 -0.637828 
1604 2 -317.176 -172.733 -527.157 0.1882 -0.763197 -0.471131 -0.400185 
1605 2 -313.132 -166.031 -533.261 0.411987 -0.862715 0.285492 -0.0669616 
1668 2 -258.17 -156.229 -631.343 0.0620914 0.282635 -0.881099 0.374067 
1610 2 -297.84 -132.125 -565.3 -0.0819628 0.0311821 -0.831128 -0.549123 
1611 2 -297.315 -123.049 -569.421 0.5473 -0.533542 -0.496098 -0.411925 
1612 2 -297.784 -113.169 -570.476 0.628065 -0.764767 0.077007 0.121389 
1613 2 -298.828 -103.486 -572.305 0.242694 -0.462799 0.70782 0.475297 
1614 2 -299.874 -94.3011 -576.115 -0.29566 0.367338 0.743869 0.473611 
1676 2 -258.751 -182.791 -538.688 0.845214 -0.507923 -0.164362 -0.0247429 
1677 2 -261.274 -174.262 -534.389 0.628118 -0.293193 0.230507 0.682914 
1678 2 -262.742 -167.186 -527.553 -0.0411061 -0.0677522 0.420486 0.903831 
1670 3 -252.856 -169.49 -581.388 -0.0238495 -0.176712 0.341849 0.922683 
1659 2 -251.683 -130.327 -554.797 -0.235322 0.917184 0.311549 -0.0795872 
1660 2 -254.17 -126.915 -563.752 -0.0676204 0.824681 -0.547552 -0.124563 
1661 2 -255.069 -124.695 -573.296 0.0204943 0.0670827 -0.99425 0.0809177 
1667 2 -259.066 -149.433 -624.235 0.302513 0.829583 -0.418021 0.213391 
1666 2 -258.362 -142.328 -617.323 0.326067 0.849571 0.370588 -0.18594 
1662 2 -255.464 -126.044 -583.09 -0.0162484 -0.724551 -0.688184 0.034128 
1665 2 -258.359 -134.849 -610.763 0.0866136 0.23365 0.872358 -0.420591 
1664 2 -257.171 -129.691 -602.35 -0.191775 -0.512301 0.81237 -0.202051 
1663 2 -255.578 -126.977 -592.913 -0.145893 -0.969803 0.191361 0.0397218 
1679 2 -264.466 -159.58 -521.475 -0.713167 0.360804 0.275989 0.533894 
1609 2 -301.469 -139.851 -560.266 -0.468336 0.639698 -0.593197 -0.139875 
1608 2 -305.225 -146.963 -554.446 -0.368372 0.872111 0.154887 0.282374 
1607 2 -307.082 -153.092 -546.924 -0.078786 0.391983 0.853205 0.334938 
1606 2 -309.794 -159.642 -540.021 0.277838 -0.422401 0.825849 0.249714 
1615 1 -340.426 -85.8982 -553.609 0.748039 0.521009 -0.0125839 0.410887 
1616 3 -327.455 -113.63 -536.626 0.77396 0.519682 -0.00753028 0.361745 
1658 2 -247.732 -136.731 -548.307 -0.310629 0.320686 0.85151 0.274957 
1657 2 -245.224 -145.739 -545.163 0.191799 -0.464147 0.660771 0.557819 
1656 2 -240.28 -153.994 -542.93 0.521283 -0.776195 0.0282557 0.353535 
1655 2 -234.059 -161.742 -542.51 0.674944 -0.45501 -0.552244 -0.18012 
1654 2 -228.314 -169.514 -544.445 0.290945 0.160542 -0.611896 -0.717747 
1747 2 -296.583 -73.5893 -544.445 0.669098 0.615668 0.341978 -0.2373 
1748 2 -295.034 -83.3544 -544.388 0.530926 0.755775 -0.236503 0.301643 
1749 2 -293.232 -92.8576 -546.375 0.0612013 0.232665 -0.750315 0.61575 
1680 2 -264.804 -152.073 -515.101 -0.81528 0.538999 -0.141086 -0.157776 
1750 1 -249.863 -93.2558 -527.712 0.339531 -0.18659 -0.67483 -0.628098 
1653 2 -224.028 -177.765 -547.784 -0.465895 0.525992 -0.31779 -0.636619 
1652 2 -220.935 -186.544 -551.28 -0.811863 0.551695 0.186517 0.0415063 
1651 2 -219.651 -195.438 -555.422 -0.509469 0.304327 0.493481 0.635848 
1650 2 -220.213 -202.854 -561.843 0.325153 -0.103376 0.376914 0.861118 
1602 2 -321.703 -187.183 -514.565 -0.394039 0.721134 -0.566318 -0.0631095 
1746 2 -298.819 -64.0566 -544.162 0.175417 0.0283249 0.734651 -0.654764 
1751 3 -259.5 -59.653 -525.166 0.377099 -0.221998 -0.664069 -0.606238 
2063 2 -59.7882 -207.976 -549.986 0.266812 0.660926 -0.136217 0.688064 
2062 2 -68.7992 -203.855 -550.48 0.671019 0.531107 0.432259 0.284273 
2061 2 -77.8549 -200.045 -551.571 0.644919 -0.0789716 0.655103 -0.385595 
2060 2 -86.2941 -195.068 -552.117 0.11647 -0.539462 0.398392 -0.732597 
2104 2 -90.2819 -142.839 -665.164 0.499083 0.112298 0.588847 -0.625751 
2103 2 -95.6547 -134.64 -665.78 -0.200342 -0.517474 0.458488 -0.69417 
2105 2 -85.4131 -151.016 -662.273 0.864151 0.439603 0.244801 -0.00806138 
2106 2 -81.5573 -159.225 -658.291 0.578103 0.49943 -0.0459549 0.643626 
2059 2 -94.7798 -190.311 -550.766 -0.484098 -0.699636 -0.262119 -0.455469 
2101 1 -115.438 -128.314 -623.448 -0.275438 0.402279 -0.447558 0.749665 
2102 3 -84.9276 -143.489 -615.753 -0.310818 0.400893 -0.457464 0.730345 
2100 2 -116.551 -131.322 -576.367 -0.658062 -0.0559235 0.743776 0.103076 
2096 2 -77.3164 -130.494 -574.578 0.628026 0.255458 -0.688681 -0.256989 
2097 2 -87.1419 -130.575 -575.209 0.618989 -0.331958 -0.617096 0.354752 
2098 2 -96.9241 -130.931 -574.519 0.122157 -0.727055 -0.159025 0.656642 
2099 2 -106.715 -131.989 -575.088 -0.394795 -0.572986 0.483019 0.531522 
2058 2 -104.198 -186.923 -550.277 -0.684754 -0.159667 -0.709461 0.0477762 
2057 2 -112.874 -182.222 -549.798 -0.353065 0.336955 -0.627146 0.607037 
2056 2 -121.17 -176.992 -548.929 0.263307 0.708045 -0.0859789 0.649577 
2053 2 -148.985 -167.597 -549.048 0.0538425 -0.697004 0.192962 -0.688514 
2054 2 -139.146 -169.103 -549.353 0.6042 -0.211514 0.64296 -0.420484 
2055 2 -129.742 -171.973 -548.552 0.661095 0.522589 0.504477 0.188033 
2052 2 -158.657 -168.449 -546.927 -0.382891 -0.582741 -0.480814 -0.531626 
2051 2 -168.508 -169.092 -545.98 -0.654339 0.0040025 -0.755943 -0.019328 
2107 2 -75.9513 -165.575 -653.304 -0.235578 0.331386 -0.31902 0.856103 
2050 2 -178.138 -168.968 -543.538 -0.39054 0.607956 -0.492007 0.48559 
2049 2 -187.66 -168.208 -541.063 0.120553 0.7792 0.0966418 0.607433 
2095 2 -67.8024 -130.308 -577.056 0.189602 0.586803 -0.145085 -0.773734 
2108 2 -69.1893 -169.829 -647.526 -0.851108 0.00165267 -0.465908 0.241955 
2094 2 -58.4518 -129.978 -580.391 -0.490968 0.450448 0.378074 -0.642734 
2109 2 -61.5676 -171.962 -641.647 -0.695988 -0.230541 -0.375008 -0.567292 
2027 2 -88.4445 -76.3998 -515.441 -0.462903 -0.372789 -0.615902 0.517121 
2028 2 -86.9881 -86.2302 -515.515 -0.766154 -0.635103 -0.0913375 0.0361903 
2026 2 -93.2051 -67.7936 -514.87 0.0342981 0.37603 -0.620483 0.687332 
2048 3 -151.05 -193.557 -514.462 0.517756 -0.486004 0.654385 -0.259825 
2155 1 -52.2113 -92.3152 -539.183 0.120692 0.852626 0.376089 0.342081 
2110 2 -53.9424 -170.586 -635.415 0.122605 -0.390595 -0.0716066 -0.909547 
2086 2 -35.9012 -201.46 -594.105 -0.73768 0.534425 0.267555 0.314057 
2093 2 -50.9633 -135.349 -584.244 -0.816056 0.240862 0.511857 0.118492 
2092 2 -47.3437 -143.963 -587.391 -0.247473 -0.124929 0.568712 0.774413 
2091 2 -44.8517 -153.358 -588.989 0.481303 -0.529567 0.348717 0.60523 
2090 2 -42.2903 -162.871 -589.305 0.727626 -0.649206 -0.200025 -0.0952965 
2089 2 -40.048 -172.453 -590.292 0.391252 -0.213866 -0.643946 -0.621705 
2088 2 -38.8726 -182.277 -591.301 -0.211612 0.258596 -0.631948 -0.699278 
2087 2 -36.4946 -191.929 -591.363 -0.586902 0.708646 -0.18817 -0.343452 
2148 2 -29.7751 -64.82 -601.193 0.689481 -0.533701 -0.229177 0.432732 
2111 2 -46.806 -168.338 -628.92 0.767331 -0.359003 0.200435 -0.492083 
2156 3 -27.1295 -86.9306 -562.892 0.126333 0.847907 0.355464 0.372477 
2112 2 -40.0486 -164.683 -622.697 0.850581 -0.0202557 0.465431 0.243876 
2113 2 -32.1138 -162.17 -617.388 0.297566 0.417419 0.360763 0.779144 
2114 2 -23.571 -159.023 -613.435 -0.39623 0.429175 -0.1362 0.800163 
2115 2 -15.4587 -157.354 -608.1 -0.803668 0.247354 -0.483521 0.243189 
2116 2 -6.47597 -156.513 -604.186 -0.785997 -0.25212 -0.36277 -0.432482 
2117 2 1.47146 -157.059 -598.214 -0.0331404 -0.48559 -0.0212871 -0.873299 
2118 2 10.0977 -157.147 -593.362 0.740765 -0.269205 0.261449 -0.557172 
2147 2 -21.747 -70.1127 -603.409 0.721474 -0.10155 -0.618247 -0.294844 
2146 2 -13.227 -74.805 -605.137 0.24208 0.438513 -0.454314 -0.736683 
2134 2 88.5411 -101.745 -568.583 0.266727 -0.63183 -0.663826 0.2983 
2119 2 16.7981 -156.064 -586.207 0.907055 0.0629776 0.29371 0.294991 
2135 2 81.0575 -102.161 -575.034 -0.027776 -0.877395 0.00434762 0.478944 
2136 2 72.5332 -102.837 -580.046 -0.369825 -0.535758 0.731799 0.201649 
2137 2 64.842 -104.028 -586.157 -0.484251 0.315345 0.800535 -0.158752 
2138 2 56.2419 -103.384 -591.024 -0.326681 0.819922 0.180074 -0.434259 
2139 2 47.804 -100.279 -595.269 0.0467284 0.692011 -0.547739 -0.467888 
2140 2 40.427 -95.5755 -599.88 0.481539 0.00385317 -0.868008 -0.121109 
2141 2 32.1735 -92.6687 -604.643 0.528609 -0.608554 -0.506378 0.306295 
2142 2 22.9801 -90.0419 -607.02 0.210274 -0.737938 0.125598 0.628854 
2143 2 14.068 -85.7582 -607.782 -0.491756 -0.24885 0.570433 0.608979 
2144 2 5.29176 -81.7084 -605.719 -0.710167 0.273247 0.647058 -0.0481073 
2145 2 -4.08248 -78.6128 -605.604 -0.381038 0.696092 0.127171 -0.595058 
2165 2 26.6417 -84.1733 -567.226 -0.497822 0.618697 -0.59743 -0.111648 
2166 2 30.8676 -76.7706 -572.22 -0.265142 -0.112674 -0.831542 -0.474913 
2167 2 36.1608 -69.5732 -576.404 0.281462 -0.679301 -0.508177 -0.448425 
2164 2 21.7189 -91.909 -563.335 -0.430223 0.840053 0.0414541 0.327875 
2163 2 18.0818 -100.902 -561.522 -0.109231 0.431955 0.661921 0.602781 
2000 2 -1.79385 -79.1701 -534.169 0.177234 0.263573 0.16107 -0.934438 
2120 2 22.1804 -154.887 -577.956 0.48472 0.18114 0.104979 0.849243 
2162 2 12.9326 -108.922 -558.736 0.430372 -0.243251 0.763006 0.41645 
2161 2 6.13267 -114.886 -554.662 0.498942 -0.754486 0.359183 -0.229773 
1999 2 1.87252 -76.2829 -542.857 -0.631262 0.0916653 0.258917 -0.725305 
1998 2 3.59742 -71.5399 -551.362 -0.962435 -0.247697 0.0890233 0.0666339 
2160 2 -1.32018 -119.32 -549.774 0.00485739 -0.758579 -0.440309 -0.480272 
2121 2 26.3434 -155.665 -568.997 -0.362544 0.092898 -0.107053 0.921125 
2159 2 -8.75582 -122.764 -544.211 -0.304144 -0.321557 -0.83071 -0.337666 
2129 3 64.5475 -130.672 -545.632 0.243576 -0.327742 -0.912753 0.011731 
2122 2 29.1547 -157.236 -559.592 -0.940822 -0.0509649 -0.0861486 0.323783 
2158 2 -16.9202 -125.77 -539.404 -0.491453 0.335393 -0.801346 0.0618937 
2157 2 -23.5835 -129.339 -533.102 -0.271001 0.870387 -0.237685 0.335396 
2123 2 30.3994 -158.707 -549.843 -0.782923 -0.156873 -0.133082 -0.587121 
2124 2 34.44 -159.75 -540.767 0.0467304 -0.108692 0.0234395 -0.9927 
2125 2 36.4643 -160.2 -531.113 0.827976 -0.0240311 0.0275876 -0.559569 
2126 2 37.9138 -160.193 -521.32 0.970273 0.0725848 0.0878438 0.213506 
2001 2 -6.15514 -83.2101 -526.312 0.837074 0.372877 -0.147902 -0.372014 
2002 2 -11.4295 -88.598 -519.838 0.77149 0.03352 -0.379802 0.509342 
1997 2 3.72376 -65.9882 -559.565 -0.60003 -0.17777 -0.192934 0.755737 
2168 2 38.7239 -61.1581 -580.964 0.507051 -0.842175 0.179376 0.0382662 
2128 1 80.1553 -136.549 -514.849 0.252388 -0.336359 -0.906821 -0.0289626 
1996 2 3.45826 -60.0967 -567.532 0.144849 0.0804775 -0.314078 0.934825 
2149 2 -37.7477 -59.883 -597.93 0.0915974 -0.406571 0.114699 0.901751 
2133 2 94.5719 -102.207 -560.762 0.316719 0.0662756 -0.944777 -0.0519 
2150 2 -45.0802 -57.5286 -591.646 -0.675274 -0.0915269 0.294322 0.670076 
2132 2 99.955 -103.023 -552.522 0.128546 0.73125 -0.633162 -0.218761 
2131 2 105.421 -105.928 -544.816 -0.241846 0.907276 0.239137 -0.247335 
2130 2 111.216 -109.39 -537.606 -0.374624 0.350215 0.85756 0.0399541 
1745 2 -299.566 -54.1884 -543.937 -0.486584 -0.516638 0.477946 -0.51758 
1744 2 -298.344 -44.5137 -542.557 -0.644818 -0.754323 -0.0289291 0.119872 
1743 2 -295.7 -35.6374 -539.22 -0.212341 -0.535917 -0.636932 0.511881 
1742 2 -292.89 -27.0472 -535.114 0.240836 0.184145 -0.829288 0.469436 
1741 2 -290.558 -18.8249 -530.108 0.494123 0.779677 -0.377882 0.0717692 
1740 2 -287.439 -10.7148 -525.368 0.343048 0.768789 0.387077 -0.376103 
1739 2 -284.374 -3.55475 -519.353 -0.039162 0.244987 0.876889 -0.41172 
2154 2 -63.837 -50.5993 -557.923 0.948999 -0.0286983 -0.17219 -0.262543 
2153 2 -60.5769 -51.9516 -567.124 0.380185 0.103101 -0.138139 -0.908706 
2152 2 -55.9696 -52.9645 -575.868 -0.538094 0.246966 0.0638236 -0.803361 
2151 2 -50.6434 -54.6717 -584.032 -0.938273 0.0971765 0.302421 -0.136904 
2169 2 39.8947 -52.4357 -585.453 0.287117 -0.405286 0.760857 0.417616 
1995 2 1.56192 -54.6176 -575.618 0.753956 0.28418 -0.0974211 0.58421 
2170 2 40.2033 -43.8621 -590.548 -0.22639 0.34073 0.814752 0.410888 
2171 2 38.8352 -35.8281 -596.315 -0.584979 0.770743 0.252497 7.04984e-05 
2172 2 36.3089 -26.7125 -599.261 -0.37246 0.605732 -0.472392 -0.520776 
2173 2 33.7219 -17.2471 -600.893 0.142515 -0.161598 -0.761829 -0.610894 
2174 2 33.5423 -7.44654 -602.828 0.461135 -0.713093 -0.439004 -0.293475 
2175 2 34.0036 1.52496 -606.942 0.568726 -0.713114 0.253216 0.322338 
2176 2 32.5116 11.2499 -608.294 -0.0366562 -0.312748 0.551349 0.772567 
2177 2 27.8383 19.7738 -606.921 -0.684392 0.218128 0.485268 0.49854 
2178 2 23.3324 27.8158 -603.293 -0.845493 0.504025 0.0582476 -0.16646 
1993 1 -20.9118 -18.312 -555.584 -0.0856864 0.192632 -0.273632 0.938444 
2179 2 20.6925 35.9204 -598.414 -0.393262 0.273981 -0.33472 -0.811321 
2180 2 18.8953 43.1669 -591.859 0.383207 -0.0396092 -0.496688 -0.777743 
2181 2 15.3582 50.8448 -586.7 0.862262 -0.433241 -0.248888 -0.0828313 
2183 3 46.5592 14.9581 -566.133 0.449397 0.792803 0.41167 0.00584635 
2182 1 30.828 37.203 -544.212 0.402825 0.781336 0.476639 0.00786929 
1994 3 -5.30173 -33.9551 -528.432 -0.0532886 0.210305 -0.252649 0.942921 
1992 2 -32.6057 9.1965 -519.124 0.486672 -0.460642 -0.736578 0.091719 
2187 2 79.3542 7.11821 -534.603 -0.163704 -0.711559 -0.400311 -0.553746 
2186 2 71.3535 6.794 -528.781 -0.448101 -0.197535 -0.866103 -0.100256 
2185 2 63.9027 7.71173 -522.362 -0.322433 0.536314 -0.727937 0.280201 
2188 2 88.5626 9.00505 -537.765 0.30397 -0.750543 0.313074 -0.496257 
2184 2 57.6005 10.98 -515.58 0.185325 0.916405 -0.00787916 0.354674 
2189 2 97.8622 10.6993 -540.944 0.59309 -0.246162 0.76651 -0.0105196 
2190 2 106.856 14.1455 -543.449 0.391103 0.454155 0.658788 0.454731 
2191 2 115.956 16.5526 -546.448 -0.135202 0.753728 0.0707636 0.639223 
2199 2 191.85 35.7003 -548.752 -0.756187 0.186076 -0.489574 0.392268 
2198 2 182.237 34.9295 -551.056 -0.159521 0.631526 -0.148352 0.744124 
2197 2 172.651 32.5558 -551.705 0.370229 0.497833 0.458206 0.636506 
2196 2 163.287 29.2344 -551.084 0.694936 -0.104132 0.705506 0.0920963 
2192 2 125.219 19.6764 -548.123 -0.540644 0.580191 -0.540731 0.280521 
2193 2 134.311 22.6997 -550.518 -0.648787 -0.162958 -0.656641 -0.348343 
2194 2 143.942 25.2909 -550.583 -0.144711 -0.690094 -0.228106 -0.671414 
2195 2 153.706 26.591 -551.177 0.458792 -0.653134 0.268196 -0.539441 
2200 2 200.651 34.5858 -544.431 -0.77924 -0.236839 -0.499719 -0.294914 
2201 2 209.628 33.724 -540.335 -0.222941 -0.482739 0.0176279 -0.846729 
2202 2 217.499 31.4202 -534.778 0.540112 -0.2681 0.361279 -0.711251 
2217 2 231.118 77.6334 -585.286 -0.624601 -0.0622751 0.400869 0.667308 
2218 2 225.25 81.194 -578.265 -0.953134 0.201585 0.181783 -0.133622 
2219 2 221.656 84.8508 -569.871 -0.44246 0.0883737 -0.126174 -0.883459 
2203 2 225.033 29.2568 -528.624 0.861934 0.0703969 0.501396 0.0267658 
2204 2 233.693 28.6067 -523.863 0.502945 0.56515 0.25317 0.602957 
2205 2 242.85 26.2636 -521.165 -0.288765 0.583061 -0.218012 0.72741 
2220 2 220.914 87.7679 -560.483 0.455627 -0.0292126 -0.133042 -0.879688 
2479 1 163.569 2.39372 -521.944 0.218414 -0.207098 -0.00988489 -0.953577 
2481 2 197.494 -30.3664 -521.852 -0.250628 0.321026 0.0135375 0.913206 
2216 2 238.024 73.716 -591.245 0.224593 -0.419281 0.15756 0.865411 
2221 2 220.589 90.5139 -550.963 0.960606 -0.241396 -0.081642 -0.110902 
2215 2 244.314 68.7797 -597.218 0.783673 -0.408316 -0.20069 0.422917 
2222 2 219.37 95.152 -542.298 0.706094 -0.258578 0.194562 0.629853 
2206 2 252.588 26.08 -519.177 -0.692541 0.282137 -0.637523 0.185339 
2210 3 250.279 44.5657 -562.008 -0.697839 0.417156 0.556827 -0.170134 
2214 2 251.17 63.8212 -602.31 0.773393 -0.0794769 -0.477734 -0.409044 
2213 2 259.181 58.605 -604.833 0.192621 0.463572 -0.418086 -0.757101 
2212 2 267.244 53.0303 -606.32 -0.507285 0.649493 0.0523074 -0.563991 
2211 2 274.436 46.423 -607.945 -0.730412 0.349057 0.568207 0.147645 
2209 1 283.256 32.8712 -563.603 -0.707831 0.411375 0.541626 -0.190752 
2255 2 317.491 78.8936 -559.486 -0.032197 -0.930252 -0.246644 -0.269743 
2256 2 322.469 79.6648 -568 0.237092 -0.744208 0.573772 -0.24643 
2257 2 328.95 80.2329 -575.464 0.355042 -0.0267114 0.923051 0.14563 
2258 2 334.975 82.4065 -582.995 0.00141997 0.705998 0.620861 0.340729 
2294 2 326.624 54.6614 -526.312 -0.172381 0.363583 0.538546 0.74031 
2293 2 321.653 46.2547 -527.99 0.454549 -0.0648087 0.640726 0.615349 
2292 2 316.693 37.978 -529.95 0.739709 -0.489097 0.451487 0.0988635 
2254 2 312.177 78.0805 -551.213 -0.230411 -0.38016 -0.884193 -0.1435 
2253 2 307.241 76.7654 -542.702 -0.265003 0.485434 -0.829716 0.0754891 
2295 2 330.444 63.6513 -524.58 -0.726423 0.635242 0.0685848 0.253126 
2259 2 339.486 86.3972 -590.747 -0.274869 0.934201 -0.14931 0.171526 
2296 2 333.003 72.9105 -522.359 -0.731805 0.382632 -0.349496 -0.442614 
2207 2 262.348 27.6501 -519.117 -0.586701 -0.382273 -0.546446 -0.459397 
2260 2 343.272 91.1878 -598.499 -0.394424 0.450455 -0.791881 -0.120185 
2252 2 301.429 75.7699 -534.808 -0.116936 0.94204 -0.141422 0.280868 
2251 2 294.18 75.7242 -527.95 0.260662 0.666257 0.642923 0.273508 
2250 2 286.557 76.8184 -521.616 0.413999 -0.138271 0.893659 -0.104211 
2249 2 279.113 78.2667 -515.274 0.155364 -0.754747 0.506464 -0.386928 
2208 2 272.193 27.7858 -518.041 -0.0137699 -0.683827 0.0140379 -0.729379 
2297 2 334.875 81.8637 -518.598 -0.0112839 -0.0443831 -0.449266 -0.892224 
2223 2 219.103 100.934 -534.311 -0.0311584 -0.102842 0.325298 0.939486 
2224 2 217.297 106.967 -526.634 -0.761125 0.149305 0.345461 0.528255 
2371 1 234.157 161.85 -518.651 -0.45547 -0.159408 -0.667323 -0.567288 
2225 2 213.821 112.914 -519.537 -0.865604 0.376772 0.0935171 -0.31627 
2261 2 348.052 96.8139 -605.118 -0.1199 -0.327369 -0.863827 -0.36367 
2370 2 249.564 169.783 -562.485 0.157343 0.77534 0.0843102 -0.605791 
2262 2 352.541 102.226 -611.999 0.223569 -0.881383 -0.265766 -0.320234 
2263 1 314.574 125.55 -627.381 0.877359 0.178329 -0.202357 0.396853 
2264 3 303.657 111.351 -597.37 0.891271 0.116638 -0.206598 0.386457 
2265 2 269.577 139.5 -624.626 0.951469 0.101168 -0.178193 0.229605 
2266 2 266.094 136.854 -615.666 0.493469 -0.080079 -0.108194 0.859284 
2267 2 263.923 135.737 -606.063 -0.458133 0.0117764 0.0122494 0.888721 
2268 2 264.226 135.723 -596.114 -0.972237 0.0297894 -0.141932 0.18364 
2269 2 267.046 135.791 -586.601 -0.795 -0.167291 -0.0710329 -0.578742 
2270 2 269.704 133.897 -577.248 -0.00447837 -0.235405 0.0710622 -0.969286 
2271 2 273.651 132.122 -568.369 0.730576 -0.0597089 0.249122 -0.632955 
2275 2 283.273 121.469 -531.835 -0.918834 0.0544466 -0.151655 0.36025 
2276 2 286.742 121.99 -522.646 -0.836299 -0.00477359 -0.0586037 -0.545112 
2274 2 282.073 123.317 -541.47 -0.291699 0.0220636 -0.0864457 0.95234 
2369 2 258.463 173.404 -560.287 -0.410996 0.370457 0.684735 -0.474322 
2368 2 266.457 178.731 -557.983 -0.600447 -0.377978 0.698994 -0.0894619 
2273 2 280.075 126.602 -550.575 0.518104 0.162306 -0.0939491 0.834505 
2272 2 277.608 130.09 -559.509 0.946342 0.2126 0.0892216 0.226447 
2367 2 273.348 185.715 -556.797 -0.509594 -0.750871 0.0642356 0.415188 
2366 2 281.142 190.963 -553.764 0.0200132 -0.630815 -0.513416 0.581442 
2365 2 288.012 196.2 -549.056 0.434081 -0.00240657 -0.853142 0.289338 
2364 2 295.848 200.209 -544.488 0.463238 0.692923 -0.511622 -0.208593 
2363 2 303.875 204.843 -541.112 0.1146 0.763373 0.25717 -0.58137 
2362 2 310.687 209.219 -535.414 -0.290338 0.266127 0.833754 -0.386956 
2361 2 317.742 213.594 -529.905 -0.47964 -0.394094 0.783004 -0.039254 
2360 2 324.501 216.151 -523.233 -0.239268 -0.88729 0.267912 0.289294 
2394 2 369.12 120.229 -533.433 -0.488188 -0.0129487 -0.762713 0.423998 
2393 2 362.728 127.737 -533.196 0.0898466 0.531423 -0.46959 0.699287 
2392 2 357.832 136.132 -531.154 0.596996 0.760638 0.110193 0.229965 
2391 2 355.52 144.792 -527.075 0.39679 0.498532 0.693637 -0.335993 
2390 2 353.025 152.693 -521.624 0.00599726 -0.254576 0.834269 -0.489031 
2395 2 376.477 113.671 -534.019 -0.668527 -0.546569 -0.494546 -0.0987858 
2396 2 383.836 106.997 -534.384 -0.391942 -0.655441 0.128105 -0.632746 
2389 2 350.349 160.455 -516.052 -0.3292 -0.839705 0.297252 -0.313312 
2397 2 391.151 100.355 -533.382 0.368788 -0.177575 0.61558 -0.673442 
2359 2 331.859 220.202 -518.038 0.113868 -0.693182 -0.524034 0.481582 
2399 3 400.628 151.024 -527.5 0.652708 -0.0816942 -0.657218 -0.367918 
2398 1 427.887 129.937 -533.256 0.63857 -0.0699732 -0.675303 -0.362352 
2400 2 447.73 172.667 -530.244 0.37208 0.290564 -0.383263 -0.793876 
2401 2 440.352 176.748 -525.039 0.817044 -0.140454 -0.467173 -0.307346 
2402 2 434.053 182.103 -519.659 0.718428 -0.317093 -0.281179 0.55159 
1365 2 -394.358 -362.851 -393.515 -0.327406 -0.253735 -0.594566 0.689141 
1366 2 -393.613 -372.715 -392.183 -0.790254 -0.499932 -0.191801 0.297957 
1367 2 -394.285 -381.812 -388.132 -0.768522 -0.401534 0.220885 -0.44649 
1368 2 -394.142 -389.819 -382.289 -0.150317 -0.0278653 0.466112 -0.871417 
1369 2 -395.05 -397.862 -376.635 0.661978 0.291868 0.218373 -0.654913 
1411 2 -418.925 -373.228 -423.686 0.0525639 -0.467953 0.747519 -0.468479 
1412 2 -414.123 -379.905 -429.139 0.379307 0.29282 0.855573 -0.195902 
1370 2 -395.729 -404.594 -369.4 0.91042 0.387571 -0.109669 0.0943201 
1413 2 -408.945 -385.94 -434.97 0.462039 0.817836 0.309079 0.148777 
1414 2 -403.968 -392.469 -440.545 0.295204 0.715529 -0.333404 0.538251 
1415 2 -398.092 -399.939 -443.5 -0.189519 0.158602 -0.829387 0.501044 
1416 2 -392.905 -407.591 -447.108 -0.691804 -0.377901 -0.610855 -0.073856 
1417 2 -384.265 -412.47 -446.988 -0.255037 -0.762806 -0.208945 -0.556259 
1435 2 -377.867 -362.758 -413.673 0.773628 0.532015 0.312064 -0.145173 
1418 2 -374.775 -414 -449.217 0.267822 -0.60831 0.507197 -0.548618 
1436 2 -374.558 -371.581 -410.76 0.486159 0.556473 -0.17407 0.650913 
1437 2 -369.512 -379.584 -407.578 -0.271847 0.299846 -0.538396 0.739135 
1419 2 -365.659 -416.991 -451.781 0.519469 -0.0104859 0.853228 -0.0452026 
1410 2 -421.977 -365.761 -417.943 -0.387963 -0.876688 0.130974 -0.252485 
1371 2 -396.628 -411.602 -362.383 0.454511 0.140677 -0.357919 0.803445 
1438 2 -362.219 -385.776 -405.018 -0.712405 -0.161073 -0.645933 0.222047 
1420 2 -356.707 -417.366 -456.009 0.361202 0.6095 0.533638 0.461816 
1421 2 -347.266 -416.315 -459.014 -0.148414 0.692689 -0.0154991 0.705631 
1422 2 -337.534 -414.227 -458.529 -0.64104 0.499035 -0.525859 0.252002 
1423 2 -328.155 -411.33 -459.093 -0.593358 -0.133154 -0.729667 -0.312701 
1424 2 -318.919 -408.024 -460.514 -0.0582464 -0.665206 -0.445781 -0.596144 
1427 3 -351.124 -373.798 -450.309 0.834936 0.308939 -0.451685 0.0584805 
1439 2 -353.865 -391.027 -403.778 -0.506723 -0.564276 -0.367631 -0.538212 
1440 2 -344.224 -392.76 -402.734 0.118814 -0.657259 0.0894619 -0.738844 
1441 2 -334.369 -392.726 -400.996 0.599236 -0.38247 0.588201 -0.385554 
1442 2 -324.517 -392.453 -400.453 0.684327 0.184708 0.659757 0.249602 
1443 2 -314.717 -392.548 -399.525 0.242364 0.622259 0.375933 0.642438 
1469 2 -270.429 -392.54 -436.781 0.50894 -0.77467 0.206877 0.313158 
1468 2 -269.443 -402.259 -435.243 0.559157 -0.610549 -0.446827 -0.338997 
1467 2 -269.38 -412.201 -434.869 0.0412028 -0.0610071 -0.732941 -0.676297 
1470 2 -273.537 -383.344 -438.97 0.0868371 -0.276826 0.625387 0.724374 
1471 2 -276.581 -373.862 -437.964 -0.581533 0.248458 0.500496 0.591263 
1466 2 -268.792 -422.071 -434.058 -0.479997 0.548997 -0.494184 -0.473273 
1444 2 -304.855 -391.444 -400.496 -0.34956 0.703673 -0.208531 0.582381 
1465 2 -267.857 -431.239 -430.4 -0.562867 0.817821 0.110506 0.0462371 
1464 2 -266.642 -438.818 -424.19 -0.289704 0.474765 0.754753 0.347876 
1445 2 -295.408 -388.665 -401.746 -0.668208 0.274892 -0.683309 -0.104981 
1446 2 -287.015 -383.46 -402.296 -0.310682 -0.404804 -0.653437 -0.559133 
1447 2 -278.137 -379.151 -403.282 0.282811 -0.67744 -0.0337258 -0.6782 
1448 2 -269.381 -374.948 -401.85 0.804973 -0.391095 0.426423 -0.131251 
1461 2 -265.076 -451.791 -397.553 0.138677 -0.753167 -0.633337 -0.111324 