ITEM: TIMESTEP
10000000
ITEM: NUMBER OF ATOMS
4067
ITEM: BOX BOUNDS pp pp pp
-4.6310929470000001e+03 4.6704658980000004e+03
-4.6310929470000001e+03 4.6704658980000004e+03
-4.6310929470000001e+03 4.6704658980000004e+03
ITEM: ATOMS id type x y z c_q[1] c_q[2] c_q[3] c_q[4] 
3858 2 181.779 232.277 -820.741 0.369415 -0.367103 -0.339405 -0.783309 
3828 2 -86.7584 285.487 -905.772 0.503009 0.341911 -0.689279 0.393666 
3827 2 -82.8265 294.258 -903.613 0.597977 0.776657 -0.0733915 -0.183958 
3826 2 -79.7659 303.403 -901.361 0.257565 0.514399 0.582852 -0.573879 
3825 2 -76.6497 312.539 -898.969 -0.345547 -0.210253 0.751934 -0.520563 
3824 2 -75.2213 321.28 -894.628 -0.501053 -0.797884 0.311448 -0.123801 
3823 2 -70.0137 328.766 -890.737 -0.321588 -0.771129 -0.297011 0.462304 
3822 2 -62.6288 333.756 -886.367 0.238074 -0.412419 -0.738168 0.477849 
3821 2 -54.5268 337.639 -882.074 0.515661 0.302304 -0.800472 0.0441539 
3820 2 -46.5746 341.048 -877.195 0.368719 0.791827 -0.31134 -0.374331 
3829 1 -47.9177 263.516 -890.463 0.244266 -0.0620683 -0.488163 -0.835571 
3801 2 2.05273 258.162 -842.423 -0.0170425 0.373958 -0.586835 0.717976 
3831 2 -9.99527 259.283 -862.727 -0.28031 0.455238 0.522135 0.6645 
3800 2 -3.88716 266.184 -842.612 0.54289 0.692644 -0.0645123 0.470482 
3832 2 -7.05453 268.729 -862.265 -0.687421 0.689177 -0.0678623 0.218819 
3833 2 -3.72184 278.058 -862.158 -0.55627 0.392384 -0.601593 -0.417953 
3834 2 -0.173226 287.368 -862.936 -0.0736397 -0.282485 -0.678172 -0.674435 
3830 3 -47.4177 293.77 -872.774 0.212193 -0.10388 -0.481439 -0.844038 
3835 2 4.94166 295.748 -864.06 0.386944 -0.842317 -0.0900983 -0.364223 
3836 2 10.5873 302.973 -867.778 0.645796 -0.514185 0.563778 0.0267416 
3799 2 -10.7779 273.068 -841.357 0.668272 0.423599 0.60238 -0.105425 
3798 2 -16.7315 280.809 -839.437 0.324639 -0.0856603 0.767 -0.546794 
3837 2 17.4943 309.865 -869.334 0.482204 0.120042 0.659875 0.56359 
3797 2 -23.7333 286.802 -835.878 -0.133664 -0.773061 0.327496 -0.526551 
3817 2 -28.4395 346.425 -855.777 -0.129896 -0.721093 0.656229 0.180319 
3818 2 -33.234 347.046 -864.442 -0.346531 0.0165215 0.929065 -0.128378 
3819 2 -39.2826 345.318 -872.067 -0.0648772 0.660169 0.55449 -0.502503 
3838 2 25.0027 316.231 -868.529 -0.0200254 0.607836 0.228621 0.760175 
3839 2 34.1938 319.909 -866.907 -0.588017 0.464822 -0.325129 0.5766 
3840 2 43.2205 321.773 -863.343 -0.758559 -0.00899378 -0.647832 -0.0694347 
3841 2 52.8768 322.199 -861.269 -0.452261 -0.61202 -0.339411 -0.552895 
3842 2 62.6015 320.47 -861.121 0.206932 -0.551121 0.304435 -0.748841 
3816 2 -22.966 346.436 -847.519 0.0231005 -0.95719 -0.141411 0.251508 
3815 2 -15.3751 345.892 -841.186 0.347407 -0.432433 -0.813897 0.17286 
3814 2 -7.89977 344.817 -834.93 0.348637 0.411152 -0.801666 -0.258338 
3843 2 72.0234 318.642 -858.764 0.71749 -0.00910786 0.561291 -0.412403 
3844 2 80.1087 314.258 -855.272 0.879473 0.292429 0.212178 0.309827 
3813 2 -0.717734 344.982 -828.076 0.0505333 0.901993 -0.131113 -0.408245 
3845 2 85.8193 310.278 -848.174 0.223263 0.255034 -0.143911 0.929732 
3796 2 -29.2438 294.361 -832.667 -0.568683 -0.73869 -0.346826 -0.10319 
3795 2 -35.5982 301.294 -829.64 -0.48861 -0.187395 -0.785951 0.329277 
3883 1 76.9265 344.874 -829.91 0.19448 -0.283991 0.20052 -0.917234 
3846 2 89.9233 307.119 -839.713 -0.53388 0.029728 -0.279393 0.797514 
3812 2 6.06509 345.118 -820.862 -0.239556 0.683411 0.643114 -0.248933 
3803 3 23.8486 301.984 -825.205 0.169918 -0.0270793 -0.847015 -0.502951 
3794 2 -41.2352 307.322 -824.138 -0.00897755 0.529587 -0.710089 0.463929 
3847 2 93.2114 302.747 -831.544 -0.91911 -0.195947 -0.290045 0.180876 
3848 2 97.4052 297.99 -823.907 -0.630913 -0.310436 -0.00308844 -0.711034 
3885 2 107.811 313.806 -847.456 0.78867 0.0707211 0.254685 -0.555098 
3886 2 111.755 310.73 -838.807 0.908148 0.222749 0.172724 0.309541 
3887 2 116.365 307.888 -830.625 0.33221 0.16691 -0.0658224 0.925983 
3888 2 119.147 305.271 -821.384 -0.442494 0.054899 -0.22703 0.865819 
3752 2 -60.4463 233.866 -699.471 -0.499848 0.365998 0.660037 0.42491 
3753 2 -64.176 243.04 -700.454 -0.583435 0.775171 0.212217 -0.116955 
3640 1 -115.241 174.63 -676.35 0.762643 -0.248806 0.26682 0.534115 
3639 2 -68.2248 177.259 -678.697 -0.0181206 -0.377727 -0.913032 0.152862 
3638 2 -66.9612 180.32 -669.403 0.123582 0.462807 -0.87034 0.114215 
3751 2 -55.6625 225.17 -699.381 -0.0146662 -0.331853 0.642625 0.690429 
3750 2 -50.1311 216.911 -699.504 0.497325 -0.704666 0.119258 0.491824 
4017 2 -25.2482 119.952 -677.532 0.0746795 -0.687331 -0.194596 0.695796 
4016 2 -15.5688 121.849 -677.575 0.612794 -0.206394 -0.694069 0.316469 
4014 2 2.42555 129.662 -679.543 0.308657 0.680219 0.0530944 -0.662733 
4013 2 11.9839 132.275 -679.275 -0.358619 0.512189 0.503282 -0.596458 
4015 2 -6.47532 125.417 -679.194 0.744692 0.3923 -0.495074 -0.215491 
4012 2 21.7727 132.967 -678.034 -0.680226 -0.0489632 0.731339 0.00616251 
3748 1 -29.2161 218.162 -741.768 -0.24871 0.373497 -0.581207 -0.678853 
3964 1 57.3563 169.527 -757.504 -0.911291 -0.263742 -0.263723 -0.174469 
3965 3 77.8891 155.767 -732.665 -0.906085 -0.28376 -0.251334 -0.187938 
3966 2 46.7159 195.096 -719.299 -0.513724 -0.450212 -0.152554 -0.71423 
3967 2 54.2619 192.686 -713.417 0.200173 -0.37956 0.278235 -0.859331 
3968 2 62.2631 189.718 -708.384 0.779488 -0.085193 0.469339 -0.406032 
3909 2 19.816 196.098 -725.962 -0.0739125 -0.690281 -0.3969 0.600434 
3908 2 27.6356 201.671 -723.755 0.473982 -0.0791716 -0.781929 0.397063 
3907 2 36.0984 206.828 -724.045 0.722624 0.482547 -0.472796 -0.146379 
3906 2 42.3519 214.423 -724.397 0.429507 0.675814 0.195922 -0.566052 
3905 2 49.5386 221.187 -724.282 -0.277725 0.30577 0.652423 -0.635388 
3904 2 55.347 229.197 -724.867 -0.672952 -0.372122 0.588224 -0.250305 
3963 2 81.8055 136.6 -780.807 -0.286671 0.686036 0.6687 -0.00365363 
3962 2 85.559 132.825 -772.472 -0.174355 -0.12518 0.946961 0.239154 
3910 1 1.88417 203.78 -682.978 -0.656098 -0.239727 -0.591908 -0.402133 
3747 2 -15.8542 239.475 -781.721 -0.410989 -0.661412 -0.481044 0.402764 
3903 2 61.4582 237.073 -725.551 -0.646299 -0.671407 0.115489 0.343761 
3969 2 70.5849 188.254 -703.151 0.809161 0.328126 0.36535 0.322663 
3911 3 36.0733 209.617 -678.607 -0.608221 -0.32375 -0.618871 -0.377164 
3970 2 78.7153 185.745 -698.103 0.324498 0.532813 -0.222136 0.749311 
3971 2 85.5735 179.467 -694.734 -0.390737 0.0514771 -0.602222 0.694265 
3972 2 91.8328 172.018 -692.994 -0.795134 -0.479679 -0.357174 0.100486 
4011 2 30.9757 134.754 -674.886 -0.371375 -0.715192 0.391183 0.444473 
4067 2 -14.6761 168.491 -672.824 0.229386 -0.718947 -0.418395 0.505413 
3961 2 87.0685 127.707 -764.143 0.199134 -0.817269 0.492314 0.223705 
3902 2 65.1056 246.103 -726.745 -0.265108 -0.415288 -0.508626 0.706083 
3960 2 91.4497 121.678 -757.602 0.359543 -0.837166 -0.405194 0.0754997 
4010 2 39.456 136.573 -670.195 0.110762 -0.802659 -0.294147 0.5069 
4066 2 -5.5976 169.396 -668.952 0.519191 -0.1871 -0.818413 0.160108 
4065 2 3.99467 170.136 -666.558 0.483832 0.571304 -0.558625 -0.357011 
3855 2 96.5612 244.604 -788.817 -0.568796 -0.322807 0.571679 -0.495428 
3973 2 95.9604 163.608 -689.822 -0.575036 -0.500965 0.205897 -0.613168 
3974 2 99.2211 155.218 -685.78 -0.0241587 -0.0958847 0.548578 -0.830231 
3975 2 100.832 146.146 -682.131 0.677534 0.318267 0.48505 -0.452085 
3923 2 99.2323 209.446 -670.408 -0.401814 -0.252741 -0.867387 0.149352 
3859 2 184.567 240.239 -815.466 0.894934 -0.434048 0.0618447 -0.082886 
3959 2 98.0477 119.896 -750.451 0.379733 -0.129045 -0.915511 -0.0314695 
3958 2 103.453 120.278 -742.161 0.212647 0.64061 -0.713425 -0.188215 
3957 2 108.228 119.351 -733.601 -0.0698292 0.968299 0.0170354 -0.239228 
3956 2 111.594 119.866 -724.371 -0.130695 0.601052 0.778483 -0.124979 
3955 2 115.066 120.387 -715.157 -0.185465 -0.151091 0.970965 0.000926345 
3954 2 117.907 122.413 -705.89 -0.136869 -0.817874 0.553607 0.0766034 
3953 2 120.995 126.24 -697.362 -0.120594 -0.887133 -0.370178 0.247833 
3952 2 126.212 130.776 -690.335 0.225439 -0.214471 -0.900823 0.302816 
3926 2 118.391 195.892 -688.465 0.356439 -0.0407023 0.859186 -0.36482 
3927 2 124.478 189.927 -693.575 0.418631 0.665079 0.61111 0.0946682 
3928 2 130.088 184.745 -699.868 0.215122 0.877803 -0.276288 0.326879 
3929 2 134.564 179.455 -706.92 -0.281672 0.17779 -0.889064 0.314032 
3930 2 140.878 174.844 -712.918 -0.429233 -0.510504 -0.740571 -0.0818518 
3931 2 148.278 171.723 -718.688 -0.132031 -0.870441 -0.0981347 -0.463972 
3932 2 156.784 170.523 -723.643 0.446943 -0.610122 0.539252 -0.370406 
3933 2 165.948 171.179 -727.421 0.604717 0.0193099 0.778293 0.167941 
3938 3 174.853 184.395 -685.542 -0.664996 -0.52817 0.322707 0.417943 
3934 2 175.312 173.03 -729.724 0.241734 0.634078 0.427319 0.597418 
3935 2 184.751 175.224 -732.03 -0.329512 0.720481 -0.204835 0.574779 
3936 2 194.191 177.949 -733.314 -0.641918 0.294885 -0.704164 0.0716746 
3951 2 131.739 134.134 -682.839 0.34674 0.609962 -0.712144 -0.023833 
3950 2 138.22 136.991 -675.88 0.135509 0.927099 0.0317466 -0.348019 
3856 1 136.773 228.16 -807.27 -0.468311 0.482221 0.390426 0.629059 
3925 2 111.488 200.448 -682.986 -0.0598029 -0.78971 0.390861 -0.469052 
3937 1 205.365 199.972 -693.153 -0.6367 -0.549697 0.291037 0.45579 
3976 2 104.665 137.646 -678.955 0.822963 0.50368 0.0728126 0.252461 
3977 2 107.893 129.902 -673.731 0.462683 0.255346 -0.302399 0.793271 
3924 2 105.036 204.889 -676.981 -0.397504 -0.801774 -0.36892 -0.251092 
3949 2 144.519 140.992 -669.342 -0.14786 0.569593 0.710579 -0.385718 
3978 2 109.159 122.574 -667.189 -0.337062 -0.0857534 -0.330965 0.87721 
3860 2 187.039 247.693 -809.418 0.602708 -0.271174 0.419114 0.622536 
3754 2 -68.3214 251.427 -703.509 -0.223674 0.711909 -0.461558 -0.479708 
3755 2 -72.8386 258.726 -708.495 0.108372 0.122195 -0.922706 -0.349196 
3756 2 -74.9754 264.76 -716.101 0.34719 -0.698012 -0.575372 -0.247355 
3757 2 -75.9817 272.442 -722.214 0.399902 -0.862045 0.159426 0.26747 
3758 2 -78.8698 279.569 -728.308 0.197422 -0.373691 0.812182 0.40217 
3759 2 -78.4237 287.356 -734.349 -0.0744483 0.457045 0.758989 0.457715 
3760 2 -75.3736 295.027 -739.888 -0.328216 0.889771 0.083085 0.306071 
3786 2 -67.4379 343.315 -760.514 0.177979 0.965865 0.154858 0.10699 
3785 2 -68.4546 345.03 -750.873 0.076007 0.378079 0.921042 -0.054404 
3787 2 -64.6246 340.08 -769.439 -0.000265188 0.655928 -0.710158 0.255801 
3788 2 -60.8498 336.611 -777.874 -0.174033 -0.16469 -0.941895 0.235421 
3761 2 -70.977 301.196 -746.28 -0.479058 0.574658 -0.656875 -0.0937379 
3784 2 -68.024 346.818 -741.074 -0.0673167 -0.541579 0.835332 -0.0661955 
3789 2 -58.6116 331.429 -786.125 -0.13895 -0.90436 -0.40213 -0.0334203 
3783 2 -65.762 350.364 -732.018 -0.15959 -0.978885 0.0922055 0.0883949 
3762 2 -65.776 307.795 -751.473 -0.31332 -0.110535 -0.856192 -0.395662 
3763 2 -59.5828 313.293 -756.889 -0.050094 -0.765768 -0.438055 -0.468186 
3782 2 -62.3546 352.716 -722.985 0.0678133 -0.626269 -0.74791 0.209331 
3690 2 -89.064 339.993 -667.856 0.740155 -0.529615 -0.377416 0.170981 
3689 2 -81.4804 333.709 -668.202 0.554376 0.00712077 -0.709472 -0.435047 
3790 2 -56.9753 328.913 -795.613 -0.118345 -0.797028 0.513438 -0.295164 
3781 2 -57.4584 355.765 -714.906 0.278646 0.115206 -0.942469 0.144346 
3691 2 -96.3065 346.652 -666.841 0.343848 -0.600756 0.132744 0.709394 
3746 2 -14.5144 248.659 -778.021 0.0322436 -0.0703588 -0.823906 0.561417 
3749 3 -38.3022 251.432 -736.407 -0.214139 0.368472 -0.538018 -0.727262 
3745 2 -14.2884 257.45 -773.554 0.400061 0.637225 -0.571833 0.32696 
3791 2 -53.6149 324.193 -803.638 0.169104 -0.08495 0.940524 -0.282139 
3901 2 71.4286 253.45 -728.848 0.450281 -0.0644835 -0.623982 0.635402 
3811 2 12.8367 344.366 -813.576 -0.371535 -0.0547448 0.926379 0.0280532 
3900 2 78.0186 260.291 -731.763 0.788559 0.458875 -0.409256 0.0108698 
3793 2 -47.2195 312.016 -817.653 0.226682 0.914685 -0.102173 0.318633 
3792 2 -50.6741 318.93 -811.514 0.44835 0.6776 0.572139 -0.111793 
3810 2 20.5987 342.563 -807.914 -0.215744 -0.655562 0.600591 0.403713 
3809 2 28.6068 339.605 -802.984 0.263673 -0.848307 -0.191106 0.41753 
3808 2 35.3968 334.61 -797.903 0.490879 -0.459351 -0.740049 -0.0190282 
3802 1 31.9469 272.213 -808.662 0.206866 -0.0714304 -0.835869 -0.503415 
3807 2 41.6142 327.767 -794.133 0.219156 0.274421 -0.774437 -0.526224 
3806 2 47.4542 320.091 -791.87 -0.369825 0.751351 -0.193944 -0.510966 
3744 2 -14.4767 266.307 -769.158 0.530158 0.820219 0.179544 -0.118059 
3743 2 -14.7426 275.142 -764.769 0.233544 0.41616 0.737413 -0.478007 
3742 2 -15.5324 283.339 -759.181 -0.157999 -0.291827 0.834163 -0.440505 
3741 2 -17.3408 289.164 -751.456 -0.280476 -0.903503 0.284066 -0.155954 
3804 2 58.0994 304.451 -786.213 -0.344498 -0.00553852 0.804042 0.484569 
3740 2 -18.9897 293.723 -742.723 -0.246956 -0.816743 -0.520839 0.0259077 
3805 2 52.515 312.089 -789.025 -0.586861 0.651446 0.478255 0.0498515 
3765 2 -43.8098 319.766 -766.778 0.590566 -0.300359 0.748911 0.0121867 
3764 2 -52.1486 316.98 -762.24 0.330423 -0.805441 0.288791 -0.398352 
3766 2 -35.367 323.528 -770.271 0.298517 0.443622 0.749413 0.390471 
3882 2 59.8928 373.031 -796.108 -0.140237 -0.835203 0.441698 0.296094 
3767 2 -27.6616 327.216 -775.303 -0.245991 0.782064 0.0490207 0.570493 
3768 2 -19.2812 332.037 -777.835 -0.672271 0.352196 -0.553653 0.34275 
3733 2 -11.3578 304.148 -677.816 0.190105 -0.651775 -0.73386 -0.0223415 
3735 2 -16.5875 307.041 -696.475 -0.054962 -0.516194 0.851921 0.068946 
3734 2 -13.9096 306.87 -686.964 -0.00672713 -0.98853 0.100979 0.112096 
3736 2 -18.1148 307.099 -706.222 -0.0664667 0.323817 0.933352 -0.139924 
3737 2 -20.4915 305.695 -715.702 0.250719 0.915094 0.305978 -0.0782352 
3738 2 -20.1672 301.067 -724.522 0.120644 0.83199 -0.523351 0.13907 
3739 2 -19.3506 297.266 -733.569 -0.0388559 -0.0188599 -0.981803 0.184927 
3769 2 -9.56556 333.361 -776.676 -0.775788 -0.187594 -0.515636 -0.311578 
3770 2 -0.415512 333.487 -773.057 -0.187869 -0.48733 -0.127088 -0.843246 
3771 2 8.11619 334.216 -768.223 0.527302 -0.359717 0.274899 -0.719018 
3772 2 16.1622 334.178 -762.45 0.897333 -0.0426032 0.438883 0.0189858 
3773 2 23.7289 334.99 -756.138 0.503708 0.288053 0.289919 0.761085 
3775 1 8.33001 356.424 -713.341 0.415399 0.637101 -0.610513 -0.220953 
3776 3 -17.6943 345.439 -733.944 0.437692 0.61 -0.633582 -0.186814 
3778 2 -37.2908 365.443 -695.384 -0.2883 0.412288 0.812258 -0.295193 
3779 2 -44.7061 363.165 -701.611 0.0679502 0.86004 0.317541 -0.393549 
3780 2 -51.0761 359.468 -708.355 0.372209 0.79735 -0.421689 -0.218796 
3777 2 -30.3178 367.313 -688.632 -0.386567 -0.407 0.820958 0.104619 
3881 2 66.2617 373.038 -788.526 0.179311 -0.85407 -0.373719 0.314238 
3880 2 74.1425 373.047 -782.628 0.456216 -0.208791 -0.862162 0.0703483 
3774 2 30.99 336.405 -749.591 -0.418074 0.396663 -0.123388 0.807867 
3879 2 81.1023 372.94 -775.529 0.309122 0.60737 -0.699428 -0.215278 
3720 2 76.1314 323.792 -701.246 0.642751 0.508429 0.540914 0.189163 
3719 2 67.4151 328.296 -700.082 0.528467 -0.0987745 0.743984 -0.396804 
3718 2 58.9186 333.099 -698.294 0.0115736 -0.653248 0.387987 -0.650076 
3732 2 -7.61621 302.562 -668.74 0.145623 0.217925 -0.959336 -0.104773 
3717 2 51.1957 338.337 -695.098 -0.429149 -0.811997 -0.138711 -0.370475 
3716 2 44.8241 343.247 -689.317 -0.459811 -0.430506 -0.774978 0.0514557 
3878 2 89.2051 370.743 -770.303 -0.054706 0.869338 -0.123898 -0.475297 
3715 2 36.8937 344.658 -683.519 -0.366335 0.36861 -0.817052 0.249703 
3899 2 86.6517 264.581 -734.132 0.354757 0.637749 -0.0260548 -0.683187 
3714 2 28.7998 344.831 -677.697 -0.142694 0.840956 -0.277689 0.441951 
3721 1 75.0066 288.868 -669.591 0.00645649 0.615397 -0.335027 -0.713443 
3713 2 22.39 344.476 -670.154 0.17319 0.802352 0.467987 0.327453 
3898 2 94.9267 268.539 -737.902 -0.366132 0.360878 0.417869 -0.749066 
3884 3 98.4048 338.861 -802.887 0.190811 -0.324105 0.182851 -0.908357 
3854 2 99.8205 253.782 -790.247 -0.754964 -0.632345 0.13039 0.114753 
3877 2 97.6681 367.243 -766.557 -0.470456 0.652801 0.521309 -0.284181 
3853 2 101.488 262.796 -793.717 -0.456462 -0.373496 -0.395996 0.703797 
3852 2 102.222 272.196 -796.425 0.240822 0.122957 -0.588389 0.762027 
3850 2 103.066 287.937 -808.136 0.827811 0.398209 0.199887 -0.340886 
3851 2 103.269 280.429 -801.789 0.798207 0.398501 -0.254639 0.373124 
3849 2 101.504 293.665 -816.015 0.153686 -0.0202777 0.346348 -0.92521 
3897 2 100.664 274.183 -743.766 -0.777237 -0.16632 0.463933 -0.391161 
3896 2 105.355 279.631 -750.433 -0.824197 -0.407594 0.108728 0.377817 
3889 2 122.1 301.448 -812.724 -0.980655 -0.0161801 0.062636 0.184746 
3861 2 188.431 256.214 -804.584 -0.0619261 0.121033 0.533258 0.834956 
3862 2 189.487 265.018 -800.307 -0.708953 0.345795 0.343642 0.509629 
3863 2 188.35 273.394 -795.262 -0.806202 0.524418 0.101162 -0.254541 
3864 2 183.804 281.312 -791.464 -0.241311 0.454156 -0.42229 -0.746447 
3865 2 178.886 289.52 -788.944 0.437984 -0.067578 -0.624655 -0.64297 
3895 2 108.877 284.424 -758.485 -0.283653 -0.245812 -0.164311 0.912206 
3894 2 112.365 289.521 -766.253 0.528869 0.0112504 -0.315244 0.787904 
3876 2 105.956 362.06 -765.015 -0.5477 0.0321359 0.759261 0.350021 
3857 3 143.89 261.937 -801.367 -0.481656 0.50048 0.417694 0.585712 
3866 2 174.476 298.054 -786.505 0.806957 -0.471217 -0.349432 -0.0683575 
3890 2 121.368 301.164 -802.877 -0.756167 -0.00751446 0.148386 -0.637288 
3867 2 169.585 306.27 -783.92 0.565236 -0.51867 0.188327 0.613208 
3891 2 119.919 299.207 -793.288 0.079536 0.150181 0.162581 -0.97195 
3868 2 165.385 314.403 -780.151 -0.16077 -0.243931 0.465326 0.835537 
3869 2 160.056 321.52 -775.96 -0.748227 0.17697 0.551629 0.323331 
3892 2 117.666 295.825 -784.262 0.821675 0.188512 -0.0126887 -0.537728 
3893 2 115.357 293.003 -775.033 0.946124 0.168677 -0.211488 0.17796 
3870 2 153.776 328.373 -772.661 -0.718966 0.589306 0.217851 -0.297232 
3871 2 146.907 335.193 -770.602 -0.183638 0.600322 -0.184262 -0.756266 
3872 2 138.639 340.313 -768.716 0.39506 0.264754 -0.590753 -0.651801 
3873 2 130.306 345.225 -766.975 0.657908 -0.294096 -0.676077 -0.153575 
3874 2 122.291 351.154 -767.52 0.58585 -0.631556 -0.206032 0.464184 
3875 2 114.474 356.975 -765.891 -0.100118 -0.526269 0.437585 0.722175 
4020 2 4.41407 81.3965 -599.621 0.534645 -0.342886 0.587471 0.501459 
4021 2 6.99172 90.9129 -599.296 -0.134691 0.311942 0.569087 0.748792 
4018 1 -19.1676 94.5349 -638.32 0.236811 0.420823 0.549536 0.681791 
3989 2 115.962 76.5786 -573.373 0.583347 -0.108275 0.00545541 -0.804955 
3988 2 114.782 77.4832 -583.163 -0.286616 -0.0851679 0.00643238 -0.954231 
3990 2 117.605 77.9272 -563.736 0.991654 -0.0730881 0.103228 -0.0249677 
3987 2 113.158 77.9975 -592.899 -0.913375 -0.0526391 -0.0608769 -0.399085 
3986 2 111.646 80.7061 -602.356 -0.923851 -0.115166 -0.100734 0.350841 
3985 2 111.428 84.164 -611.621 -0.432408 -0.0760891 -0.169325 0.882362 
3984 2 111.371 88.0182 -620.721 0.404086 0.0849615 -0.177179 0.893366 
3983 2 111.446 91.4603 -630.025 0.957591 0.166149 -0.0630519 0.226798 
3982 2 111.795 95.1466 -639.24 0.709713 0.150768 0.113264 -0.678784 
3637 2 -65.9174 183.19 -660.047 0.174661 0.962177 -0.209028 -0.0039565 
3642 2 -157.487 186.988 -659.354 0.283604 0.0507711 0.470216 0.834199 
3643 2 -154.389 194.749 -654.027 -0.482401 0.383557 0.312524 0.722843 
3644 2 -151.862 202.738 -648.836 -0.89094 0.435187 -0.10657 0.0740295 
3645 2 -149.23 210.296 -643.023 -0.65617 0.056829 -0.426185 -0.620144 
3646 2 -144.405 216.233 -636.729 0.0907587 -0.341253 -0.357505 -0.86458 
3647 2 -139.154 222.662 -631.382 0.68783 -0.543829 0.110134 -0.467986 
3641 3 -107.425 198.302 -651.852 0.767119 -0.232675 0.267485 0.534642 
3648 2 -132.609 228.7 -627.13 0.815606 -0.140315 0.538911 0.157079 
3649 2 -124.674 233.1 -623.222 0.316254 0.343138 0.530839 0.707425 
3650 2 -116.947 238.938 -621.199 -0.392526 0.62479 -0.0262128 0.674443 
3585 2 -83.8765 231.298 -539.111 -0.34071 0.134944 0.882484 -0.294837 
3584 2 -76.6196 235.302 -533.71 -0.450708 -0.610889 0.641022 0.112996 
3636 2 -63.228 187.259 -651.408 0.0902109 0.757023 0.603605 -0.233321 
3635 2 -63.194 193.21 -643.368 0.0227983 -0.0113541 0.945988 -0.3232 
3634 2 -63.0973 199.67 -635.821 -0.233642 -0.671496 0.662845 -0.234824 
3633 2 -63.0311 206.058 -628.257 -0.348081 -0.931924 -0.09483 0.0369415 
3632 2 -63.827 211.009 -619.687 -0.169028 -0.468202 -0.837034 0.227133 
3631 2 -64.6557 215.209 -610.827 0.0581155 0.417762 -0.880119 0.21792 
3630 2 -62.9506 219.543 -602.115 0.264547 0.906431 -0.329155 -0.00734547 
3629 2 -61.961 224.059 -593.419 0.192088 0.823169 0.506479 -0.170216 
3628 2 -60.1705 229.26 -585.208 -0.0921715 0.0430197 0.958731 -0.265496 
3583 2 -69.4471 238.813 -527.85 -0.184047 -0.886393 -0.0660822 0.419603 
3582 2 -61.9965 242.251 -522.222 0.217733 -0.508416 -0.719743 0.419614 
3651 2 -108.403 243.48 -619.067 -0.835625 0.253903 -0.471334 0.122917 
3678 2 -60.9004 238.893 -637.009 0.0702568 -0.00645847 0.81999 0.568013 
3627 2 -57.0746 234.741 -577.571 -0.3566 -0.714616 0.599745 -0.0496532 
3677 2 -58.7003 229.751 -633.671 0.401173 -0.682315 0.47363 0.386239 
3679 2 -60.0194 248.339 -640.022 -0.325344 0.732682 0.504706 0.320311 
3652 2 -99.601 246.187 -615.348 -0.586642 -0.20973 -0.518851 -0.58537 
3676 2 -56.7273 220.782 -629.956 0.58181 -0.768637 -0.252662 -0.0828036 
3626 2 -53.6802 240.048 -569.986 -0.251297 -0.897689 -0.22825 0.280902 
4022 2 10.3 100.093 -597.624 -0.67784 0.628688 -0.0185331 0.380711 
4064 2 13.3211 170.394 -663.008 0.019113 0.816782 0.0833986 -0.570567 
4009 2 47.8917 136.726 -665.048 0.473061 -0.287253 -0.810847 0.190332 
4008 2 55.8302 138.58 -659.404 0.427634 0.514126 -0.714793 -0.204633 
4023 2 15.2568 108.305 -595.26 -0.666677 0.313659 -0.62296 -0.262833 
4007 2 64.0003 141.045 -654.417 0.147884 0.853779 -0.0372229 -0.497801 
4006 2 71.9985 144.334 -649.676 -0.266973 0.488637 0.706359 -0.437054 
4024 2 21.8957 115.709 -594.694 -0.243924 -0.290758 -0.751323 -0.539883 
4025 2 28.7948 122.326 -597.516 0.38406 -0.68093 -0.331784 -0.527969 
4062 2 31.4965 176.473 -658.98 -0.652475 -0.39301 0.639931 0.101531 
4063 2 22.4961 172.531 -660.121 -0.452374 0.366527 0.721277 -0.375198 
4061 2 40.0301 181.448 -658.113 -0.412893 -0.714714 0.0763469 0.559352 
4019 3 9.2843 114.786 -639.116 0.225738 0.392522 0.579044 0.677995 
4005 2 80.7434 145.799 -645.355 -0.501761 -0.184047 0.844831 0.0249499 
4026 2 33.5275 130.854 -599.523 0.656455 -0.674076 0.333045 -0.0613966 
3920 2 77.5904 219.564 -653.423 0.461365 0.602255 0.620843 0.197444 
3919 2 69.1243 222.045 -648.98 0.502318 -0.0616401 0.850193 -0.145082 
3918 2 61.4162 224.681 -643.259 0.119803 -0.722446 0.485612 -0.477388 
3675 2 -52.1797 212.702 -626.664 0.412855 -0.203534 -0.758914 -0.460623 
3674 2 -47.7252 204.719 -622.892 -0.091622 0.513366 -0.677195 -0.519103 
3673 2 -42.3449 197.951 -617.936 -0.409359 0.846476 -0.0367083 -0.338461 
3917 2 53.1365 225.18 -637.915 -0.167062 -0.822193 -0.307978 -0.448596 
4060 2 48.4303 185.197 -654.377 0.199719 -0.589422 -0.581106 0.524413 
3916 2 43.3776 223.828 -637.047 -0.549575 -0.340567 -0.700435 -0.302279 
3915 2 33.911 220.866 -636.027 -0.642885 0.363346 -0.665321 0.109667 
3914 2 24.2096 218.704 -635.898 -0.361199 0.686646 -0.179919 0.604716 
4027 2 38.5268 139.348 -600.344 0.352146 -0.158884 0.761036 0.521127 
4028 2 42.7047 148.179 -602.157 -0.144899 0.476764 0.642216 0.58246 
4029 2 46.5246 157.072 -604.785 -0.602083 0.760026 0.0873184 0.228542 
4030 2 49.4469 166.436 -606.204 -0.465887 0.580281 -0.581067 -0.329521 
4031 2 50.8876 175.775 -609.118 0.00262003 -0.0292059 -0.749214 -0.661679 
4032 2 50.9972 185.527 -610.364 0.54086 -0.592641 -0.452625 -0.389072 
4033 2 50.4249 195.426 -610.856 0.559184 -0.756732 0.234318 0.244467 
4034 2 49.3678 205.013 -613.067 0.100214 -0.396129 0.656773 0.63379 
4035 2 46.1813 214.204 -614.95 -0.353504 0.336496 0.581831 0.650598 
4036 2 46.2134 224.042 -613.535 -0.727898 0.632963 0.110598 0.239353 
4037 2 47.815 233.697 -611.665 -0.669129 0.420605 -0.496193 -0.359373 
4038 2 50.6153 243.209 -610.735 -0.161837 -0.1133 -0.672122 -0.7136 
3670 2 -26.3801 180.672 -600.267 0.0586961 -0.784231 0.449336 0.423832 
3671 2 -32.5863 185.156 -606.488 -0.20499 -0.0927507 0.890637 0.395149 
3672 2 -36.929 191.584 -612.59 -0.474728 0.59021 0.652206 0.0302047 
3669 2 -19.2142 178.687 -593.698 0.261772 -0.836663 -0.363885 0.314734 
3667 1 11.4129 213.828 -586.846 -0.261961 0.842059 -0.0769156 -0.465186 
3668 3 -15.1096 229.504 -603.406 -0.208011 0.844855 -0.070894 -0.487777 
3913 2 14.5186 216.977 -636.179 0.361768 0.560449 0.42341 0.61298 
3912 2 5.16063 213.828 -637.036 0.733924 -0.0892358 0.657015 0.14739 
4059 2 55.8706 187.869 -648.566 0.4557 0.0653762 -0.87758 0.13385 
4058 2 62.6108 190.873 -641.977 0.349636 0.769317 -0.488172 -0.218161 
4057 2 70.0463 192.227 -635.573 -0.107861 0.824034 0.384169 -0.402178 
3921 2 85.3308 216.364 -658.746 0.11632 0.876859 -0.0391443 0.464818 
4056 2 75.7645 193.042 -627.619 -0.320905 0.178504 0.9253 -0.0947409 
4004 2 89.1595 148.461 -640.989 -0.361871 -0.749872 0.371442 0.410819 
4055 2 83.4867 193.772 -621.491 -0.350259 -0.630076 0.646368 0.250065 
3625 2 -48.8149 243.968 -562.39 0.168687 -0.408121 -0.842252 0.309183 
3922 2 93.26 214.04 -664.158 -0.0935986 0.557609 -0.714388 0.412265 
4054 2 92.1216 195.448 -616.935 -0.0693092 -0.865602 -0.0495233 0.493433 
3581 2 -56.2886 247.864 -516.589 0.435282 0.383455 -0.80167 0.144282 
4003 2 97.9078 150.897 -636.989 0.110455 -0.741692 -0.383375 0.539182 
3981 2 112.654 101.506 -646.804 -0.0413196 0.0366709 0.36219 -0.930466 
3948 2 148.412 147.396 -662.918 -0.269166 -0.242259 0.889281 -0.279357 
3947 2 150.923 155.328 -657.58 -0.481303 -0.8327 0.273718 -0.00614632 
3980 2 111.911 108.74 -653.595 -0.74135 -0.36321 0.201283 -0.527222 
3946 2 155.089 162.463 -652.228 -0.204546 -0.717573 -0.514556 0.422471 
3979 2 110.304 116.416 -659.529 -0.847447 -0.403607 -0.202106 0.279441 
4002 2 106.77 152.645 -632.917 0.494424 -0.14696 -0.839441 0.171132 
3945 2 159.194 169.701 -646.913 0.223777 -0.0590945 -0.878864 0.41717 
4001 2 115.844 153.291 -629.114 0.425919 0.598422 -0.580217 -0.351899 
4046 3 98.3678 241.384 -607.374 -0.250827 -0.742253 -0.345706 0.516365 
4000 2 123.845 152.439 -623.306 -0.0321028 0.889178 0.00113428 -0.456432 
3999 2 132.83 153.023 -619.166 -0.403038 0.530832 0.65212 -0.361272 
4053 2 100.673 196.305 -612.069 0.382141 -0.501761 -0.69756 0.340021 
3998 2 141.667 154.036 -614.88 -0.526848 -0.194506 0.822969 0.0855633 
3997 2 149.575 155.422 -609.18 -0.230005 -0.821153 0.30728 0.422355 
3996 2 156.509 156.773 -602.314 0.147821 -0.759273 -0.520029 0.362247 
3995 2 161.751 155.81 -594.025 0.271673 -0.0349173 -0.960291 -0.0530584 
3944 2 165.349 176.439 -643.225 0.567645 0.535309 -0.622715 0.0587296 
3943 2 171.491 184.044 -641.715 0.51161 0.745444 -0.00904283 -0.427184 
4052 2 110.006 197.36 -609.131 0.588599 0.161897 -0.788544 -0.0744256 
3939 2 198.117 211.853 -648.108 -0.376308 -0.672116 -0.168605 0.615 
3940 2 190.874 205.2 -647.056 -0.815146 -0.440829 0.337959 0.164289 
3941 2 184.107 199.023 -643.282 -0.612748 -0.115663 0.605492 -0.494511 
3942 2 177.691 191.759 -641.13 0.00973513 0.487935 0.558151 -0.671038 
3993 2 168.935 153.123 -575.851 -0.0612263 0.97864 0.0985475 -0.169714 
3994 2 166.078 153.924 -585.331 0.069793 0.730939 -0.637915 -0.23221 
4051 2 118.61 200.617 -605.468 0.378498 0.741182 -0.392005 -0.392072 
3991 1 147.698 114.016 -560.147 0.183181 -0.133458 -0.97343 -0.0326685 
3992 3 135.554 117.079 -592.753 0.21248 -0.172039 -0.96176 -0.0165298 
4050 2 126.194 206.086 -602.103 0.0856632 0.735444 0.349087 -0.574388 
4049 2 133.463 211.694 -598.382 -0.385949 0.0806078 0.830429 -0.393615 
4048 2 140.023 218.525 -595.551 -0.630856 -0.565125 0.531529 0.0114414 
4047 2 145.234 225.783 -591.323 -0.393445 -0.846538 -0.0800266 0.349529 
3688 2 -74.3073 327.138 -666.233 0.096201 0.541397 -0.56648 -0.613788 
3653 2 -90.7336 249.729 -612.656 0.103839 -0.543204 -0.283424 -0.783465 
3687 2 -68.8353 319.415 -663.504 -0.45591 0.795929 -0.069023 -0.392274 
3686 2 -62.5286 311.72 -662.817 -0.680159 0.475538 0.551645 0.0832769 
3685 2 -59.4616 302.44 -661.484 -0.238138 0.0342225 0.73884 0.629471 
3684 2 -58.2548 292.861 -659.453 0.409061 -0.555967 0.533311 0.489028 
3692 2 -104.521 351.832 -665.036 -0.456123 -0.364848 0.527324 0.617063 
3693 2 -113.74 355.119 -663.127 -0.775146 0.208824 0.596044 -0.0164741 
3654 2 -82.7947 254.619 -609.34 0.722599 -0.437417 0.393004 -0.363408 
3655 2 -74.2767 258.687 -606.365 0.681737 0.00591997 0.663524 0.308114 
3656 2 -65.4436 262.808 -605.053 0.211565 0.580547 0.397044 0.678647 
3694 1 -119.477 345.908 -617.21 -0.515265 -0.657007 -0.456554 -0.30725 
3695 3 -87.4575 333.467 -624.038 -0.501885 -0.64333 -0.459734 -0.350545 
3696 2 -105.892 327.984 -575.735 -0.216925 -0.780646 0.0143377 -0.585943 
3700 2 -69.7315 318.324 -585.988 -0.214451 0.823504 -0.195552 0.487454 
3698 2 -88.1216 320.442 -580.039 0.65517 0.144295 0.740892 -0.0317871 
3699 2 -78.535 318.457 -581.499 0.329139 0.661092 0.535102 0.410232 
3701 2 -60.8679 319.558 -590.313 -0.415976 0.462007 -0.783026 0.0196196 
3697 2 -96.7881 324.834 -578.132 0.29794 -0.425067 0.635967 -0.571049 
3602 2 -65.2812 316.99 -526.03 -0.135358 -0.681952 -0.64757 -0.311886 
3681 2 -58.068 265.007 -650.082 -0.203666 0.375265 -0.778912 -0.45934 
3601 2 -68.3149 314.716 -516.928 -0.165545 0.134363 -0.968399 -0.129404 
3603 2 -59.1697 319.51 -533.492 0.224819 -0.925818 0.0607615 -0.2977 
3680 2 -58.3963 256.115 -645.977 -0.511373 0.807115 -0.265506 -0.12872 
3683 2 -57.9329 283.084 -657.86 0.681813 -0.725727 -0.0830367 -0.0394467 
3682 2 -57.6479 273.55 -655.021 0.30021 -0.420016 -0.702704 -0.489559 
3722 3 43.6063 303.863 -666.062 0.0492531 0.602159 -0.351497 -0.715142 
3624 2 -44.1035 249.107 -555.299 0.364542 0.48355 -0.790766 0.0893173 
3604 2 -53.291 322.989 -540.712 0.34505 -0.563411 0.750601 -0.0103349 
3657 2 -55.9327 265.542 -605.208 -0.390544 0.710782 -0.272326 0.517787 