ITEM: TIMESTEP
100000000
ITEM: NUMBER OF ATOMS
4067
ITEM: BOX BOUNDS pp pp pp
-4.6310929470000001e+03 4.6704658980000004e+03
-4.6310929470000001e+03 4.6704658980000004e+03
-4.6310929470000001e+03 4.6704658980000004e+03
ITEM: ATOMS id type x y z c_q[1] c_q[2] c_q[3] c_q[4] 
3559 1 -514.815 2359.62 -528.089 0.975135 -0.0257643 0.199516 -0.0929636 
3558 2 -506.738 2313.5 -522.102 0.0719681 0.866864 0.492315 -0.0315041 
3642 2 -651.014 2402.55 -570.1 0.128104 -0.0407627 0.133539 -0.981884 
3640 1 -623.181 2439.72 -578.525 0.419947 -0.0254755 0.0258011 0.906824 
3643 2 -649.833 2400.5 -560.423 0.909823 0.0933227 0.167355 -0.36811 
3644 2 -647.711 2397.55 -551.153 0.826196 -0.0571521 0.145636 0.541224 
3641 3 -626.138 2439.32 -543.599 0.316371 -0.0397333 0.0219563 0.947549 
3637 2 -604.7 2478.92 -546.918 -0.0867656 -0.862894 -0.454008 -0.204361 
3645 2 -645.942 2399.04 -541.475 0.0828497 0.0175409 0.0735324 0.993691 
3638 2 -600.232 2478.89 -555.807 -0.0309918 -0.877467 0.472078 -0.0789505 
3639 2 -598.691 2477.89 -565.432 0.0843086 -0.0999872 0.988707 -0.0731588 
3636 2 -608.796 2478.67 -538.061 -0.161206 -0.289876 -0.939305 -0.0876978 
3646 2 -645.3 2401.26 -531.877 -0.538164 0.231674 0.178748 0.790415 
3647 2 -642.569 2405.82 -523.649 -0.905178 0.387403 -0.159437 0.0717769 
3635 2 -612.202 2479.13 -528.73 -0.113511 0.59521 -0.778655 0.162902 
3634 2 -616.951 2477.45 -520.176 -0.116318 0.96451 -0.00478041 0.236996 
3648 2 -638.742 2412.65 -517.509 -0.604112 0.256149 -0.455036 -0.601979 
3561 2 -512.753 2404.9 -514.929 -0.903103 -0.0433036 0.0920651 -0.417197 
3723 2 -683.265 2625.62 -516.034 -0.670265 0.0633814 0.504147 0.540891 
3751 2 -714.666 2803.81 -518.292 -0.864019 -0.398277 0.276405 -0.13582 
3750 2 -713.875 2813.28 -521.089 -0.577542 -0.505635 -0.407192 0.494948 
3863 2 -666.06 2829.87 -515.945 0.477827 -0.705336 0.520677 0.0554868 
3864 2 -662.005 2837.24 -521.013 0.15531 -0.1164 0.869257 0.454668 
3937 1 -742.488 2939.7 -662.673 -0.303446 0.316673 0.198481 0.876495 
3936 2 -784.116 2961.26 -657.557 -0.135637 0.380771 0.785078 -0.469328 
3935 2 -778.068 2967.08 -652.395 -0.464484 -0.445602 0.747482 -0.164206 
3939 2 -697.478 2931.6 -650.733 -0.62305 0.366882 -0.109902 -0.682003 
3942 2 -705.845 2946.56 -627.003 0.917902 -0.314697 -0.172738 0.16907 
3945 2 -718.753 2961.62 -605.576 -0.923895 0.173121 0.336924 -0.0541256 
3946 2 -725.58 2965.18 -599.158 -0.568607 0.510512 -0.0275921 -0.64444 
3947 2 -731.789 2970.87 -593.907 0.233309 0.354098 -0.518307 -0.742657 
3948 2 -739.227 2977.07 -591.447 0.754146 -0.142632 -0.623666 -0.148189 
3949 2 -748.437 2980.51 -589.862 0.530017 -0.601467 -0.271126 0.532739 
3950 2 -757.341 2984.77 -588.34 -0.150435 -0.637315 0.157811 0.739118 
3944 2 -714.696 2954.65 -611.322 -0.53574 0.020363 0.444604 0.717562 
3943 2 -710.025 2951.4 -619.474 0.280754 -0.302492 0.0695009 0.90821 
3938 3 -736.001 2963.88 -638.199 -0.448133 0.317239 0.281061 0.787109 
3941 2 -703.722 2941.57 -635.395 0.790393 -0.133952 -0.237804 -0.548439 
3940 2 -700.788 2937.89 -644.03 0.16051 0.114332 -0.194832 -0.960836 
3934 2 -773.465 2974.37 -647.356 -0.425203 -0.869142 0.0836185 0.238334 
3933 2 -770.608 2981.39 -641.114 -0.189734 -0.611045 -0.651988 0.406862 
3951 2 -766.894 2985.62 -585.974 -0.735813 -0.145413 0.569796 0.335807 
3932 2 -768.671 2988.96 -635.131 0.153858 0.133198 -0.884553 0.419705 
3952 2 -775.988 2987.57 -582.32 -0.642175 0.554535 0.433445 -0.303689 
3953 2 -784.943 2991.77 -581.953 -0.180599 0.75211 -0.228262 -0.59128 
3865 2 -660.676 2845.36 -526.637 -0.0955049 0.614905 0.597245 0.506032 
3866 2 -655.076 2851.56 -531.966 -0.139916 0.928279 -0.255757 0.23089 
3867 2 -649.739 2853.36 -540.244 -0.375132 0.385072 -0.823973 -0.179065 
3868 2 -644.318 2859.08 -546.316 -0.0802272 -0.354155 -0.80247 -0.473476 
3869 2 -639.067 2866.43 -550.548 0.268206 -0.89616 -0.247531 -0.252371 
3870 2 -635.107 2871.71 -557.967 0.22287 -0.782872 0.580343 0.0253327 
3871 2 -632.835 2875.73 -566.751 0.183104 0.0858472 0.928338 0.311917 
3872 2 -628.807 2880.84 -574.243 0.034734 0.776159 0.479334 0.408178 
3873 2 -622.354 2884.66 -580.638 -0.220005 0.862776 -0.293199 0.34821 
3874 2 -615.229 2886.17 -587.488 -0.361651 0.239902 -0.898367 0.0677628 
3889 2 -593.531 2961.04 -594.046 0.273084 0.421071 0.00990784 -0.864885 
3890 2 -600.303 2958.51 -587.327 0.883994 0.134782 -0.264764 -0.360955 
3891 2 -606.354 2957.83 -579.342 0.804683 -0.163877 -0.28932 0.491857 
3892 2 -612.455 2957.81 -571.386 0.274882 -0.338464 -0.0482215 0.898642 
3893 2 -618.029 2957.6 -563.102 -0.388246 -0.148644 0.171748 0.893125 
3894 2 -621.193 2959.81 -553.9 -0.900468 0.166881 0.292834 0.274877 
3895 2 -624.309 2964.42 -545.726 -0.824212 0.212666 -0.0965635 -0.515872 
3884 3 -573.38 2921.76 -601.102 -0.862371 -0.100303 0.494861 0.0369925 
3888 2 -585.522 2964.29 -598.815 -0.459977 0.231009 0.47353 -0.71472 
3887 2 -576.366 2966.89 -601.328 -0.791285 -0.219846 0.569942 0.0264994 
3886 2 -567.413 2968.28 -605.555 -0.46843 -0.530985 0.236629 0.665308 
3885 2 -558.826 2970.58 -609.821 0.266983 -0.49713 -0.220842 0.795494 
3896 2 -626.003 2968.79 -537.037 0.0463572 0.122944 -0.184789 -0.973955 
3875 2 -607.995 2886.68 -594.185 -0.424207 -0.503749 -0.725951 -0.198192 
3876 2 -599.968 2884.42 -599.515 -0.149598 -0.895575 -0.0474351 -0.416312 
3897 2 -629.636 2971.82 -528.397 0.762004 -0.0939366 -0.219647 -0.601898 
3877 2 -592.109 2881.25 -604.738 0.335857 -0.515203 0.579798 -0.534416 
3878 2 -583.032 2878.1 -607.566 0.597523 0.0547527 0.798236 -0.0528027 
3879 2 -573.75 2876.84 -610.762 0.42887 0.534331 0.450896 0.572061 
3880 2 -563.889 2877.21 -611.086 -0.267316 0.658638 -0.097248 0.696622 
3881 2 -554.159 2878.82 -611.159 -0.648976 0.338271 -0.647285 0.213131 
3883 1 -542.287 2926.83 -616.292 -0.82562 -0.198013 0.491391 0.194109 
3882 2 -544.519 2879.88 -611.872 -0.593595 -0.282353 -0.665735 -0.353156 
3898 2 -630.893 2975.79 -519.396 0.946103 -0.241942 -0.0131115 0.214896 
3964 1 -855.555 3048 -550.72 0.553658 0.578155 0.334124 0.497555 
3963 2 -833.949 3071.11 -585.701 0.586958 -0.622359 -0.126816 0.502063 
3962 2 -826.153 3065.33 -587.991 0.805322 -0.318341 -0.497832 -0.0477321 
3966 2 -856.738 3018.3 -514.103 0.522326 0.328963 0.49853 0.608627 
3961 2 -819.278 3058.74 -590.796 0.482149 0.0988805 -0.590121 -0.639932 
3965 3 -822.324 3036.91 -548.14 0.630198 0.545957 0.337131 0.437178 
3931 2 -763.781 2995.95 -629.925 0.497138 0.695336 -0.517759 -0.0358893 
3960 2 -816.607 3049.25 -591.343 -0.299187 0.450906 -0.499558 -0.676471 
3954 2 -792.857 2997.35 -584.196 0.314437 0.169457 -0.746746 -0.561057 
3930 2 -755.338 3000.78 -627.826 0.213182 0.770479 0.108253 -0.590929 
3955 2 -798.288 3005.36 -586.138 0.607418 -0.551271 -0.569995 -0.0474337 
3928 2 -743.122 3005.11 -612.747 -0.374558 -0.419616 0.826689 0.0146564 
3929 2 -748.846 3002.49 -620.518 -0.275773 0.344473 0.860918 -0.253195 
3959 2 -814.796 3039.77 -589.509 -0.669921 0.739415 0.0656511 -0.0126793 
3927 2 -734.124 3005.64 -608.614 -0.148413 -0.814647 0.126265 0.546243 
3925 2 -717.098 3008.54 -598.946 0.472969 0.2559 -0.840681 -0.0638062 
3926 2 -725.398 3007.46 -604.272 0.297836 -0.60006 -0.596544 0.441993 
3924 2 -709.363 3007.76 -592.762 0.160415 0.797345 -0.403698 -0.41897 
3923 2 -705.14 3007.96 -583.776 -0.13033 0.839688 0.479616 -0.218877 
3956 2 -804.581 3012.53 -588.901 0.566462 -0.725912 0.203384 0.332878 
3957 2 -806.706 3022.14 -590.533 0.0119707 -0.314509 0.59714 0.737811 
3958 2 -812.275 3030.25 -589.36 -0.424551 0.311294 0.636992 0.563111 
3922 2 -699.175 3010.23 -576.224 -0.288911 0.128409 0.929998 -0.187469 
3921 2 -691.21 3012.01 -570.72 -0.436581 -0.608099 0.621322 0.231455 
3920 2 -683.442 3013.56 -564.731 -0.0121239 -0.909329 -0.0597386 0.411589 
3919 2 -675.34 3015.43 -559.448 0.30168 -0.488149 -0.7532 0.321541 
3918 2 -666.509 3018.54 -556.217 0.578055 0.302465 -0.757857 -0.00458313 
3917 2 -659.32 3023.56 -551.629 0.477443 0.749979 -0.391865 -0.236688 
3916 2 -653.242 3030.32 -547.924 0.306145 0.80394 0.229127 -0.455474 
3915 2 -648.856 3039.1 -547.502 -0.145224 0.164912 0.718448 -0.659959 
3914 2 -644.078 3047.6 -546.186 -0.576343 -0.444979 0.598771 -0.333611 
3913 2 -638.728 3055.92 -545.241 -0.601669 -0.741135 0.125294 0.27021 
3912 2 -632.563 3063.74 -545.059 -0.100214 -0.583186 -0.441406 0.674546 
4067 2 -601.657 3079.97 -627.114 -0.0796422 0.714124 0.673289 -0.174257 
4066 2 -598.651 3081.02 -617.737 -0.190999 -0.0630004 0.977999 -0.0553837 
4065 2 -595.499 3080.84 -608.511 -0.121811 -0.76588 0.619133 0.123548 
4064 2 -591.272 3082.55 -599.662 -0.051251 -0.958256 -0.0807733 0.269432 
4063 2 -588.85 3082.83 -590.237 0.0738638 -0.620824 -0.773867 0.101252 
4062 2 -585.108 3084.05 -581.147 0.153984 0.224976 -0.960249 0.0599725 
4061 2 -582.215 3087.04 -572.099 0.260812 0.807436 -0.529098 0.00896757 
4060 2 -577.822 3085.81 -563.476 -0.164696 0.909986 0.338758 -0.173328 
4059 2 -572.003 3083.17 -555.846 -0.304965 0.400358 0.864108 0.00513524 
4058 2 -564.659 3083.06 -549.269 -0.334047 -0.423206 0.819702 0.193385 
4057 2 -555.533 3083.53 -545.354 -0.140932 -0.809682 0.0907841 0.562416 
4056 2 -545.852 3084.95 -543.031 0.422998 -0.568119 -0.524019 0.472988 
4041 2 -603.369 3123.13 -535.311 -0.606567 0.783953 -0.121619 0.0519935 
4042 2 -601.658 3132.62 -537.067 -0.371879 0.54687 -0.650163 -0.374068 
4040 2 -603.772 3115.5 -529.206 -0.260762 0.648863 0.656771 0.282191 
4039 2 -604.155 3107.93 -522.779 -0.00075902 -0.00930568 0.909314 0.416006 
4043 2 -601.235 3141.6 -541.233 -0.100228 -0.283637 -0.834243 -0.462108 
4055 2 -539.152 3088.93 -536.751 0.379698 0.237158 -0.889834 0.0882115 
4054 2 -532.408 3092.11 -530.222 0.291406 0.846609 -0.379463 -0.233119 
4053 2 -527.4 3098.67 -524.86 0.140649 0.803595 0.398185 -0.419407 
4038 2 -602.436 3101.4 -515.606 0.214245 -0.78614 0.508009 0.279302 
4052 2 -523.464 3105.09 -518.525 -0.208376 0.0373998 0.908077 -0.361355 
4046 3 -562.711 3125.91 -515.43 0.515363 0.576833 0.320129 -0.546975 
4044 2 -596.922 3148.73 -546.884 0.295635 -0.796627 -0.332912 -0.408846 
4045 1 -556.728 3159.13 -524.694 0.551962 0.571117 0.341416 -0.502591 
2699 2 -286.752 967.951 -399.91 0.222273 -0.344968 0.103232 0.906055 
2696 3 -256.712 995.623 -389.374 -0.449283 -0.0302908 0.121359 -0.88459 
2700 2 -292.169 971.876 -392.496 -0.601196 -0.101985 0.244394 0.753946 
2698 2 -284.202 964.163 -408.649 0.775304 -0.265234 -0.0146538 0.57301 
2697 2 -281.804 959.517 -417.138 0.952344 -0.209621 -0.155774 -0.157589 
2695 1 -257.536 999.526 -424.107 -0.380699 -0.0206314 0.0879341 -0.920277 
2701 2 -297.775 973.295 -384.562 -0.964002 -0.0176759 0.253474 0.0783557 
2702 2 -302.135 973.602 -375.826 -0.609706 0.143577 0.242678 -0.740778 
2703 2 -306.105 972.991 -366.842 0.159126 0.356134 -0.130467 -0.911497 
2688 2 -222.573 1007.03 -361.568 0.311777 -0.699555 0.596677 0.239572 
2667 2 -152.825 949.02 -374.426 0.180953 0.68272 0.639344 -0.303954 
2666 2 -150.967 954.705 -366.49 -0.0894905 0.0421901 0.945443 -0.310403 
2689 2 -222.506 1014.74 -367.943 -0.0981799 -0.0945084 0.923481 0.358625 
2690 2 -224.601 1021.05 -375.334 -0.317709 0.682752 0.657858 0.0115694 
2691 2 -227.196 1026.21 -383.328 -0.192889 0.93682 -0.244709 -0.158998 
2692 2 -229.577 1030.82 -391.809 0.111408 0.429106 -0.880498 -0.167867 
2693 2 -233.178 1032.4 -400.971 0.159141 -0.402328 -0.870087 -0.236124 
2694 2 -234.002 1037.65 -409.286 0.289193 -0.939284 -0.183219 0.0233401 
2964 2 -391.97 1422.36 -445.3 -0.265859 0.0165057 0.925474 -0.26934 
2963 2 -386.288 1427.04 -438.577 -0.386556 -0.608744 0.69274 0.0108065 
2962 2 -379.846 1431.97 -432.856 -0.209125 -0.887653 -0.0542566 0.406688 
2965 1 -370.849 1380.46 -450.383 0.079986 -0.294654 -0.176639 -0.935724 
2961 2 -373.83 1435.3 -425.704 0.199736 -0.604544 -0.699331 0.324913 
2960 2 -366.443 1438.69 -419.956 0.403336 0.145022 -0.884943 0.18211 
2959 2 -358.396 1438.76 -414.208 0.28381 0.664561 -0.59502 -0.351797 
2958 2 -351.61 1437.01 -407.031 -0.106296 0.911753 0.193777 -0.346205 
2957 2 -346.921 1435.27 -398.485 -0.238416 0.507184 0.826763 -0.048831 
2966 3 -352.282 1395.85 -424.92 0.0807261 -0.318919 -0.163548 -0.930068 
2956 2 -344.504 1433.19 -389.142 -0.0755561 -0.382867 0.912453 0.123021 
2967 2 -337.867 1348.3 -440.281 -0.0924082 -0.377975 -0.277504 -0.8784 
2968 2 -330.17 1351.58 -435 0.538895 -0.446704 0.288467 -0.653326 
2969 2 -320.731 1352.56 -432.092 0.829346 -0.110918 0.54739 -0.0157079 
2970 2 -311.783 1354.31 -428.343 0.558705 0.425006 0.432547 0.565793 
2971 2 -302.084 1354.45 -425.854 -0.0745162 0.447732 -0.0316935 0.890494 
2972 2 -294.388 1354.32 -419.551 -0.759383 0.437954 -0.0996382 0.470752 
2973 2 -288.224 1359.88 -414.098 -0.812084 0.208341 -0.331871 -0.432405 
2974 2 -284.678 1365.37 -406.619 -0.242688 0.130826 -0.345312 -0.897077 
2975 2 -285.764 1372.61 -399.768 0.618868 -0.277937 -0.345387 -0.64843 
2976 2 -286.474 1380.33 -393.621 0.884376 -0.46203 0.0535037 0.0393084 
2977 2 -285.245 1388.56 -388.328 0.510838 -0.142235 0.233253 0.815112 
2978 2 -284.96 1394.12 -380.123 -0.27745 0.0448918 -0.0512789 0.95832 
2955 2 -344.053 1430.07 -379.814 0.182992 -0.951487 0.227128 0.0979722 
2954 2 -346.197 1430.71 -370.189 -0.0972684 -0.873408 -0.461632 -0.1208 
2979 2 -284.246 1394.11 -370.329 -0.937766 -0.0644911 -0.0196722 0.340658 
3129 2 -193.119 1573.2 -369.684 -0.383288 0.152914 -0.0795281 -0.907405 
3127 1 -149.636 1590.86 -364.595 0.647712 -0.106386 -0.0430047 0.753195 
3480 2 -236.948 2061.32 -396.893 0.781611 -0.400354 -0.273114 0.392694 
3481 2 -244.07 2065.05 -391.124 0.300346 -0.28297 0.0500909 0.909511 
3482 2 -249.371 2067.39 -383.096 -0.424646 -0.0614754 0.504829 0.749029 
3483 2 -255.068 2073.98 -378.421 -0.856338 0.419291 0.273782 0.126186 
3484 2 -258.675 2081.74 -373.448 -0.54627 0.381348 -0.0417542 -0.744593 
3478 1 -221.673 2105.54 -390.629 -0.316561 0.30221 0.111436 -0.892211 
3477 2 -219.512 2146.54 -367.313 0.258482 -0.753655 -0.597507 -0.0904249 
3485 2 -263.873 2086.56 -366.572 0.153873 0.294727 -0.196291 -0.922458 
3479 3 -241.424 2099.62 -362.297 -0.324062 0.295048 0.0937463 -0.893948 
3593 2 -602.282 2382.64 -364.562 0.204285 0.185592 -0.921956 -0.271699 
3557 2 -507.635 2314.38 -512.251 0.0171161 0.175903 0.982405 -0.0603849 
3560 3 -501.253 2357.95 -495.91 0.976761 -0.012483 0.186193 -0.105422 
3556 2 -508.373 2312.54 -502.573 0.116011 -0.708065 0.696492 0.00918966 
3555 2 -506.167 2312.6 -492.848 -0.0154901 -0.99537 -0.0297585 0.0900691 
3554 2 -501.554 2314.35 -484.236 0.182724 -0.49052 -0.820676 0.229114 
3553 2 -494.789 2316.71 -477.514 0.41507 0.536958 -0.729876 -0.0816885 
3552 2 -489.409 2322.59 -471.711 0.346883 0.902833 -0.158812 -0.198351 
3551 2 -485.002 2327.19 -464.056 0.00806326 0.717421 0.651661 -0.246129 
3550 2 -479.32 2331.94 -457.504 -0.378419 -0.212124 0.882598 -0.181169 
3549 2 -474.331 2334.38 -449.272 -0.275215 -0.808506 0.488033 0.179994 
3548 2 -467.428 2335.42 -442.318 0.0917298 -0.815172 -0.411308 0.397375 
3547 2 -461.339 2338.41 -434.971 0.265962 -0.152228 -0.918657 0.249321 
3546 2 -454.785 2339.24 -427.733 0.291669 0.60076 -0.712327 -0.215886 
3545 2 -446.597 2339.64 -422.011 0.0370199 0.884702 -0.0504249 -0.461941 
3544 2 -437.359 2338.29 -419.272 -0.542753 0.489892 0.632881 -0.254728 
3543 2 -428.791 2337.76 -414.044 -0.45522 -0.185393 0.861582 0.126809 
3542 2 -420.754 2337.1 -408.1 -0.163928 -0.829593 0.346242 0.406226 
3541 2 -417.599 2342.43 -400.288 -0.0935263 -0.672224 -0.621381 0.391477 
3540 2 -417.648 2344.68 -390.654 -0.0390824 0.105415 -0.989011 0.0960108 
3539 2 -415.261 2348.94 -382.15 0.314014 0.809689 -0.491786 0.0628149 
3538 2 -415.661 2352.82 -372.965 0.219776 0.866725 0.444142 -0.0567732 
3537 2 -412.034 2354.35 -363.963 -0.17745 0.202874 0.951217 -0.15013 
3604 2 -670.769 2390.08 -439.942 -0.6366 0.38236 0.585843 -0.324545 
3605 2 -680.707 2390.47 -439.051 -0.0925778 0.703759 0.269126 -0.650941 
3606 2 -690.314 2389.18 -440.213 0.473233 0.518434 -0.503488 -0.503762 
3610 2 -724.639 2389.93 -427.983 -0.805816 -0.172457 0.232726 0.516486 
3608 2 -710.04 2390.42 -440.227 0.613336 -0.369846 -0.413211 0.562396 
3609 2 -719.079 2390.5 -436.058 -0.0529226 -0.28642 0.0251877 0.95631 
3607 2 -700.24 2389.1 -440.998 0.708771 0.0488757 -0.685367 -0.159771 
3611 2 -729.083 2389.8 -419.265 -0.893023 -0.159705 0.220055 -0.358581 
3612 2 -732.161 2385.25 -411.191 -0.321134 0.0480845 0.298125 -0.897598 
3613 1 -709.496 2413.91 -381.264 0.140727 0.124475 0.954734 0.230618 
3614 3 -698.193 2424.52 -412.622 0.155065 0.0957772 0.969568 0.16346 
3617 2 -685.804 2456.04 -389.033 0.111065 -0.406103 0.859706 0.289222 
3618 2 -686.454 2462.38 -396.558 -0.229563 0.252958 0.891857 0.296488 
3693 2 -728.673 2511.85 -490.452 0.189887 -0.566122 -0.720281 0.35305 
3692 2 -722.039 2514.88 -483.599 0.375169 0.267359 -0.88713 0.0277036 
3691 2 -714.822 2517.2 -477.11 0.324088 0.803294 -0.403371 -0.294918 
3621 2 -687.862 2479.13 -419.85 -0.143654 0.103879 -0.979239 -0.0983063 
3616 2 -682.594 2452.45 -380.415 0.124134 -0.967546 0.144401 0.166114 
3690 2 -707.042 2517.62 -470.923 -0.232948 0.818273 0.362927 -0.380063 
3622 2 -684.718 2481.24 -429.117 -0.0819135 -0.600024 -0.778785 -0.163573 
3619 2 -688.508 2468.75 -404.032 -0.396163 0.854834 0.332351 0.0430844 
3620 2 -689.943 2475.79 -410.873 -0.233815 0.763659 -0.600516 0.0391948 
3689 2 -699.699 2516.64 -464.348 -0.415878 0.123825 0.900113 0.0388502 
3623 2 -681.802 2482.73 -438.522 -0.0162364 -0.961578 -0.103145 -0.2539 
3688 2 -692.166 2516.52 -457.976 -0.262143 -0.646984 0.655358 0.288443 
3687 2 -685.025 2518.63 -451.479 -0.134324 -0.922725 -0.0441712 0.358587 
3686 2 -677.863 2522.77 -445.979 0.110003 -0.583143 -0.67404 0.439902 
3685 2 -670.818 2528.55 -441.903 0.468422 0.207225 -0.815765 0.268637 
3615 2 -681.035 2450.17 -371.013 0.188997 -0.469088 -0.861753 -0.0402243 
3624 2 -676.846 2483.09 -446.932 0.0481953 -0.706367 0.688329 -0.157877 
3625 2 -673.55 2481.88 -456.215 0.289311 0.0995822 0.952035 0.0033951 
3694 1 -755.268 2534.7 -458.875 0.765253 0.11853 0.586096 0.238389 
3626 2 -667.252 2481.94 -463.901 0.291255 0.823167 0.435589 0.218698 
3649 2 -636.641 2420.71 -512.438 0.0203236 0.05701 -0.415679 -0.907495 
3633 2 -623.204 2475.16 -512.977 0.0936035 0.650612 0.661384 0.361266 
3602 2 -653.703 2387.17 -430.454 -0.0319807 -0.783235 0.295026 0.546333 
3601 2 -645.292 2385.34 -425.385 0.408335 -0.642464 -0.554675 0.335913 
3599 2 -631.112 2389.52 -413.687 0.332423 0.82444 -0.442676 -0.117606 
3598 2 -625.597 2390.83 -405.53 -0.0191688 0.893725 0.34053 -0.291422 
3597 2 -621.127 2392.49 -396.818 -0.242485 0.213902 0.934701 -0.147585 
3600 2 -636.518 2385.55 -420.853 0.520235 0.0665324 -0.85089 -0.0302626 
3603 2 -662.295 2389.48 -434.962 -0.456633 -0.284276 0.827853 0.159165 
3594 2 -607.184 2387.45 -371.558 0.291969 -0.547285 -0.776723 0.109248 
3595 2 -613.291 2389.27 -379.009 0.0676136 -0.969756 -0.0548441 0.228022 
3627 2 -661.516 2480.3 -471.529 0.0839595 0.845871 -0.377316 0.36754 
3628 2 -655.3 2476.94 -478.408 -0.286442 0.250521 -0.856929 0.347652 
3596 2 -617.585 2390.17 -387.844 -0.0918076 -0.537448 0.815728 0.193153 
3632 2 -626.945 2473.58 -503.943 0.204376 -0.124608 0.966861 0.0887905 
3629 2 -648.091 2473.24 -483.996 -0.465499 -0.37484 -0.771035 -0.219799 
3650 2 -637.93 2427.56 -505.456 0.740391 -0.321137 -0.0975722 -0.582384 
3651 2 -635.454 2432.96 -497.456 0.921264 -0.288404 0.204137 0.162554 
3652 2 -632.686 2439.22 -490.368 0.615742 -0.00116401 0.248581 0.747709 
3630 2 -639.694 2473.39 -489.38 -0.0810306 -0.8903 -0.263983 -0.362095 
3653 2 -629.136 2443.52 -482.295 -0.298107 0.335765 0.212189 0.867969 
3654 2 -624.724 2449.58 -475.655 -0.854765 0.397963 -0.214236 0.255156 
3655 2 -619.287 2455.56 -469.914 -0.735447 -0.0255434 -0.456771 -0.499826 
3656 2 -612.226 2459.45 -464.282 -0.101899 -0.281225 -0.324778 -0.897245 
3657 2 -606.748 2464.75 -458.054 0.660085 -0.300384 0.0394733 -0.687386 
3658 2 -602.064 2467.83 -449.949 0.920293 0.0485606 0.387566 0.0222724 
3659 2 -594.765 2467.52 -443.339 0.703096 0.30631 -0.00978879 0.641665 
3660 2 -590.662 2463.84 -435.313 -0.13137 0.225877 -0.287811 0.92135 
3661 2 -586.25 2459.18 -427.886 -0.794301 -0.16422 -0.453067 0.369929 
3662 2 -580.062 2453.6 -422.598 -0.694123 -0.403703 -0.390862 -0.449937 
3663 2 -571.207 2451.73 -418.545 -0.0717116 -0.46606 0.0897733 -0.877261 
3664 2 -562.733 2450.24 -413.668 0.511693 -0.326004 0.619664 -0.497903 
3665 2 -553.509 2446.62 -413.885 0.729617 0.301519 0.602031 0.119596 
3666 2 -544.232 2443.42 -412.707 0.38668 0.618136 0.171857 0.662459 
3668 3 -555.879 2492.01 -426.455 0.682797 -0.119165 -0.718817 -0.0537628 
3631 2 -632.355 2473.94 -495.818 0.15264 -0.831781 0.466754 -0.258809 
3667 1 -522.069 2483.03 -425.423 0.681418 -0.0883182 -0.719457 -0.101245 
3669 2 -520.822 2527.89 -439.965 -0.682615 0.371574 0.543852 -0.316535 
3575 2 -519.06 2401.73 -390.059 -0.927644 0.199536 0.24546 0.198522 
3671 2 -539.889 2533.49 -439.178 0.542767 0.358775 -0.630236 -0.42366 
3670 2 -530.105 2531.36 -439.03 -0.143826 0.690319 0.0631464 -0.706248 
3576 2 -521.8 2406.75 -381.979 -0.687996 -0.0476645 0.150085 -0.708424 
3577 2 -522.983 2404.46 -372.437 0.0494 0.163991 0.181699 -0.968324 
3676 2 -588.608 2532.81 -438.562 -0.542793 0.62888 0.312916 -0.460402 
3684 2 -663.559 2535.36 -442.472 0.66458 0.631154 -0.157612 -0.367609 
3677 2 -598.114 2535.3 -438.254 0.0537562 0.69666 -0.270047 -0.662457 
3563 2 -514.238 2402.08 -495.456 0.605802 0.0295821 0.136522 -0.783256 
3675 2 -578.943 2533.25 -439.508 -0.747133 -0.0291068 0.66398 -0.00875713 
3674 2 -569.069 2534.28 -439.669 -0.433083 -0.587495 0.364736 0.578149 
3672 2 -549.617 2534.95 -438.781 0.596702 -0.26513 -0.742151 0.151209 
3574 2 -514.892 2398.02 -398.416 -0.378965 -0.112136 0.282622 0.874034 
3578 2 -525.539 2400.37 -363.766 0.768293 0.146611 -0.0458516 -0.621393 
3562 2 -513.978 2404.11 -505.129 -0.2897 -0.00238274 0.140609 -0.94673 
3573 2 -510.494 2395.9 -407.138 0.472688 -0.259694 0.0364423 0.841307 
3572 2 -508.767 2393.75 -416.635 0.992221 -0.0586431 -0.0625585 0.0902463 
3571 2 -504.977 2390.85 -425.431 0.76693 -0.02799 -0.257006 -0.587353 
3570 2 -498.677 2390.27 -433.052 0.106449 0.331095 -0.0902492 -0.93322 
3564 2 -512.509 2399.99 -485.978 0.983004 0.116496 0.138402 -0.0312594 
3565 2 -510.052 2398.14 -476.501 0.64063 0.224712 0.256205 0.688082 
3567 2 -499.011 2398.71 -460.365 -0.746326 -0.0868265 -0.171328 0.637264 
3569 2 -495.124 2392.41 -442.076 -0.597145 0.0885637 0.164247 -0.780126 
3568 2 -497.701 2395.79 -451.076 -0.967735 -0.19193 -0.120567 -0.110069 
3566 2 -503.005 2398.35 -469.481 -0.0500874 0.195134 0.0475034 0.978344 
3695 3 -722.659 2539.88 -447.311 0.752805 0.157379 0.584622 0.25833 
3725 2 -694.282 2638.09 -505.355 -0.316403 0.447846 -0.132376 -0.825711 
3726 2 -701.322 2643.44 -500.908 0.518116 0.178073 -0.509449 -0.663556 
3727 2 -709.122 2648.08 -497.164 0.77912 -0.350828 -0.518851 -0.0261641 
3696 2 -761.854 2559.2 -419.1 0.381793 0.331773 0.717452 0.478982 
3697 2 -753.131 2563.17 -420.959 -0.0633425 0.686262 0.388953 0.611349 
3698 2 -745.356 2568.86 -423.12 -0.476823 0.710111 -0.27061 0.441761 
3702 2 -717.739 2595.69 -423.025 0.573543 -0.741118 0.0800348 -0.339686 
3699 2 -736.76 2573.39 -425.223 -0.74363 0.29835 -0.583638 -0.131789 
3700 2 -729.47 2580.05 -424.176 -0.297756 -0.130058 -0.645019 -0.691648 
3701 2 -723.818 2588.01 -422.503 0.137544 -0.59766 -0.497174 -0.613761 
3703 2 -711.601 2603.2 -423.171 0.767129 -0.388763 0.490584 0.140367 
3704 2 -705.489 2610.61 -420.804 0.360129 0.16465 0.696354 0.598573 
3801 2 -747.753 2678.05 -391.675 -0.166641 -0.485541 0.761752 -0.39524 
3800 2 -749.118 2685.98 -386.077 -0.441285 -0.872312 0.146299 -0.151447 
3728 2 -717.493 2652.73 -494.164 0.561893 -0.657195 0.00986247 0.502268 
3802 1 -700.629 2675.57 -390.773 0.572708 -0.298093 -0.490809 -0.585023 
3729 2 -723.908 2660.07 -492.507 0.0732024 -0.358963 0.52187 0.770349 
3705 2 -697.445 2616.25 -421.088 -0.347959 0.516596 0.269241 0.734549 
3730 2 -728.345 2668.91 -491.054 -0.529657 0.181186 0.520569 0.644704 
3724 2 -688.35 2632.33 -510.748 -0.873324 0.358677 0.311196 -0.108685 
3706 2 -691.779 2623.88 -418.228 -0.714801 0.624063 -0.248897 0.194049 
3707 2 -685.5 2631.47 -416.824 -0.494624 0.0740858 -0.706752 -0.50036 
3708 2 -679.271 2639.12 -417.409 0.0575652 -0.563499 -0.606216 -0.558262 
3709 2 -673.233 2646.06 -421.021 0.410362 -0.808997 0.0809783 -0.413001 
3731 2 -732.065 2676.97 -486.61 -0.882779 0.432512 0.10514 0.150268 
3732 2 -733.229 2685.16 -481.194 -0.523643 0.562113 -0.277528 -0.576892 
3673 2 -559.323 2536.17 -440.317 0.0799395 -0.661266 -0.220078 0.712673 
3710 2 -666.282 2652.43 -424.28 0.407391 -0.588997 0.697843 0.0114272 
3678 2 -607.664 2538.39 -438.167 0.595331 0.159587 -0.688244 -0.382666 
3722 3 -663.566 2663.25 -486.102 0.545141 -0.361877 -0.140294 0.743091 
3721 1 -644.287 2652.01 -513.107 0.594527 -0.347287 -0.0464875 0.723718 
3679 2 -617.195 2540.81 -438.275 0.58895 -0.37928 -0.559962 0.44241 
3711 2 -660.851 2658.32 -430.01 0.21362 0.175554 0.867591 0.41332 
3712 2 -655.44 2664.12 -435.867 -0.177921 0.710971 0.36887 0.571663 
3680 2 -627.03 2540.94 -437.905 0.0633491 -0.771935 0.00576542 0.632511 
3682 2 -645.465 2541.33 -443.706 -0.57098 0.115728 0.753355 -0.305032 
3681 2 -636.531 2542.39 -439.962 -0.401954 -0.575327 0.629579 0.333259 
3683 2 -654.973 2539.28 -445.523 -0.0161767 0.544422 0.249403 -0.800713 
3713 2 -648.764 2670.3 -439.561 -0.464476 0.82483 -0.321962 0.0160612 
3714 2 -644.174 2677.04 -445.163 -0.288187 0.323672 -0.841469 -0.322668 
3715 2 -641.462 2683.87 -451.761 -0.0757405 -0.537576 -0.764556 -0.347461 
3720 2 -615.919 2683.01 -491.562 -0.198311 0.631729 -0.660367 0.354269 
3719 2 -622.102 2685.29 -484.189 0.218056 0.868068 0.333053 0.296623 
3718 2 -626.964 2686.03 -475.632 0.268746 0.390743 0.875401 0.0936393 
3752 2 -718.74 2796.24 -513.051 -0.364021 0.15677 0.411764 -0.820586 
3799 2 -748.976 2695.31 -382.696 -0.436621 -0.700591 -0.428587 0.367215 
3753 2 -724.123 2790.15 -507.337 0.297622 0.609317 0.125178 -0.724213 
3754 2 -732.123 2784.94 -504.928 0.838763 0.401064 -0.314883 -0.190982 
3755 2 -739.223 2779.19 -501.071 0.768589 -0.161926 -0.531051 0.31786 
3783 2 -810.632 2829.6 -386.246 0.147068 0.48642 -0.719793 0.472932 
3784 2 -808.007 2821.8 -391.579 -0.347683 -0.300721 -0.77937 0.425753 
3785 2 -805.787 2812.61 -394.977 -0.737256 -0.62737 -0.246484 -0.0458925 
3798 2 -748.881 2703.84 -377.568 -0.0656063 -0.191129 -0.854382 0.478746 
3763 2 -793.064 2808.7 -466.449 0.610941 -0.705708 0.14924 0.326274 
3762 2 -788.88 2800.38 -469.457 0.81669 -0.413039 -0.38172 -0.129253 
3756 2 -747.793 2777.4 -496.589 0.102393 -0.406946 -0.0882263 0.903397 
3757 2 -755.514 2776.17 -490.683 -0.444807 -0.466537 0.352101 0.678612 
3758 2 -764.756 2776.94 -487.29 -0.759473 0.101621 0.588639 0.257637 
3759 2 -773.152 2781.2 -483.899 -0.708001 0.463636 0.139858 -0.514019 
3761 2 -786.538 2792.21 -474.293 0.411783 -0.104276 -0.448936 -0.786141 
3794 2 -764.127 2739.96 -375.399 0.170505 -0.24664 0.679282 -0.669831 
3795 2 -758.882 2731.56 -375.166 0.633049 0.437772 0.523524 -0.365413 
3796 2 -756.163 2722.03 -374.795 0.552664 0.801434 -0.0471519 0.223704 
3733 2 -736.633 2694.26 -479.226 0.0616938 0.16918 -0.557383 -0.810491 
3797 2 -752.858 2712.76 -376.664 0.183615 0.543682 -0.503633 0.645793 
3760 2 -780.468 2786.12 -479.274 -0.169572 0.446794 -0.305386 -0.823626 
3734 2 -739.739 2703.03 -476.113 0.575435 -0.418061 -0.522149 -0.470596 
3735 2 -741.679 2712.78 -475.191 0.72263 -0.662398 -0.103526 0.168277 
3736 2 -745.182 2721.96 -474.311 0.475461 -0.323742 0.46461 0.67325 
3803 3 -707.254 2708.38 -380.221 0.59073 -0.353586 -0.46245 -0.558708 
3746 2 -725.087 2800.99 -431.935 -0.779242 0.573221 -0.253066 -0.0125415 
3749 3 -730.866 2791.37 -477.109 -0.195858 0.123332 0.70619 -0.669122 
3745 2 -732.054 2794.49 -434.281 -0.475787 0.614059 0.0742009 0.625342 
3744 2 -736.577 2785.71 -433.202 0.0505619 0.306581 0.689151 0.654617 
3742 2 -743.376 2767.88 -438.782 0.764741 -0.628098 0.122423 -0.0753434 
3743 2 -740.204 2777 -436.482 0.605818 -0.277021 0.496482 0.556552 
3741 2 -743.913 2760.9 -445.775 0.525033 -0.250494 -0.255287 -0.772284 
3740 2 -745.271 2753.91 -452.568 -0.247187 0.0408535 -0.410038 -0.876983 
3739 2 -747.753 2746.52 -458.845 -0.845206 0.401689 -0.226195 -0.270385 
3737 2 -745.025 2731.05 -470.385 -0.165513 0.113454 0.50144 0.841601 
3738 2 -744.641 2739.41 -465.04 -0.855222 0.257259 0.331324 0.304364 
3747 2 -721.297 2809.73 -429.531 -0.476949 0.173027 -0.607791 -0.610877 
3793 2 -769.995 2747.66 -376.504 -0.368791 -0.634496 0.263686 -0.626002 
3792 2 -776.916 2754.7 -376.129 -0.616719 -0.687945 -0.304782 -0.231293 
3791 2 -782.11 2762.51 -379.495 -0.644988 -0.219101 -0.522225 0.513095 
3790 2 -788.066 2769.15 -383.849 -0.00120344 0.347335 -0.403469 0.846504 
3789 2 -790.229 2778.45 -386.28 0.681311 0.580634 -0.146241 0.421062 
3748 1 -712.206 2820.79 -474.407 -0.286819 0.0767978 0.712566 -0.635677 
3788 2 -791.205 2787.97 -388.945 0.687548 0.52438 0.36987 -0.339851 
3787 2 -795.45 2796.53 -391.206 0.361375 -0.104619 0.585411 -0.718162 
3786 2 -801.424 2803.67 -394.561 -0.355626 -0.490808 0.286881 -0.741847 
3858 2 -676.444 2786.25 -500.099 -0.190003 0.2531 0.654952 0.686205 
3859 2 -674.586 2796.06 -500.232 -0.561847 0.778742 0.0996719 0.260679 
3764 2 -796.141 2818.2 -466.215 0.109225 -0.177441 0.557312 0.803734 
3765 2 -797.291 2827.61 -463.559 -0.490717 0.508487 0.539172 0.458183 
3809 2 -678.412 2731.86 -363.379 -0.629444 0.571955 -0.176909 -0.495349 
3808 2 -674.038 2723.38 -366.356 -0.796985 0.46027 0.355818 0.16236 
3766 2 -796.745 2837.57 -464.188 -0.633043 0.751101 -0.0722044 -0.17289 
3782 2 -812.282 2837.22 -380.19 0.426414 0.883958 -0.104761 0.160668 
3807 2 -669.649 2715.73 -371.013 -0.306856 -0.0722028 0.474353 0.821958 
3860 2 -671.974 2805.31 -502.241 -0.547894 0.528953 -0.563438 -0.320246 