ITEM: TIMESTEP
100000000
ITEM: NUMBER OF ATOMS
4067
ITEM: BOX BOUNDS pp pp pp
-4.6310929470000001e+03 4.6704658980000004e+03
-4.6310929470000001e+03 4.6704658980000004e+03
-4.6310929470000001e+03 4.6704658980000004e+03
ITEM: ATOMS id type x y z c_q[1] c_q[2] c_q[3] c_q[4] 
3314 2 -428.915 1905.8 -591.606 -0.0891093 -0.0656656 0.993615 -0.0218427 
3315 2 -431.165 1904.74 -601.304 -0.04377 0.737304 0.664816 -0.111742 
3316 1 -475.937 1917.34 -593.373 -0.865732 -0.104093 -0.188082 -0.451993 
3312 2 -423.089 1905.31 -573.135 -0.0112128 -0.954207 -0.226529 0.195059 
3313 2 -426.718 1903.71 -582.24 0.0522159 -0.801081 0.56933 0.177218 
3311 2 -416.996 1909.56 -566.491 0.237592 -0.374444 -0.806794 0.390417 
3310 2 -409.6 1915.31 -563.398 0.5762 0.517139 -0.630623 -0.0536186 
3309 2 -403.223 1921.93 -559.526 0.371083 0.842983 0.0283357 -0.388425 
3323 2 -487.439 1918.21 -525.745 -0.478565 0.281787 0.00164984 0.831606 
3322 2 -495.673 1917.26 -531.213 0.28467 0.376131 0.196112 0.859668 
3321 2 -500.115 1918.54 -539.877 0.947288 0.138525 0.187711 0.219592 
3317 3 -461.853 1916.88 -561.306 -0.768841 -0.165448 -0.162504 -0.595905 
3320 2 -504.913 1921.22 -548.17 0.747459 -0.0821415 0.315572 -0.578767 
3319 2 -509.201 1924.9 -556.379 -0.0585912 -0.237057 0.167815 -0.955096 
3324 2 -482.797 1920.34 -517.274 -0.959615 -0.0917172 -0.251194 0.0873373 
3288 2 -274.911 1918.05 -577.63 -0.371649 -0.312103 -0.874074 0.0215435 
3287 2 -281.726 1920.83 -570.969 -0.199783 0.575074 -0.708068 0.357795 
3286 2 -288.305 1920.72 -563.447 0.0407102 0.91024 0.0444929 0.409666 
3285 2 -291.831 1919.37 -554.322 0.130466 0.540501 0.816647 0.154676 
3284 2 -294.302 1915.81 -545.38 0.227808 -0.142868 0.946179 0.180104 
3283 2 -296.842 1913.81 -535.999 0.194179 -0.829699 0.519854 -0.0603834 
3282 2 -297.287 1912.89 -526.338 0.0304533 -0.935573 -0.351492 0.0151155 
3281 2 -298.763 1912.6 -516.573 -0.106404 -0.276842 -0.954737 -0.0226838 
3499 2 -666.869 2042.91 -527.519 -0.75664 -0.0356984 -0.246538 0.604516 
3498 2 -667.46 2047.29 -536.444 0.0763149 0.0882785 -0.254791 0.95993 
3500 2 -664.288 2039.42 -518.702 -0.977148 -0.0434676 -0.0786872 -0.192617 
3497 2 -664.59 2048.56 -545.829 0.878586 0.00203309 -0.16067 0.449742 
3496 2 -659.855 2048.63 -554.461 0.897826 0.132026 -0.22551 -0.354433 
3480 2 -549.494 2010.71 -645.781 -0.879749 0.240747 -0.0244097 -0.409251 
3478 1 -551.461 2055.75 -659.793 0.270985 0.13501 0.0273091 0.952677 
3481 2 -550.567 2014.92 -636.765 -0.145691 0.316666 -0.0649323 -0.93503 
3482 2 -556.157 2016.35 -628.684 0.647565 0.155038 -0.273217 -0.694245 
3483 2 -561.264 2018.08 -620.427 0.913439 -0.0154412 -0.402054 -0.061188 
3479 3 -539.091 2058.01 -627.115 0.260865 0.148091 0.130764 0.944944 
3484 2 -567.551 2020.38 -613.109 0.598064 -0.430932 -0.19215 0.647839 
3485 2 -575.072 2023.89 -607.987 -0.114608 -0.448552 0.30139 0.833565 
3486 2 -583.354 2028.76 -605.66 -0.783693 0.0621742 0.468159 0.403468 
3487 2 -590.377 2033.44 -600.698 -0.685511 0.430339 0.354766 -0.468 
3488 2 -599.006 2036.34 -596.931 -0.00897915 0.646546 -0.114724 -0.754146 
3489 2 -608.395 2038.87 -595.477 0.682821 0.117348 -0.567006 -0.445521 
3495 2 -653.657 2049.65 -562.093 0.188143 0.324281 0.027617 -0.926651 
3494 2 -646.938 2052.16 -568.777 -0.543022 0.281368 0.328103 -0.719936 
3493 2 -639.115 2050.05 -574.656 -0.896902 0.0277606 0.418827 0.139214 
3492 2 -631.533 2048.48 -580.566 -0.518132 -0.251016 0.323057 0.751109 
3490 2 -617.012 2042.45 -592.479 0.784479 -0.314263 -0.416512 0.335187 
3491 2 -625.086 2045.24 -587.335 0.357601 -0.352266 -0.0296437 0.864379 
3308 2 -395.344 1926.99 -556.199 -0.209451 0.50329 0.629826 -0.553307 
3307 2 -386.628 1928.98 -552.064 -0.543672 -0.0983618 0.828641 -0.0899988 
3306 2 -377.863 1931.21 -548.023 -0.432025 -0.686143 0.438748 0.387378 
3318 2 -512.604 1927.4 -565.329 -0.801065 -0.189708 -0.0622119 -0.564301 
3305 2 -369.253 1932.12 -543.308 0.0424695 -0.845795 -0.180826 0.500129 
3466 2 -476.716 2063.33 -587.555 0.570836 -0.49667 -0.653686 -0.0126428 
3453 2 -439.223 1951.5 -585.629 0.844043 -0.517011 0.138568 0.0329977 
3454 2 -437.988 1959.71 -580.509 0.37702 -0.269615 0.435091 0.771919 
3455 2 -439.556 1968.37 -575.985 -0.270972 0.258387 0.705948 0.601205 
3456 2 -440.427 1978.22 -577.429 -0.627805 0.673552 0.297695 0.252124 
3457 2 -440.71 1988.08 -578.968 -0.543451 0.683105 -0.282615 -0.397691 
3452 3 -411.246 1994.75 -592.547 0.473386 -0.361632 0.368332 0.713764 
3458 2 -443.732 1997.41 -580.252 0.118235 0.0214638 -0.609837 -0.783364 
3459 2 -444.435 2007.19 -578.421 0.621805 -0.611521 -0.376511 -0.312473 
3460 2 -445.186 2017 -579.194 0.576102 -0.691671 0.171499 0.400357 
3461 2 -448.246 2026.59 -579.19 0.0615377 -0.479783 0.508502 0.712353 
3462 2 -454.299 2034.25 -579.135 -0.558638 0.0657005 0.711574 0.421033 
3463 2 -461.435 2041.07 -579.15 -0.700518 0.65527 0.251928 -0.128174 
3464 2 -466.054 2049.8 -578.753 -0.210258 0.708817 -0.339922 -0.581226 
3465 2 -472.816 2056.52 -581.538 0.182302 0.0389915 -0.877393 -0.442072 
3451 1 -404.066 1967.29 -612.869 0.451686 -0.357677 0.328495 0.748424 
3467 2 -483.784 2069.67 -590.633 0.197412 -0.912677 -0.00678631 0.357776 
3439 2 -399.093 2001.59 -531.624 -0.206391 0.56079 0.801722 0.0126074 
3450 2 -376.506 2001.35 -630.616 -0.187829 -0.936192 -0.296689 0.0155044 
3446 2 -387.099 2012.73 -595.375 0.270501 0.672191 0.671265 0.156178 
3440 2 -402.642 2003.73 -540.507 -0.0639005 0.995124 -0.0750755 -0.00297908 
3445 2 -391.85 2011.93 -586.81 0.278559 -0.0939358 0.954549 0.0491649 
3444 2 -396.811 2008.94 -578.939 0.264174 -0.823878 0.466434 -0.184055 
3441 2 -402.827 2005.31 -550.298 -0.136491 0.574685 -0.804798 -0.0583737 
3443 2 -399.605 2008.72 -569.463 -0.0686423 -0.853993 -0.460939 -0.231345 
3442 2 -402.005 2007.03 -560.015 -0.134014 -0.21261 -0.965577 -0.0670688 
3468 2 -490.062 2074.2 -596.809 -0.146473 -0.541104 0.721576 0.4063 
3447 2 -381.735 2010.73 -603.331 0.122723 0.968085 -0.109993 0.188817 
3448 2 -378.274 2007.39 -611.935 0.0128483 0.412361 -0.897442 0.156176 
3449 2 -377.321 2005.16 -621.453 -0.119485 -0.363736 -0.907371 0.173489 
3438 2 -397.469 1996.94 -523.112 -0.0419279 -0.198377 0.951129 0.232901 
3437 2 -392.655 1996.42 -514.495 -0.0982433 -0.845848 0.438054 0.288092 
3304 2 -359.484 1932.7 -541.467 0.572459 -0.293806 -0.71393 0.276175 
3303 2 -351.171 1932.81 -536.217 0.438334 0.402398 -0.770373 -0.229051 
3290 3 -285.779 1947.24 -536.087 -0.826063 -0.293339 0.287921 0.385581 
3289 1 -258.582 1956.59 -555.965 -0.817635 -0.27517 0.361654 0.353499 
3302 2 -342.761 1931.3 -531.258 -0.0467118 0.837884 -0.155949 -0.521008 
3301 2 -334.355 1934.42 -526.996 -0.2325 0.642299 0.581724 -0.441579 
3300 2 -327.38 1939.71 -522.616 -0.418674 -0.111597 0.869252 -0.238031 
3299 2 -320.921 1947.08 -521.951 -0.676846 -0.64052 0.346081 0.108819 
3298 2 -313.466 1953.51 -520.787 -0.243638 -0.718644 -0.195369 0.621307 
3291 2 -258.985 1989.55 -522.253 -0.139371 -0.648301 0.0441141 0.747218 
3292 2 -268.733 1988.64 -521.135 -0.662118 -0.493782 0.445773 0.345059 
3293 2 -278.063 1985.33 -520.733 -0.743015 -0.0463471 0.598469 -0.295999 
3297 2 -305.129 1958.54 -519.079 0.246243 -0.420281 -0.606409 0.628488 
3296 2 -300.276 1966.93 -517.339 0.566379 0.302688 -0.677009 0.359517 
3295 2 -293.648 1974.29 -517.899 0.610038 0.686933 -0.110943 -0.379036 
3294 2 -286.792 1981.37 -518.114 -0.0863836 0.380642 0.540738 -0.745152 
3530 2 -711.811 2203.04 -614.719 -0.102607 0.232031 -0.913787 -0.317216 
3529 2 -711.569 2195.45 -608.134 -0.373887 0.807017 -0.436576 -0.135404 
3528 2 -712.42 2186.99 -603.143 -0.455411 0.835136 0.25447 0.174339 
3527 2 -715.012 2177.73 -601.24 0.0050328 0.291199 0.723637 0.625721 
3526 2 -714.589 2167.99 -599.778 0.399952 -0.479317 0.625566 0.467932 
3525 2 -714.326 2158.25 -598.225 0.645472 -0.75871 -0.0771138 -0.0421698 
3533 3 -738.486 2205.32 -578.403 -0.87624 -0.39037 -0.0426591 -0.279275 
3524 2 -709.06 2150.3 -595.698 0.511835 -0.201199 -0.731046 -0.403876 
3523 2 -704.71 2141.37 -594.128 -0.0425056 0.387709 -0.660822 -0.641241 
3522 2 -701.231 2132.76 -590.979 -0.468192 0.783869 -0.162555 -0.37406 
3521 2 -697.779 2124.87 -586.097 -0.440484 0.536298 0.6911 0.20184 
3520 2 -695.237 2118.26 -579.19 -0.00842411 -0.272022 0.892095 0.360694 
3539 2 -760.558 2211.32 -529.878 0.757039 0.303014 0.287332 -0.502508 
3538 2 -763.779 2218.13 -536.414 0.160802 -0.05979 0.387672 -0.905692 
3537 2 -767.027 2222.31 -544.812 -0.714648 -0.275698 -0.00624472 -0.642829 
3536 2 -768.122 2225.76 -554.023 -0.898079 -0.144514 -0.146709 0.388648 
3540 2 -758.938 2203.95 -523.51 0.871719 0.185101 -0.0936494 0.44393 
3531 2 -711.628 2209.09 -622.55 0.193705 -0.53406 -0.769007 -0.293064 
3519 2 -689.261 2113.24 -573.18 0.0787688 -0.820619 0.327968 0.46132 
3518 2 -682.571 2108.16 -568.02 0.445468 -0.790787 -0.380242 0.177849 
3517 2 -674.433 2107.45 -562.485 0.443109 -0.0513548 -0.894633 -0.0254777 
3532 1 -750.168 2227.69 -602.764 -0.850842 -0.411243 -0.0600415 -0.321469 
3535 2 -774.121 2229.39 -561.198 -0.410986 0.214361 -0.340908 0.817877 
3541 2 -759.477 2199.99 -514.392 0.199396 0.0173135 -0.242447 0.949295 
3477 2 -546.11 2102.19 -653.694 -0.179436 0.812044 0.514638 -0.208649 
3476 2 -540.023 2102.14 -645.846 -0.282581 0.19411 0.938899 -0.0306177 
3475 2 -531.378 2102.44 -640.979 -0.410106 -0.55428 0.647164 0.325215 
3516 2 -665.513 2107.6 -558.302 0.396225 0.590874 -0.578407 -0.399149 
3515 2 -656.815 2110.18 -554.179 0.161642 0.842001 0.0342085 -0.513552 
3514 2 -649.392 2113.09 -548.331 -0.239313 0.455756 0.760929 -0.394972 
3513 2 -641.529 2113.92 -542.385 -0.467076 -0.283874 0.833992 0.0755895 
3512 2 -635.674 2110.56 -535.202 0.0459861 -0.816609 0.4424 0.367854 
3511 2 -633.262 2110.39 -525.659 0.0514344 -0.931134 -0.350872 0.0850519 
3510 2 -629.532 2113.18 -516.906 0.125243 -0.277085 -0.931893 0.19777 
3474 2 -523.088 2099.18 -636.691 0.150084 -0.818555 0.118149 0.541741 
3473 2 -514.453 2097.02 -632.571 0.452578 -0.611106 -0.553343 0.339903 
3469 2 -496.3 2079.13 -602.777 -0.30631 0.38387 0.854818 0.167642 
3470 2 -499.7 2084.62 -610.233 -0.285569 0.902867 0.288922 -0.140731 
3472 2 -508.498 2093.33 -625.495 0.351876 0.0660292 -0.924094 -0.133695 
3471 2 -503.524 2089.09 -618.084 -0.0460937 0.762103 -0.538291 -0.356814 
3534 2 -780.7 2233.55 -567.238 0.348959 0.419352 -0.113666 0.830332 
3585 2 -719.569 2329.42 -521.072 -0.396946 0.673777 0.397209 0.480296 
3584 2 -722.871 2320.32 -518.739 0.14316 0.108132 0.77966 0.599953 
3583 2 -725.195 2311.15 -515.7 0.576759 -0.683919 0.402042 0.194851 
3613 1 -567.716 2336.44 -569.531 -0.740349 -0.356091 0.164971 0.545773 
3612 2 -600.088 2309.23 -590.737 -0.0649786 0.893353 0.384288 0.223655 
3611 2 -603.122 2306.3 -581.882 0.088591 0.331775 0.91048 0.230441 
3610 2 -607.451 2305.95 -573.108 0.228027 -0.414096 0.880647 -0.0314514 
3614 3 -586.005 2323.24 -542.769 -0.745164 -0.400788 0.0861852 0.525995 
3609 2 -614.563 2305.02 -566.229 0.121571 -0.908286 0.203965 -0.344434 
3615 2 -548.435 2357.35 -531.876 -0.799825 0.345151 0.391882 -0.295937 
3608 2 -621.232 2304.27 -558.873 -0.189166 -0.687036 -0.609373 -0.347653 
3616 2 -556.01 2361.21 -526.897 -0.38588 0.533981 -0.0607435 -0.749847 
3607 2 -624.832 2305.34 -549.72 -0.179202 0.107251 -0.977438 0.0315939 
3606 2 -623.191 2304.88 -540.039 0.0080012 0.883736 -0.457666 -0.0974102 
3605 2 -623.274 2304.9 -530.153 0.0181745 0.875357 0.482359 -0.0273701 
3604 2 -624.385 2307.9 -520.818 0.00326006 0.00652365 0.991477 -0.130078 
3617 2 -563.894 2365.1 -522.175 0.452015 -0.0140539 -0.356773 -0.817434 
3618 2 -567.705 2370.32 -514.679 0.913216 -0.30529 -0.123135 -0.240152 
3684 2 -681.343 2516.55 -518.55 0.283067 0.292413 0.91336 0.011886 
3685 2 -674.888 2515.92 -526.017 0.100053 0.880423 0.371952 0.276579 
3686 2 -669.611 2516.45 -534.337 -0.124954 0.835656 -0.533074 0.0435523 
3687 2 -668.6 2517.32 -544.071 -0.0801457 0.00591896 -0.983199 0.163894 
3688 2 -667.472 2514.35 -553.458 -0.0177801 -0.772699 -0.633692 0.032473 
3689 2 -667.304 2513.03 -563.344 -0.143879 -0.965088 0.175935 -0.130196 
3693 2 -659.943 2506.95 -600.743 0.086785 0.865887 -0.485702 0.0824705 
3692 2 -660.247 2508.62 -591.082 0.112287 0.906515 0.406959 -0.00262828 
3690 2 -665.462 2509.82 -572.532 0.124788 -0.565119 0.789987 -0.202459 
3691 2 -661.96 2507.45 -581.518 0.0294778 0.282146 0.954286 0.0941389 
3634 2 -587.932 2495.55 -541.866 0.440888 -0.315431 0.802065 0.250624 
3633 2 -589.284 2489.92 -533.846 0.29987 -0.932215 0.202439 0.00846012 
3632 2 -588.609 2484.23 -525.92 0.248879 -0.75441 -0.589683 -0.145597 
3635 2 -583.519 2502.78 -546.903 -0.00195554 0.482257 0.772509 0.413102 
3631 2 -584.613 2476.57 -521.191 0.258459 -0.0174021 -0.889444 -0.376544 
3636 2 -579.434 2508.89 -553.639 -0.292841 0.881676 0.259966 0.263266 
3637 2 -576.64 2515.55 -560.173 -0.60203 0.670862 -0.431395 -0.037449 
3638 2 -572.002 2523.93 -562.358 -0.476068 0.145824 -0.795119 -0.346237 
3639 2 -565.587 2530.8 -565.48 -0.163797 -0.400539 -0.700743 -0.567185 
3630 2 -579.747 2470.59 -515.024 -0.0857417 0.664681 -0.594411 -0.444435 
3709 2 -604.718 2543.38 -518.626 -0.293926 -0.151177 -0.0745635 0.940847 
3707 2 -610.436 2547.8 -536.828 0.937452 0.150382 0.0470924 0.310406 
3708 2 -608.66 2545.75 -527.277 0.491917 0.267204 0.00606874 0.828603 
3695 3 -636.831 2552.88 -592.952 0.891759 -0.165228 -0.109301 -0.40684 
3706 2 -611.794 2549.77 -546.369 0.813924 0.02272 0.0899337 -0.573519 
3705 2 -611.529 2554.18 -555.206 0.0486847 -0.00546678 0.252985 -0.966229 
3704 2 -613.25 2556.96 -564.525 -0.765868 -0.182162 0.0181069 -0.616389 
3694 1 -638.915 2540.99 -625.807 0.869469 -0.198091 -0.0656284 -0.447746 
3703 2 -613.012 2562.31 -572.764 -0.8161 -0.269729 -0.166221 0.48332 
3702 2 -611.329 2569.08 -579.743 -0.0597306 -0.103778 -0.368585 0.92185 
3701 2 -608.116 2577.46 -584.074 0.623129 0.276735 -0.482907 0.549481 
3700 2 -609.286 2580.88 -593.091 0.971106 0.13725 0.116356 -0.15677 
3699 2 -608.206 2583.43 -602.561 0.57133 0.146974 0.113808 -0.799393 
3698 2 -611.942 2585.01 -611.613 -0.177296 -0.195546 0.00569703 -0.964518 
3641 3 -604.348 2559.38 -545.767 -0.900018 -0.271043 0.309723 -0.143439 
3697 2 -614.942 2583.04 -620.735 -0.733353 -0.00222418 -0.239562 -0.636238 
3696 2 -615.989 2581.91 -630.533 -0.950402 0.0740188 0.0143705 0.301747 
3648 2 -637.209 2572.89 -522.497 0.696026 0.547569 0.0864853 -0.45633 
3647 2 -632.201 2580.63 -526.082 0.0858311 0.351266 0.442058 -0.820871 
3646 2 -627.437 2587.42 -531.444 -0.614789 -0.0579992 0.482479 -0.621196 
3645 2 -623.363 2593.42 -538.336 -0.896456 -0.349072 0.250282 -0.10897 
3644 2 -618.63 2600.26 -543.814 -0.69334 -0.482964 -0.00706283 0.534767 
3643 2 -617.803 2603.14 -553.403 0.0116581 -0.0650355 -0.166549 0.983817 
3642 2 -617.021 2606.9 -562.4 0.647082 0.113722 -0.175306 0.733226 
3640 1 -585.263 2573.18 -571.643 -0.914345 -0.203479 0.315271 -0.152232 
3649 2 -641.075 2564.66 -518.909 0.788427 0.387776 -0.383061 0.285091 
3650 2 -644.829 2556.78 -514.197 0.379469 0.0454255 -0.536111 0.752678 
4020 2 -654.495 3065.65 -540.025 -0.750793 0.616346 -0.198327 -0.130743 
4021 2 -653.191 3075.44 -538.738 -0.407118 0.11111 -0.75367 -0.503877 
4022 2 -648.355 3083.71 -540.791 0.197021 -0.473358 -0.523722 -0.680316 
4023 2 -644.037 3092.61 -540.855 0.542842 -0.777692 0.0277948 -0.315824 
4024 2 -639.783 3101.21 -543.633 0.508386 -0.340878 0.755217 0.234507 
4025 2 -634.429 3108.27 -547.904 0.237704 0.435936 0.697952 0.516061 
4026 2 -626.68 3113.51 -551.177 -0.138702 0.818174 0.0574814 0.555021 
4027 2 -618.385 3117.23 -555.032 -0.515347 0.694889 -0.46305 0.192696 
4032 2 -575.201 3138.3 -565.532 0.328245 0.505234 0.4503 0.658957 
4033 2 -565.821 3140.57 -563.989 -0.239654 0.547833 -0.225996 0.769006 
4031 2 -584.282 3134.57 -565.003 0.671173 -0.035699 0.712536 0.20136 
4030 2 -592.959 3130.19 -562.913 0.527127 -0.696526 0.353316 -0.334897 
4029 2 -601.472 3125.53 -561.181 0.0766857 -0.70891 -0.296062 -0.635542 
4028 2 -609.998 3121.63 -557.733 -0.507915 -0.0601736 -0.800218 -0.313134 
4034 2 -556.806 3140.3 -559.829 -0.76238 0.262034 -0.560017 0.191035 
4035 2 -547.74 3142.31 -556.038 -0.518031 -0.180275 -0.631944 -0.547532 
4046 3 -488.107 3126.45 -525.92 -0.287647 -0.920833 0.0823808 0.250078 
3993 2 -696.879 3175.53 -578.095 -0.849033 0.0261333 0.0831084 0.521108 
3994 2 -697.635 3176.35 -568.215 -0.911981 -0.0535025 -0.180541 -0.364462 
3995 2 -694.603 3178.4 -558.852 -0.257212 0.0566739 -0.114964 -0.957817 
3996 2 -694.954 3180.72 -549.274 0.709192 0.00563216 0.00500361 -0.704976 
3997 2 -695.487 3180.84 -539.323 0.989728 -0.0534072 -0.128219 0.0338464 
3998 2 -698.44 3181.64 -529.892 0.423912 -0.0301544 -0.150144 0.892662 
3991 1 -743.387 3182.6 -581.486 0.456563 -0.223481 -0.162857 -0.845627 
3992 3 -734.854 3200.08 -552.437 0.394739 -0.183764 -0.180455 -0.881957 
3990 2 -784.549 3200.63 -567.206 0.467319 0.811005 -0.336124 -0.104426 
3989 2 -779.876 3207.47 -561.628 0.185598 0.780049 0.456167 -0.385991 
3988 2 -778.227 3212.38 -553.227 -0.0766229 0.0140013 0.949932 -0.302591 
3987 2 -776.744 3221.01 -548.633 -0.449375 -0.630144 0.569073 -0.277735 
3986 2 -774.382 3227.73 -541.74 -0.375945 -0.900682 -0.153744 0.154275 
3985 2 -771.326 3236.02 -537.32 -0.210409 -0.513228 -0.656601 0.511078 
3984 2 -766.978 3243.32 -532.255 0.2837 0.0186127 -0.863865 0.41582 
3983 2 -761.812 3249.74 -526.887 0.46914 0.687739 -0.551859 -0.0487277 
3982 2 -753.18 3254.28 -525.066 0.22655 0.751988 0.06075 -0.616035 
3981 2 -744.339 3258.6 -523.634 -0.385839 0.374761 0.654831 -0.530923 
3980 2 -736.806 3261.67 -518.202 -0.468658 -0.351516 0.810348 -0.0114666 
3999 2 -700.282 3179.2 -520.502 -0.51758 0.117838 -0.110649 0.840228 
4036 2 -539.448 3147.58 -555.035 0.18726 -0.596008 -0.291046 -0.724569 
4037 2 -531.893 3153.83 -553.718 0.567195 -0.56501 0.449432 -0.396313 
4038 2 -522.524 3156.92 -554.055 0.666082 0.1154 0.692768 0.251176 
4039 2 -512.973 3159.17 -552.994 0.139632 0.526544 0.372685 0.751239 
4040 2 -503.719 3162.27 -551.281 -0.410713 0.527844 -0.140065 0.730121 
4041 2 -494.815 3164.2 -547.7 -0.770505 0.220468 -0.577117 0.157011 
4042 2 -485.653 3166.59 -544.714 -0.597544 -0.308064 -0.487417 -0.557192 
4043 2 -476.838 3169.08 -541.222 0.154208 -0.611642 -0.110354 -0.768073 
4044 2 -467.8 3172.62 -538.854 0.604912 -0.54513 0.283243 -0.506644 
2964 2 -466.598 1375.88 -408.088 0.305487 0.860274 0.143127 -0.382257 
2963 2 -462.203 1382.53 -402.279 -0.04228 0.438224 0.760865 -0.476715 
2962 2 -457.647 1388.59 -395.73 -0.335128 -0.228778 0.874846 -0.264564 
2961 2 -456.121 1393.78 -387.495 -0.26433 -0.891722 0.366141 -0.0300328 
2960 2 -460.739 1399.5 -380.742 -0.419674 -0.787621 -0.446766 -0.0626736 
2959 2 -462.565 1407.34 -375.102 -0.130483 0.00843126 -0.880197 0.456241 
2965 1 -498.741 1356.23 -379.731 -0.580571 -0.0113461 -0.446799 -0.680573 
2958 2 -462.619 1416.47 -371.223 0.42973 0.613066 -0.543098 0.380166 
2957 2 -462.513 1425.8 -367.771 0.582394 0.778721 0.190226 -0.135 
2956 2 -462.653 1434.53 -363.213 0.204198 0.297931 0.822601 -0.439167 
2919 2 -376.105 1430.84 -366.158 0.773812 -0.517688 0.289108 0.222779 
2920 2 -373.82 1440.07 -363.014 0.240306 -0.149203 0.562895 0.776621 
2918 2 -376.326 1420.89 -366.308 0.66236 -0.643087 -0.282014 -0.261125 
2915 2 -372.999 1392.23 -362.141 -0.60885 0.769021 0.162869 0.106687 
2916 2 -373.312 1401.54 -365.454 -0.434448 0.585005 -0.402856 -0.553833 
2917 2 -375.418 1411.22 -365.312 0.123283 -0.148449 -0.757649 -0.623484 
2913 2 -370.867 1372.55 -362.349 0.23896 -0.317401 0.636936 0.660657 
2914 2 -371.729 1382.46 -362.029 -0.368284 0.28044 0.6975 0.547005 
2940 2 -434.06 1552.75 -410.924 -0.945125 -0.174931 0.0476991 -0.271777 
2941 2 -433.648 1547.92 -402.144 -0.42159 0.0612234 0.287266 -0.8579 
2942 2 -436.743 1543.48 -393.863 0.227066 0.287483 0.194739 -0.909874 
2943 2 -440.755 1538.58 -386.303 0.893082 0.260251 0.0343687 -0.365367 
2944 2 -442.358 1534.15 -377.609 0.761535 0.204707 -0.333033 0.51696 
2938 1 -392.556 1575.18 -412.124 -0.668437 -0.324437 0.232607 -0.627556 
2939 3 -388.103 1551.79 -386.565 -0.59415 -0.287219 0.24274 -0.711034 
2945 2 -444.849 1527.81 -370.325 0.0285356 -0.110734 -0.292561 0.949385 
2946 2 -447.205 1522.18 -362.355 -0.619471 -0.406329 -0.0512 0.669724 
2936 2 -349.242 1576.64 -392.332 -0.0186894 0.692625 0.689332 0.211526 
2937 2 -346.625 1578.9 -401.594 -0.161957 0.978601 0.040653 0.12024 
2935 2 -348.912 1570.87 -384.217 -0.00569811 -0.101229 0.952679 0.286572 
2934 2 -347.868 1564.79 -376.431 0.243269 -0.733706 0.601786 0.200871 
2933 2 -347.402 1557.56 -369.822 0.417112 -0.905735 -0.0692458 -0.0294447 
2932 2 -347.392 1548.06 -366.668 0.282667 -0.434341 -0.689897 -0.50546 
2931 2 -350.366 1539.69 -362.253 -0.194504 0.0989306 -0.857724 -0.465501 
3235 1 -295.393 1756.75 -484.731 0.899647 -0.319759 0.287999 -0.0737963 
3234 2 -273.141 1727.35 -455.186 0.00238375 0.39278 0.800285 -0.453059 
3233 2 -269.773 1733.95 -448.757 -0.340913 -0.362939 0.830913 -0.248267 
3232 2 -264.953 1741.97 -445.421 -0.568223 -0.740974 0.357258 0.0211457 
3230 2 -260.907 1756.25 -432.616 -0.0489399 -0.119588 -0.907202 0.400359 
3231 2 -261.692 1748.7 -438.809 -0.304304 -0.80573 -0.376 0.341793 
3229 2 -256.825 1762.22 -425.818 0.397312 0.675765 -0.619095 0.0469804 
3228 2 -252.62 1767.89 -418.953 0.28705 0.941436 -0.0307989 -0.174218 
3330 2 -477.607 1901.32 -463.701 -0.525074 -0.123704 0.190017 0.820298 
3331 2 -481.416 1902.03 -454.631 -0.912549 -0.148551 0.37812 0.0470239 
3332 2 -488.192 1900.49 -447.661 -0.675415 0.133459 0.22215 -0.6904 
3333 2 -494.241 1899.54 -439.85 0.261367 0.197795 0.192702 -0.924895 
3334 2 -497.543 1895.07 -431.554 0.851156 0.346652 -0.0409908 -0.392027 
3338 2 -502.234 1872 -401.063 -0.95153 -0.100607 -0.184967 0.224177 
3339 2 -498.424 1869.72 -392.265 -0.814713 -0.258386 -0.0290101 -0.518303 
3343 1 -442.051 1860.7 -393.736 0.484559 -0.572922 -0.644594 -0.146498 
3345 2 -413.613 1873.85 -429.072 -0.568127 0.735406 0.335452 -0.154537 
3346 2 -418.944 1881.19 -433.19 -0.212764 0.698798 -0.32438 -0.600992 
3347 2 -425.742 1888.06 -434.984 0.358824 0.241412 -0.75843 -0.487596 
3348 2 -432.484 1894.71 -437.806 0.638303 -0.536532 -0.549219 -0.0553233 
3344 3 -459.991 1886.52 -409.2 0.504811 -0.54256 -0.661094 -0.117253 
3349 2 -438.62 1901.82 -440.701 0.443809 -0.742506 0.264957 0.426048 
3350 2 -442.83 1910.35 -443.523 -0.0234237 -0.379715 0.706682 0.596547 
3335 2 -500.951 1889.37 -424.241 0.810201 0.271387 -0.326271 0.404316 
3337 2 -503.883 1876.54 -409.583 -0.358944 0.0236049 -0.215665 0.907794 
3336 2 -502.782 1882.48 -417.496 0.290355 0.018556 -0.26456 0.919433 
3408 2 -419.493 1896.51 -386.946 0.574369 -0.628666 -0.471764 -0.228732 
3407 2 -419.429 1887.46 -383.04 -0.0159961 -0.0011741 -0.826637 -0.562507 
3340 2 -495.614 1866.84 -383.233 -0.120097 -0.346644 0.0187938 -0.930087 
3341 2 -489.178 1864.69 -375.892 0.63614 -0.155893 0.360611 -0.664066 
3342 2 -482.413 1861.8 -369.305 0.874772 0.283436 0.294627 0.260064 
3406 2 -420.155 1878.79 -378.366 -0.461864 0.685295 -0.514776 -0.22816 
3405 2 -420.867 1869.94 -373.599 -0.477442 0.79226 0.289158 0.246495 
3404 2 -421.69 1860.53 -370.653 -0.240403 0.327891 0.719545 0.562982 
3329 2 -474.992 1903 -473.137 0.372526 -0.08664 -0.0989337 0.918657 
3328 2 -474.745 1904.92 -482.952 0.965729 0.0824252 -0.0502076 0.240942 
3327 2 -475.256 1909.44 -491.771 0.783027 0.15592 0.153657 -0.582192 
3326 2 -475.065 1913.49 -500.836 0.185794 0.0726969 0.165461 -0.965825 
3325 2 -477.932 1918.11 -509.04 -0.658417 -0.271347 0.0702287 -0.698517 
3409 2 -422.14 1905.82 -389.123 0.581121 -0.774481 0.207952 0.138687 
3410 2 -420.998 1915.48 -391.424 0.39499 -0.196119 0.697934 0.564277 
3351 2 -447.909 1918.76 -445.245 -0.586609 0.445075 0.593948 0.324074 
3403 2 -420.559 1852.4 -365.098 0.243581 -0.581396 0.678581 0.377061 
3411 2 -418.483 1924.91 -392.878 -0.268384 0.394607 0.532081 0.699389 
3227 2 -248.214 1773.34 -412.064 -0.0379393 0.476003 0.784627 -0.395401 
3226 2 -244.936 1781.92 -408.394 -0.427626 -0.448086 0.732035 -0.283688 
3280 2 -298.516 1913.82 -506.623 0.0467488 0.504424 -0.860436 0.0549559 
3236 3 -275.527 1778.13 -465.388 0.884389 -0.344402 0.310843 -0.0511935 
3225 2 -239.148 1788.9 -404.608 -0.483404 -0.812902 0.122773 0.300729 
3224 2 -234.484 1795.19 -398.546 -0.131601 -0.651908 -0.616154 0.42196 
3237 2 -301.874 1798.93 -505.021 -0.565266 0.126449 -0.4772 -0.660882 
3238 2 -298.146 1806.57 -500.036 0.169442 -0.442101 -0.225382 -0.851492 
3279 2 -295.273 1910.89 -497.61 -0.0308986 0.954651 -0.174609 -0.23916 
3278 2 -289.856 1910.19 -489.319 -0.171902 0.717516 0.630286 -0.241576 
3239 2 -291.236 1811.5 -495.076 0.756232 -0.397745 0.272412 -0.442385 
3240 2 -283.965 1815.89 -490.08 0.747852 -0.0172968 0.633593 0.197432 
3277 2 -285.467 1910.54 -480.404 -0.199702 -0.104741 0.974149 0.0134863 
3241 2 -274.381 1817.73 -488.275 0.311149 0.552126 0.184842 0.751117 
3242 2 -264.89 1817.61 -485.231 -0.40797 0.563959 -0.307104 0.648997 
3243 2 -255.252 1818.41 -483.09 -0.693665 0.34104 -0.622871 0.120634 
3244 2 -246.097 1821.94 -483.612 -0.373071 -0.248325 -0.776788 -0.442441 
3245 2 -238.23 1827.17 -486.767 0.0598588 -0.767491 -0.202917 -0.605144 
3246 2 -229.633 1831.68 -489.273 0.573395 -0.676008 0.363647 -0.286342 
3247 2 -221.286 1836.95 -490.205 0.719989 -0.0320282 0.505396 0.474515 
3223 2 -227.375 1796.34 -391.551 0.415452 -0.00279839 -0.909048 0.031992 
3222 2 -220.29 1796.46 -384.658 0.284258 0.676581 -0.602679 -0.31339 
3248 2 -214.618 1842.45 -485.487 0.138714 0.446278 0.368318 0.803702 
3268 2 -236.914 1914.84 -410 0.0224825 -0.846314 -0.444285 0.293014 
3265 2 -232.303 1920.21 -381.689 0.18502 0.959604 0.208291 -0.0392679 
3267 2 -233.384 1915.93 -400.83 0.157582 -0.0574065 -0.984951 0.0417634 
3266 2 -232.646 1917.6 -391.137 0.123051 0.679115 -0.723074 0.0287323 
3269 2 -243.119 1913.15 -417.534 -0.253219 -0.825243 0.314005 0.39529 
3276 2 -283.867 1914.04 -471.343 -0.221785 -0.874996 0.428237 -0.0425001 
3270 2 -251.314 1912.18 -422.879 -0.318253 -0.35346 0.87847 0.0455062 
3272 2 -263.332 1911.94 -438.563 -0.11147 0.948774 -0.00885073 -0.295506 
3271 2 -257.34 1910.91 -430.842 -0.252746 0.564665 0.770288 -0.154691 
3273 2 -267.801 1915.49 -446.81 0.137625 0.688725 -0.692284 -0.165709 
3274 2 -272.624 1916.83 -455.41 0.281353 -0.121696 -0.950502 0.0507545 
3275 2 -278.777 1916.12 -463.076 0.0342194 -0.840955 -0.460619 0.281875 
3221 2 -213.527 1797.46 -377.445 -0.0551624 0.863675 0.347664 -0.360765 
3249 2 -206.901 1847.98 -482.721 -0.617415 0.6214 0.0418476 0.480531 
3250 2 -201.722 1855.95 -479.914 -0.780365 0.412651 -0.417568 -0.215376 
3220 2 -207.362 1800.01 -370.1 -0.314026 0.234503 0.89066 -0.23048 
3251 2 -197.052 1864.02 -476.765 -0.281716 0.139554 -0.662012 -0.680368 
3252 2 -195.752 1873.81 -475.347 0.436476 -0.343309 -0.368043 -0.74577 
3253 2 -193.181 1882.49 -471.618 0.868978 -0.47721 -0.0282254 -0.127869 
3254 2 -192.171 1891.4 -467.266 0.743027 -0.0513466 0.331109 0.579345 
3255 2 -187.528 1896.35 -460.084 -0.0140683 0.24612 0.336855 0.908711 
3205 2 -118.456 1869.97 -361.779 -0.669014 0.339616 -0.615293 0.241859 
3206 2 -108.66 1871.65 -361.647 -0.556624 -0.290903 -0.766799 -0.132533 
3207 2 -99.4668 1869.85 -365.215 -0.284955 -0.771776 -0.289571 -0.489194 
3204 2 -127.662 1872.79 -363.568 -0.301804 0.484275 -0.375911 0.730125 
3256 2 -182.712 1902.21 -453.776 -0.657947 0.504807 -0.152025 0.537739 
3257 2 -175.702 1907.53 -449.349 -0.897622 0.105518 -0.41619 -0.0996307 
3203 2 -135.561 1877.87 -366.804 0.427549 0.56865 0.0438467 0.701368 
3202 2 -145.001 1881.07 -367.462 0.734875 0.244445 0.628536 0.0717505 
3263 3 -200.391 1907.15 -411.172 -0.509699 -0.756276 0.4056 -0.0611708 
3201 2 -154.136 1884.4 -366.029 0.442958 -0.386441 0.675774 -0.444726 
3258 2 -168.469 1910.25 -443.256 -0.429518 -0.113095 -0.394074 -0.80463 
3259 2 -162.814 1915.72 -437.261 0.2898 -0.247932 -0.126985 -0.915653 
3260 2 -158.449 1920.32 -429.699 0.842336 -0.450838 0.0989229 -0.278261 
3219 2 -199.51 1802.1 -364.517 -0.41038 -0.575217 0.666058 0.238915 
3501 2 -663.795 2038.82 -508.829 -0.61241 -0.100814 -0.0623359 -0.781604 
3502 2 -661.724 2038.53 -499.178 0.144535 -0.0802925 -0.011332 -0.986172 
3503 2 -660.442 2038.59 -489.231 0.803664 -0.0902516 0.111654 -0.577506 
3504 2 -657.543 2038.61 -479.708 0.909396 0.0714765 0.12858 0.389046 
3505 1 -629.327 2076.46 -478.453 -0.206024 0.157296 0.965264 0.0328372 
3436 2 -385.283 1995.12 -508.035 0.183426 -0.857304 -0.345008 0.335194 
3352 2 -452.198 1927.58 -446.554 -0.620726 0.727206 0.14861 -0.252558 
3353 2 -457.583 1935.78 -446.967 -0.354972 0.43837 -0.489086 -0.665298 
3412 2 -416.18 1934.3 -390.884 -0.690722 0.684426 -0.0398141 0.229954 
3413 2 -412.252 1943.39 -390.818 -0.625772 0.352708 -0.599476 -0.353036 
3354 2 -460.225 1945.2 -445.916 0.0835716 -0.200347 -0.681906 -0.698484 
3356 2 -458.334 1964.69 -443.967 0.593233 -0.72048 0.348425 0.0870846 
3355 2 -458.389 1954.98 -445.502 0.559829 -0.544224 -0.396272 -0.483094 
3357 2 -455.375 1973.88 -446.42 0.397418 -0.178508 0.649956 0.622696 
3358 2 -451.721 1982.96 -445.652 -0.353676 0.332198 0.542151 0.686025 
3359 2 -451.703 1992.76 -444.608 -0.634732 0.738919 0.021624 0.225047 
3360 2 -448.518 2002.12 -445.559 -0.605887 0.443444 -0.502872 -0.428227 
3361 2 -446.535 2011.77 -445.086 -0.0576754 -0.0771675 -0.629902 -0.770676 
3362 2 -444.948 2021.32 -443.39 0.453161 -0.726247 -0.309445 -0.414071 
3363 2 -441.885 2030.12 -446.624 0.57673 -0.675917 0.441755 0.123983 
3364 2 -438.363 2038.99 -449.409 0.242176 -0.019188 0.814662 0.526601 
3371 3 -417.779 2059.62 -412.823 0.698721 0.629698 -0.0611052 -0.333969 
3365 2 -434.935 2047.71 -452.495 -0.33266 0.561844 0.503442 0.565875 
3366 2 -431.81 2056.95 -453.708 -0.587772 0.759224 -0.235943 0.14978 
3367 2 -426.976 2065.36 -455.519 -0.495715 0.2647 -0.688051 -0.459114 
3415 2 -402.692 1960.49 -392.762 0.481499 -0.671791 -0.266155 -0.496001 