ITEM: TIMESTEP
100000000
ITEM: NUMBER OF ATOMS
4067
ITEM: BOX BOUNDS pp pp pp
-4.6310929470000001e+03 4.6704658980000004e+03
-4.6310929470000001e+03 4.6704658980000004e+03
-4.6310929470000001e+03 4.6704658980000004e+03
ITEM: ATOMS id type x y z c_q[1] c_q[2] c_q[3] c_q[4] 
3742 2 -684.102 2634.82 -685.971 0.16381 -0.85097 0.473541 -0.157404 
3743 2 -679.42 2635.9 -694.745 0.292778 -0.269917 0.914043 0.0771414 
3744 2 -674.477 2639.67 -702.557 -0.0132079 0.464756 0.810373 0.356544 
3741 2 -686.948 2631 -677.274 0.0514119 -0.840289 -0.496805 -0.210846 
3740 2 -688.222 2626.04 -668.839 -0.0369519 -0.0692466 -0.958908 -0.272643 
3745 2 -671.497 2646.24 -709.339 -0.386049 0.853962 0.00957036 0.348746 
3746 2 -666.273 2652.54 -714.923 -0.541233 0.569696 -0.618412 -0.0089446 
3747 2 -659.546 2658.29 -719.312 -0.305169 -0.215429 -0.807114 -0.457198 
3748 1 -624.045 2644.47 -691.478 -0.420587 -0.651817 -0.24091 0.583269 
3749 3 -644.873 2616.33 -692.309 -0.35008 -0.713161 -0.261626 0.548085 
2938 1 -273.681 1434.85 -569.17 -0.735742 -0.186932 0.222967 -0.611577 
2940 2 -319.409 1423.01 -569.276 -0.42625 0.181903 0.154645 -0.872529 
2941 2 -323.542 1421.75 -560.391 0.250346 0.280919 -0.0923386 -0.921892 
2942 2 -329.352 1422.45 -552.299 0.947975 -0.11232 -0.174731 -0.24124 
2937 2 -229.579 1431.95 -552.571 0.243228 -0.026043 0.825659 0.508379 
2943 2 -332.357 1425.37 -543.417 0.817844 -0.180941 -0.0538301 0.543593 
2936 2 -232.707 1423.51 -548.369 0.53013 -0.681458 0.493666 0.104265 
2939 3 -277.42 1416.98 -539.35 -0.706297 -0.185047 0.258512 -0.632514 
2935 2 -237.018 1417.92 -541.412 0.187121 -0.91872 -0.234237 -0.257045 
2934 2 -239.724 1411.89 -533.897 -0.00833821 -0.339215 -0.893019 -0.295601 
2944 2 -334.763 1426.78 -533.906 0.0527883 0.0133908 0.174777 0.983101 
2933 2 -241.76 1408.51 -524.825 -0.17515 0.449744 -0.869342 -0.106292 
2945 2 -335.268 1429.31 -524.5 -0.743288 -0.0203021 0.129984 0.655908 
2946 2 -337.763 1430.99 -515.148 -0.917048 0.167691 0.302459 -0.198545 
2932 2 -242.338 1402.97 -516.569 -0.28842 0.932112 -0.205134 -0.076817 
3102 2 -292.692 1596.13 -530.958 -0.762747 0.216177 0.080156 -0.604202 
3100 1 -249.755 1581.28 -518.526 0.87345 -0.115308 -0.11204 0.459604 
3103 2 -296.382 1599.24 -522.16 -0.00945619 0.268474 -0.064977 -0.961046 
3396 2 -665.718 2060.64 -538.671 0.175246 -0.657502 0.000892493 0.732788 
3393 2 -637.787 2058.39 -546.28 0.0690901 0.46635 -0.0559586 -0.880121 
3394 2 -646.308 2058.23 -541.291 0.643618 0.312306 -0.56469 -0.411517 
3395 2 -656.03 2059.24 -540.063 0.726734 -0.297989 -0.569343 0.242711 
3392 2 -629.683 2054.86 -550.643 -0.573916 0.456006 0.202193 -0.649459 
3391 2 -620.387 2051.88 -552.576 -0.790221 0.248127 0.558305 -0.0477531 
3385 2 -566.775 2032.57 -546.212 -0.341446 0.752172 0.289374 -0.483648 
3384 2 -557.501 2029.79 -544.758 -0.631725 0.119629 0.761285 0.0840141 
3383 2 -548.123 2026.97 -546.359 -0.336535 -0.439472 0.473502 0.685131 
3382 2 -539.421 2023.65 -549.859 0.315038 -0.577653 0.0358165 0.752187 
3381 2 -530.189 2020.83 -552.121 0.704429 -0.447968 -0.433379 0.339539 
3387 2 -585.765 2034.99 -550.324 0.459359 0.0526473 -0.818216 -0.341672 
3388 2 -593.299 2040.02 -554.224 0.624785 -0.590068 -0.406537 0.310148 
3390 2 -611.114 2048.63 -552.558 -0.424665 -0.353541 0.619628 0.557431 
3389 2 -602.136 2044.43 -553.373 0.121618 -0.643485 0.168879 0.736625 
3386 2 -576.01 2035.2 -548.661 0.221605 0.711328 -0.23764 -0.623242 
3380 2 -520.819 2018.62 -554.833 0.746432 0.103884 -0.566531 -0.333302 
3362 2 -522.442 1953.87 -518.642 0.565353 -0.109426 0.712757 -0.400475 
3361 2 -529.444 1960.73 -517.43 0.0410158 -0.540002 0.552529 -0.633583 
3360 2 -536.145 1967.04 -514.016 -0.444374 -0.818694 -0.0276118 -0.362644 
3363 2 -513.225 1950 -519.46 0.586569 0.471499 0.632799 0.182184 
3379 2 -511.753 2018.33 -558.873 0.244041 0.506352 -0.136684 -0.815702 
3378 2 -502.871 2015.34 -562.084 -0.554283 0.54978 0.194014 -0.594029 
3372 2 -447.611 2024.32 -558.371 0.3981 0.764671 -0.259006 -0.435558 
3373 2 -456.579 2021.12 -561.041 0.54797 0.276864 -0.784262 -0.0894871 
3374 2 -465.491 2019.25 -564.551 0.456934 -0.475558 -0.644633 0.386658 
3375 2 -475.126 2018.73 -566.964 -0.033913 -0.754417 -0.224589 0.615845 
3376 2 -484.28 2015.3 -568.618 -0.600686 -0.435665 0.335125 0.580572 
3370 1 -443.026 1986.6 -530.328 -0.598488 0.117502 0.779256 -0.144101 
3377 2 -493.378 2014.38 -564.966 -0.809211 0.0564555 0.583386 0.0406435 
3371 3 -476.907 1986.12 -538.844 -0.606539 0.19051 0.7486 -0.18819 
3364 2 -503.822 1947.07 -520.619 0.258094 0.715788 0.0274183 0.648292 
3365 2 -494.178 1944.64 -520.419 -0.267692 0.529252 -0.486049 0.641864 
3366 2 -484.45 1942.79 -521.204 -0.698445 0.0710758 -0.708711 0.0696532 
3367 2 -474.558 1942.97 -521.357 -0.625525 -0.285232 -0.307316 -0.657965 
3368 2 -466.59 1943.13 -515.303 0.211916 -0.486651 -0.0995645 -0.841635 
3397 1 -659.158 2102.14 -517.061 -0.718401 -0.22235 -0.639398 0.160096 
3453 2 -455.882 2185.29 -517.644 -0.462391 -0.314932 -0.270017 0.783647 
3670 2 -570.387 2345.46 -528.509 0.269794 -0.902031 0.326318 0.084066 
3671 2 -569.702 2351.16 -536.45 0.208263 -0.207846 0.838424 0.458772 
3672 2 -568.698 2359.44 -541.902 -0.284923 0.485647 0.653923 0.505322 
3673 2 -568.019 2368.38 -545.809 -0.589776 0.80704 0.025252 -0.0146053 
3669 2 -571.874 2337.61 -522.663 0.345364 -0.770789 -0.438695 -0.306847 
3674 2 -567.636 2378.03 -548.054 -0.435244 0.394766 -0.603143 -0.53939 
3524 2 -378.151 2312.09 -541.665 -0.390588 0.504365 -0.769665 -0.0259312 
3523 2 -382.179 2311.44 -532.651 -0.069589 0.950277 -0.226696 0.20184 
3531 2 -384.801 2331.16 -600.466 0.0887032 0.550034 -0.77246 -0.304796 
3530 2 -380.322 2327.59 -592.484 -0.179133 0.94422 -0.117825 -0.249954 
3528 2 -369.646 2322 -576.815 -0.204416 -0.168968 0.942746 0.202222 
3529 2 -373.807 2325.07 -585.313 -0.31768 0.626207 0.689055 -0.179294 
3527 2 -367.353 2318.87 -567.728 0.0942692 -0.880212 0.429626 0.178218 
3525 2 -373.12 2316.05 -549.269 -0.0858916 -0.341099 -0.90769 -0.22885 
3526 2 -369.758 2318.69 -558.184 0.0269143 -0.934054 -0.331077 -0.131172 
3522 2 -387.491 2313.16 -524.504 0.221956 0.8122 0.511951 0.170216 
3521 2 -391.569 2311.69 -515.764 0.219999 -0.0301528 0.970911 0.0895694 
3532 1 -386.649 2377.72 -592.785 -0.876865 -0.1665 -0.437592 0.10908 
3533 3 -363.49 2366.71 -569.105 -0.881228 -0.155475 -0.435207 0.0992935 
3720 2 -735.038 2467.27 -649.224 0.340968 -0.367121 -0.455564 0.735816 
3719 2 -726.414 2471.01 -652.366 0.825987 0.153314 -0.534644 0.0916287 
3716 2 -698.38 2480.08 -648.36 -0.541796 -0.0911167 0.807067 -0.216328 
3717 2 -707.282 2476.63 -651.162 -0.199649 0.603492 0.391129 -0.66555 
3718 2 -716.863 2473.82 -651.675 0.380328 0.725645 -0.244072 -0.518864 
3721 1 -749.232 2485.82 -608.22 0.521934 0.0650956 0.786797 0.322951 
3724 2 -738.555 2521.01 -575.594 -0.202558 0.832744 0.39408 0.331978 
3723 2 -745.033 2514.99 -571.331 0.318788 0.132509 0.82513 0.447186 
3722 3 -719.357 2503.02 -614.783 0.513174 0.0616424 0.770224 0.373643 
3715 2 -690.169 2483.42 -644.073 -0.378503 -0.798489 0.301315 0.358274 
3613 1 -677.645 2506.19 -567.748 -0.863531 -0.332838 -0.308881 -0.219373 
3714 2 -681.691 2482.84 -639.009 0.234127 -0.782997 -0.388653 0.425499 
3616 2 -688.955 2521.11 -522.259 -0.808232 -0.199017 -0.487072 -0.264414 
3725 2 -735.557 2527.46 -582.403 -0.516106 0.762011 -0.38494 0.0692391 
3615 2 -697.492 2519.62 -527.002 -0.731153 0.313254 -0.433407 0.423611 
3713 2 -672.834 2484.51 -635.054 0.560225 -0.0325174 -0.8217 0.099496 
3726 2 -730.808 2534.84 -586.944 -0.421276 0.125435 -0.843597 -0.308442 
3617 2 -680.405 2519.17 -517.782 -0.459912 -0.405989 -0.104069 -0.78283 
3696 2 -532.836 2428.5 -661.72 -0.952754 0.148852 0.23525 0.121496 
3697 2 -537.459 2431.56 -653.569 -0.633128 0.526378 0.0891085 -0.560477 
3698 2 -544.116 2437.65 -649.52 0.0141133 0.27679 -0.473484 -0.836063 
3675 2 -567.225 2387.88 -549.186 0.0533287 -0.382299 -0.598974 -0.701593 
3676 2 -562.526 2396.62 -549.085 0.593581 -0.581943 -0.0171074 -0.555618 
3699 2 -549.425 2445.26 -645.909 0.621899 -0.209284 -0.676219 -0.334918 
3700 2 -556.137 2452.37 -645.125 0.705605 -0.505528 -0.357953 0.34414 
3701 2 -564.173 2457.76 -643.005 0.281779 -0.383337 0.211727 0.853712 
3677 2 -555.529 2403.44 -547.02 0.558998 -0.306038 0.721662 0.270307 
3678 2 -549.156 2410.5 -549.565 0.197157 0.565904 0.58637 0.545025 
3679 2 -540.517 2414.2 -552.727 -0.15934 0.824415 -0.0621113 0.539531 
3681 2 -522.63 2415.44 -560.023 -0.503976 -0.0836358 -0.854468 -0.0943311 
3680 2 -531.987 2416.65 -557.06 -0.486177 0.370517 -0.690301 0.387083 
3614 3 -653.618 2497.79 -543.649 -0.870035 -0.272691 -0.298462 -0.282134 
3712 2 -663.39 2486.17 -632.55 0.346598 0.708004 -0.383976 -0.480795 
3711 2 -653.493 2487.66 -633.151 -0.261482 0.617291 0.284022 -0.6855 
3710 2 -643.545 2487.02 -633.801 -0.708877 0.249237 0.620943 -0.223169 
3709 2 -634.513 2482.97 -634.377 -0.579209 -0.227092 0.619237 0.479053 
3702 2 -570.187 2463.46 -637.494 -0.593673 -0.143538 0.563451 0.556303 
3708 2 -625.447 2479.37 -632.863 0.0438291 -0.716251 0.225681 0.658887 
3707 2 -615.769 2477.37 -633.678 0.576148 -0.503173 -0.437299 0.472907 
3706 2 -605.961 2476.72 -635.337 0.740285 0.132085 -0.626597 -0.204712 
3705 2 -596.409 2475.34 -633.752 0.168306 0.654331 -0.394727 -0.622667 
3703 2 -578.074 2468.27 -633.944 -0.767431 0.204834 0.607254 0.0183287 
3704 2 -587.05 2472.26 -632.433 -0.421567 0.686794 0.258938 -0.53249 
3612 2 -645.192 2482.82 -592.866 -0.162855 0.748677 -0.593005 -0.247601 
3611 2 -643.49 2477.47 -584.685 -0.318493 0.929172 0.187319 -0.0106719 
3610 2 -640.749 2470.22 -578.301 -0.29525 0.44606 0.799882 0.272116 
3609 2 -635.322 2467.16 -570.691 -0.167305 -0.492623 0.78711 0.331345 
3608 2 -630.127 2464.32 -562.827 0.170069 -0.937758 -0.0190728 0.302198 
3607 2 -622.199 2464.83 -557.14 0.329044 -0.501034 -0.755403 0.26469 
3606 2 -614.589 2467.28 -551.072 0.392638 0.402404 -0.826962 -0.00636428 
3605 2 -606.284 2470.21 -546.677 0.322312 0.800861 -0.279792 -0.420063 
3602 2 -579.363 2478.98 -538.057 -0.49853 -0.487126 0.686078 0.208502 
3601 2 -572.026 2484.28 -534.409 -0.28721 -0.822272 -0.0340598 0.490121 
3600 2 -563.662 2488.75 -531.31 0.130328 -0.567524 -0.586665 0.56281 
3603 2 -587.809 2475.91 -542.169 -0.577463 0.119619 0.754902 -0.28697 
3604 2 -597.052 2472.53 -543.665 -0.129532 0.681296 0.407534 -0.594115 
3599 2 -553.914 2489.7 -530.528 0.708834 -0.0479795 -0.692758 0.123852 
3598 2 -545.119 2493.26 -527.963 0.516957 0.632948 -0.441527 -0.370387 
3597 2 -535.85 2495.79 -525.594 0.0223398 0.740468 0.23172 -0.630486 
3596 2 -526.4 2496.39 -522.918 -0.498557 0.388715 0.697658 -0.337069 
3595 2 -519.316 2497.99 -516.289 -0.428495 -0.277336 0.859293 0.0330497 
3646 2 -591.612 2534.15 -522.605 -0.249666 -0.193155 0.504196 -0.803831 
3682 2 -514.098 2417.06 -564.934 -0.0148405 -0.706269 -0.445372 -0.550098 
3647 2 -590.67 2525.05 -518.975 0.54909 0.174785 0.448985 -0.682908 
3648 2 -587.143 2516.86 -514.705 0.86397 0.414848 0.242126 0.1511 
3694 1 -486.131 2422.32 -659.44 0.835268 -0.112777 -0.00156598 0.53815 
3683 2 -506.014 2420.95 -568.966 0.411755 -0.740076 0.346705 -0.403163 
3684 2 -497.014 2423.84 -572.04 0.434432 -0.214252 0.853005 -0.194287 
3685 2 -488.566 2422.97 -576.968 0.414349 0.5535 0.721464 0.0379815 
3695 3 -494.508 2431.53 -626.714 0.875 -0.135204 -0.016068 0.464583 
3686 2 -482.196 2420.67 -584.107 0.0523627 0.805583 0.164781 0.566693 
3687 2 -473.269 2421.11 -588.581 -0.36028 0.656745 -0.585459 0.310035 
3688 2 -465.087 2422.14 -593.908 -0.334986 -0.142114 -0.930124 0.0495741 
3689 2 -458.838 2420 -601.407 -0.28034 -0.831494 -0.470373 -0.093685 
3690 2 -454.544 2417.13 -609.832 0.0770833 -0.961644 0.243887 -0.0990838 
3691 2 -452.336 2417.43 -619.419 0.304263 -0.581982 0.751004 -0.0686531 
3693 2 -444.675 2422.11 -636.852 -0.0225631 0.93029 0.314717 0.187097 
3692 2 -447.816 2420.6 -627.656 0.136327 0.318088 0.9306 0.119243 
3534 2 -377.377 2416.72 -567.926 0.440301 -0.237455 0.368404 -0.783599 
3535 2 -370.223 2413.65 -562.023 0.865776 0.053324 0.489583 -0.0888626 
3536 2 -361.745 2411.75 -557.325 0.681379 0.381526 0.213227 0.587108 
3537 2 -354.231 2408.9 -551.708 0.104656 0.272487 -0.134536 0.946941 
3538 2 -349.426 2405.89 -543.608 -0.655534 0.0496804 -0.237992 0.714959 
3539 2 -345.929 2403.29 -534.762 -0.967833 -0.018682 -0.249462 -0.0267965 
3540 2 -341.326 2402.79 -526.028 -0.507113 -0.308451 -0.128205 -0.794517 
3541 2 -334.963 2401.93 -518.305 0.437028 -0.256343 0.108934 -0.855236 
3739 2 -688.986 2617.82 -663.462 -0.404379 0.691259 -0.51754 -0.301316 
3727 2 -724.722 2540.54 -592.084 -0.00590642 -0.619693 -0.660552 -0.423811 
3728 2 -719.286 2546.04 -597.981 0.430108 -0.871696 -0.0195746 -0.234032 
3738 2 -690.817 2610.93 -656.614 -0.365626 0.909014 0.135533 0.147115 
3729 2 -714.295 2553 -602.968 0.355777 -0.521864 0.764195 0.130714 
3737 2 -688.126 2603.58 -650.451 -0.223995 0.149817 0.88657 0.375998 
3730 2 -709.604 2559.08 -609.196 0.190922 0.293448 0.843622 0.40711 
3736 2 -686.428 2597.86 -642.547 0.187791 -0.670522 0.648741 0.307033 
3731 2 -703.78 2564.88 -614.594 -0.106079 0.874466 0.266209 0.391395 
3732 2 -698.152 2569.03 -621.666 -0.473407 0.812913 -0.339196 -0.00193538 
3764 2 -681.769 2602.02 -567.318 0.669923 -0.126212 -0.292337 0.670681 
3763 2 -676.865 2606.09 -574.922 0.921148 0.233271 -0.311498 0.00636202 
3765 2 -687.343 2598.51 -560.093 -0.0556536 -0.303136 -0.115327 0.944304 
3766 2 -692.677 2596.35 -552.054 -0.780487 -0.188145 0.197562 0.562505 
3767 2 -698.408 2596.19 -543.916 -0.894915 0.19621 0.388612 -0.0980287 
3768 2 -705.562 2597.62 -537.302 -0.439159 0.437919 0.157265 -0.768528 
3735 2 -686.583 2593.45 -633.656 0.197893 -0.974804 -0.0970174 -0.0343993 
3769 2 -712.901 2598.49 -530.813 0.50218 0.178997 -0.0756301 -0.842648 
3733 2 -694.069 2576.48 -626.698 -0.423714 0.240351 -0.756467 -0.436411 
3734 2 -690.39 2585.38 -629.605 0.104444 -0.432438 -0.697307 -0.562007 
3770 2 -717.058 2598.68 -521.789 0.90751 0.304328 -0.285686 -0.0468252 
3771 2 -723.012 2593.73 -515.661 0.672731 0.045268 -0.328338 0.661497 
3762 2 -670.049 2604.51 -581.784 0.505543 0.314268 -0.243402 -0.765779 
3761 2 -665.63 2604.33 -590.545 -0.323446 0.247653 0.0884337 -0.908972 
3760 2 -664.562 2601.36 -599.921 -0.920566 0.1472 0.00708695 -0.361719 
3750 2 -602.902 2614.23 -661.98 0.349134 -0.453346 -0.254172 0.77973 
3751 2 -611.803 2613.02 -657.831 -0.420232 -0.508215 0.223617 0.717718 
3759 2 -664.08 2600.01 -609.738 -0.959726 0.0866857 0.0200166 0.266478 
3752 2 -621.011 2613.13 -653.922 -0.745117 -0.253905 0.613497 0.062879 
3753 2 -630.252 2610.05 -652.265 -0.435466 0.251936 0.504846 -0.701447 
3758 2 -661.07 2601.27 -619.194 -0.320063 -0.175584 0.000337098 0.930983 
3757 2 -657.188 2599.71 -628.185 0.585888 -0.218041 -0.0153445 0.780358 
3756 2 -651.229 2598.48 -636.067 0.93416 -0.100183 -0.321945 0.116875 
3755 2 -644.131 2600.61 -642.555 0.739531 0.310279 -0.228783 -0.551796 
3754 2 -638.229 2605.96 -648.328 0.138456 0.400213 0.256432 -0.868851 
3642 2 -596.534 2566.82 -542.464 0.606783 0.342762 -0.275169 0.662277 
3643 2 -595.489 2558.85 -536.733 -0.104866 -0.0315929 -0.354908 0.928464 
3644 2 -595.004 2552.18 -529.475 -0.774097 -0.366764 -0.32128 0.403778 
3645 2 -593.097 2543.72 -524.726 -0.70252 -0.645007 0.131947 -0.270224 
3936 2 -384.726 2869.05 -516.582 0.118267 -0.846873 -0.320124 -0.407848 
4060 2 -669.015 3128 -533.469 0.282909 0.738921 0.611513 -0.00330417 
4059 2 -669.885 3132.76 -524.899 0.0160105 -0.0674042 0.973856 -0.216345 
4058 2 -670.271 3139.18 -517.385 -0.230671 -0.782958 0.531879 -0.225547 
4065 2 -668.451 3104.22 -574.71 -0.2959 -0.701248 0.626357 -0.168435 
4066 2 -669.581 3097.98 -582.263 -0.118623 -0.0444452 0.971004 -0.202742 
4067 2 -671.222 3093.89 -591.024 0.0921416 0.706376 0.663537 -0.228606 
4064 2 -666.124 3111.05 -567.827 -0.343557 -0.882967 -0.198326 0.251006 
4062 2 -664.236 3120.78 -550.872 0.17527 0.4893 -0.806957 0.280512 
4063 2 -664.766 3114.61 -558.757 0.00679973 -0.405785 -0.886608 0.22185 
4061 2 -665.259 3123.48 -541.357 0.148962 0.964617 -0.189221 0.107329 
4048 2 -689.803 3227.87 -515.877 0.251185 0.0470657 -0.575707 0.776693 
4047 2 -689.957 3237.34 -519.163 0.675293 0.526368 -0.296678 0.422964 
4057 2 -671.717 3148.75 -515.296 -0.678186 -0.721862 -0.12921 0.0477904 
2991 2 -471.735 1389.3 -376.373 0.127861 -0.857235 -0.336653 0.368056 
2990 2 -465.054 1390.12 -369.146 0.336049 -0.336968 -0.859874 0.184771 
2979 2 -392.116 1454.15 -373.484 -0.620221 -0.214262 0.584993 -0.476656 
2978 2 -386.286 1461.85 -375.64 -0.759075 -0.542716 0.347792 0.0911304 
2952 2 -374.88 1448.51 -476.19 -0.746516 0.0254311 0.635191 0.19647 
2953 2 -384.191 1451.55 -474.449 -0.724734 0.533128 0.279925 -0.334929 
2951 2 -367.063 1444.02 -480.476 -0.349262 -0.290037 0.451251 0.768288 
2980 2 -396.611 1445.9 -370.478 0.0703678 0.293996 0.530642 -0.791855 
2981 2 -401.145 1437.41 -368.347 0.723229 0.452632 -0.0366076 -0.520312 
2954 2 -391.529 1457.42 -471.289 -0.320218 0.524224 -0.240707 -0.751472 
2955 2 -397.823 1464.34 -468.029 0.362476 0.0558125 -0.682003 -0.632747 
2989 2 -458.047 1393.4 -362.999 0.415662 0.467111 -0.776985 -0.0729865 
2982 2 -406.746 1430.99 -363.396 0.857559 0.21395 -0.40663 0.231238 
2950 2 -361.316 1437.49 -485.221 0.456643 -0.479745 0.140914 0.735843 
2947 2 -343.798 1431.66 -507.367 -0.326828 0.260654 0.0499783 -0.907053 
2931 2 -239.776 1395.32 -510.942 -0.45353 0.802918 0.379653 0.0741405 
2921 2 -213.007 1326.16 -451.987 0.0823608 -0.736369 -0.645501 -0.185217 
2923 2 -213.55 1335.32 -468.837 0.0730989 -0.35071 0.834006 0.419635 
2924 2 -216.257 1342.57 -475.009 -0.345026 0.317314 0.794392 0.386278 
2922 2 -210.841 1329.64 -461.012 0.284341 -0.938698 0.0807526 0.177413 
2925 2 -219.941 1350.77 -479.187 -0.396421 0.845929 0.225238 -0.276628 
2949 2 -355.746 1432.32 -491.543 0.904632 -0.271266 -0.326919 -0.0343372 
2926 2 -225.254 1357.63 -484.058 -0.094387 0.573313 -0.662848 -0.472267 
2927 2 -229.563 1364.48 -489.66 0.446705 -0.329522 -0.762537 -0.332276 
2948 2 -349.574 1431.85 -499.393 0.563646 0.239919 -0.235007 -0.754661 
2929 2 -234.152 1380.2 -499.35 0.187362 -0.70878 0.513422 0.44601 
2930 2 -238.018 1387.53 -504.953 -0.0794469 0.0707788 0.873508 0.475039 
2928 2 -234.462 1371.82 -494.185 0.418445 -0.880785 -0.181447 -0.127271 
2920 2 -214.895 1327.24 -442.267 -0.137535 0.0992067 -0.983537 0.0624228 
2919 2 -216.362 1328.4 -432.456 -0.0306836 0.738216 -0.666809 0.0972672 
2918 2 -217.712 1332.39 -423.545 0.24729 0.962903 0.100368 0.0398867 
2916 2 -212.702 1344.89 -409.189 -0.270314 -0.13753 0.876328 -0.374253 
2917 2 -216.108 1337.86 -415.333 0.102702 0.591568 0.738763 -0.306151 
2915 2 -210.725 1354.06 -406.167 -0.542161 -0.717407 0.409423 -0.154147 
2913 2 -209.782 1373.5 -403.892 -0.0131669 -0.0967763 -0.754531 0.648956 
2914 2 -209.496 1363.89 -406.075 -0.598394 -0.683604 -0.275489 0.314192 
2912 3 -180.714 1359.69 -363.155 -0.0552516 -0.460365 0.628999 -0.623996 
2977 2 -382.418 1470.85 -377.37 -0.494865 -0.588334 -0.298106 0.565778 
2976 2 -381.327 1480.39 -379.7 -0.0312025 -0.135733 -0.618495 0.773348 
2956 2 -403.539 1472.23 -466.328 0.767511 -0.448559 -0.457797 0.0119908 
2975 2 -380.546 1490.24 -380.556 0.502806 0.484475 -0.515241 0.496987 
2974 2 -384.201 1499.37 -381.937 0.785149 0.576133 0.226388 0.0189709 
2957 2 -410.919 1478.61 -464.304 0.431252 -0.598084 -0.0106656 0.675428 
2965 1 -427.343 1558.96 -429.339 0.729092 0.523847 0.291502 -0.330206 
2966 3 -422.04 1525.95 -419.127 0.758118 0.49244 0.286006 -0.317743 
2964 2 -447.347 1533.9 -463.778 0.429395 -0.709722 0.339177 0.443704 
2961 2 -437.164 1506.43 -462.879 -0.221669 0.441595 -0.508331 -0.705306 
2963 2 -444.501 1524.58 -462.402 0.646392 -0.643831 -0.389799 -0.125358 
2962 2 -441.643 1515.15 -462.353 0.372719 -0.124924 -0.66258 -0.637544 
2959 2 -426.018 1490.68 -461.276 -0.590487 0.281024 0.696589 0.295151 
2960 2 -433.073 1497.55 -462.358 -0.628351 0.72703 0.00238861 -0.276762 
2968 2 -402.201 1554.43 -387.043 0.705411 0.619678 -0.0528915 0.339994 
2969 2 -397.724 1545.68 -385.26 0.125835 0.39358 -0.568179 0.711641 
2967 2 -405.106 1563.96 -387.986 0.673754 0.422849 0.488895 -0.3581 
2958 2 -418.972 1483.81 -461.865 -0.196849 -0.377516 0.586281 0.689207 
2973 2 -389.382 1507.54 -384.578 0.500008 0.0701151 0.601783 -0.618816 
2970 2 -394.188 1536.43 -384.821 -0.411318 -0.247196 -0.689304 0.542744 
2971 2 -390.493 1527.19 -384.714 -0.656271 -0.754239 -0.0182262 -0.0100012 
2972 2 -390.13 1517.36 -385.234 -0.353555 -0.448444 0.557021 -0.603013 
3046 1 -362.575 1600.16 -362.825 -0.85893 -0.402235 -0.257169 -0.185231 
3104 2 -301.521 1600.44 -513.885 0.677432 0.0871805 -0.35808 -0.636604 
3045 2 -339.278 1571.26 -391.949 -0.105563 0.989619 -0.0793189 -0.0567334 
3105 2 -307.571 1603.95 -506.925 0.882901 -0.312389 -0.338261 0.0920748 
3043 2 -337.808 1564.85 -373.493 0.0296846 -0.222824 0.939295 0.259215 
3044 2 -338.048 1569.4 -382.222 -0.107484 0.550142 0.826851 0.0459277 
3106 2 -313.927 1608.49 -500.752 0.448353 -0.265506 -0.0352347 0.852787 
3099 2 -215.949 1571.35 -487.12 0.290306 0.654521 0.684424 -0.137432 
3098 2 -217.962 1576.7 -479.071 0.0992464 -0.14709 0.943085 -0.281258 
3101 3 -266.185 1584.75 -487.758 0.828385 -0.204823 -0.143957 0.501101 
3097 2 -221.646 1578.48 -470.008 -0.024454 -0.885052 0.441913 -0.144213 
3096 2 -223.602 1581.48 -460.726 -0.150232 -0.920671 -0.35333 -0.0703798 
3095 2 -226.653 1584.16 -451.647 -0.199743 -0.138217 -0.962957 0.117101 
3094 2 -229.347 1587.53 -442.737 0.00752877 0.617238 -0.732195 0.287837 
3093 2 -235.652 1590.79 -435.884 0.129342 0.918419 -0.0303012 0.372638 
3092 2 -241.659 1594.95 -429.109 0.401771 0.661207 0.623715 0.111196 
3091 2 -249.811 1597 -423.879 0.477513 -0.0925657 0.862161 -0.141745 
3090 2 -257.866 1596.54 -418.237 0.168477 -0.802588 0.346161 -0.455676 
3089 2 -265.762 1596.55 -412.156 -0.036598 -0.87445 -0.290425 -0.386847 
3088 2 -274.138 1598.72 -407.404 -0.548203 -0.275342 -0.789718 0.00221339 
3087 2 -278.54 1603.74 -399.955 -0.0458163 0.421716 -0.82207 0.379811 
3086 2 -284.367 1608.9 -393.888 0.25872 0.917633 -0.0504288 0.297441 
3107 2 -318.029 1609.93 -491.866 -0.29695 -0.15102 0.14354 0.931885 
3109 2 -328.814 1611.57 -475.607 -0.799145 0.255842 0.285873 -0.462806 
3108 2 -322.723 1612.31 -483.305 -0.899413 -0.142917 0.258905 0.321868 
3110 2 -335.514 1612.18 -468.381 -0.209353 0.341804 0.168672 -0.900495 
3042 2 -336.71 1560.9 -364.614 0.170649 -0.864879 0.454898 0.126222 
3111 2 -342.194 1610.55 -461.298 0.343855 0.294385 -0.353379 -0.818673 
3112 2 -349.173 1614.77 -455.831 0.823767 -0.0986993 -0.48286 -0.280202 
3085 2 -286.637 1616.31 -387.723 0.395963 0.673809 0.607751 -0.140832 
3113 2 -356.135 1618.55 -450.046 0.710385 -0.466735 0.0299046 0.525944 
3125 2 -429.222 1666.4 -389.366 0.602474 0.377021 -0.0913609 -0.697519 
3124 2 -422.305 1664.75 -396.233 -0.27742 0.408369 0.0383321 -0.868794 
3123 2 -412.748 1665.13 -399.186 -0.712656 0.272015 0.513314 -0.393241 
3121 2 -394.331 1664.78 -406.543 -0.20702 -0.563664 0.183577 0.778284 
3122 2 -403.406 1665.13 -402.463 -0.744109 -0.204639 0.5295 0.352214 
3120 2 -384.909 1662.62 -408.752 0.484238 -0.551538 -0.291472 0.613484 
3119 2 -376.476 1658.01 -411.094 0.75242 -0.313088 -0.578246 -0.0383724 
3126 2 -435.462 1663.43 -382.297 0.914985 0.106924 -0.364533 0.135959 
3118 2 -371.686 1651.14 -416.422 0.320165 0.0746324 -0.511328 -0.79402 
3117 2 -369.193 1643.98 -422.94 -0.359303 0.317633 -0.306765 -0.822135 
3116 2 -366.919 1637.22 -429.908 -0.900232 0.389743 0.0707015 -0.18079 
3115 2 -364.266 1631.57 -437.61 -0.756974 0.172525 0.293471 0.557763 
3114 2 -361.248 1624.8 -444.235 -0.0332178 -0.140302 0.343219 0.928123 
3084 2 -286.243 1625.24 -383.588 0.104348 0.204826 0.848159 -0.477268 
3156 2 -265.469 1748.83 -402.768 0.47765 -0.42554 -0.194357 0.743634 
3083 2 -286.428 1634.17 -379.301 -0.389934 -0.506028 0.629123 -0.442823 
3082 2 -285.066 1641.89 -373.347 -0.437843 -0.897324 0.0177362 0.0528025 
3157 2 -273.435 1750.48 -397.428 -0.373145 -0.291102 0.205487 0.85662 
3158 2 -279.518 1751.52 -389.658 -0.936544 0.0510725 0.27515 0.211113 
3159 2 -284.743 1753.3 -381.32 -0.685528 0.361951 -0.0121765 -0.631581 
3081 2 -282.683 1649.99 -368.128 -0.175552 -0.500087 -0.728826 0.433483 
3160 2 -288.718 1758.84 -374.149 0.0512905 0.293127 -0.327585 -0.896735 
3161 2 -293.534 1764.34 -367.454 0.836708 0.0268067 -0.361494 -0.410517 
3080 2 -280.384 1657.78 -362.346 0.179656 0.216722 -0.857595 0.430449 
3343 1 -653.231 1914.01 -454.9 0.613059 -0.442719 0.649007 -0.0833556 
3342 2 -620.474 1882.76 -441.593 0.410561 0.754132 -0.0984657 -0.503019 
3341 2 -612.112 1887.98 -440.415 -0.148451 0.53415 0.516755 -0.652388 
3340 2 -607.098 1896.05 -437.682 -0.329465 -0.141899 0.790309 -0.496718 
3339 2 -600.241 1902.54 -434.76 -0.539769 -0.584205 0.604856 0.0387699 
3338 2 -594.474 1908.93 -429.927 -0.254608 -0.809563 -0.265115 0.457709 
3337 2 -586.279 1912.31 -425.55 0.336401 -0.383566 -0.770146 0.382867 
3336 2 -580.632 1918.44 -420.119 0.457797 0.4765 -0.74046 0.12284 
3335 2 -574.728 1923.29 -413.948 0.304058 0.894408 -0.0229539 -0.327195 
3143 2 -362.623 1813.02 -361.791 0.0334086 0.77076 0.41211 0.484746 
3144 2 -354.571 1816.56 -366.374 -0.1963 0.849453 -0.228493 0.433228 
3145 2 -346.523 1817.83 -372.02 -0.458095 0.325677 -0.810873 0.162999 
3146 2 -338.376 1818.03 -377.541 -0.204584 -0.487465 -0.845676 -0.0731736 
3147 2 -334.892 1817.13 -386.792 0.100963 -0.929124 -0.321596 -0.152026 
3148 2 -331.558 1819.22 -395.938 0.186994 -0.749069 0.613199 -0.167077 
3149 2 -326.019 1820.13 -404.087 0.2025 0.021036 0.963394 0.17442 
3154 1 -287.304 1779.5 -431.06 -0.136388 -0.184238 0.0807545 0.970017 
3155 3 -303.686 1783.86 -400.429 -0.225077 -0.241439 0.125954 0.935512 
3150 2 -321.771 1822.33 -412.773 0.147144 0.86701 0.47607 -0.000287021 
3151 2 -320.346 1820.33 -422.332 0.217115 0.828627 -0.477581 0.195333 
3152 2 -319.908 1815.57 -431.006 -0.0380279 0.16037 -0.976746 0.137126 
3153 2 -318.856 1813.26 -440.573 -0.127876 -0.595438 -0.789469 0.0764215 
3345 2 -667.633 1954.28 -474.725 -0.663461 0.388697 -0.636956 -0.0549703 
3359 2 -544.357 1968.47 -508.625 -0.477556 -0.323439 -0.809485 -0.109822 
3346 2 -660.088 1960.58 -475.783 -0.406985 -0.243675 -0.646842 -0.597145 
3344 3 -623.09 1929.5 -464.382 0.600916 -0.360825 0.713006 0.0181112 
3334 2 -568.989 1929.48 -408.953 -0.0418264 0.542233 0.670912 -0.504094 
3358 2 -552.428 1969.65 -502.962 -0.375352 0.440106 -0.766643 0.278705 
3357 2 -560.329 1971.66 -497.177 0.0113362 0.853185 -0.265627 0.448765 
3356 2 -568.649 1971.61 -491.912 0.327413 0.658782 0.555289 0.387894 
3355 2 -577.618 1972.7 -488.15 0.524275 -0.096247 0.834114 -0.141865 
3354 2 -586.828 1972.31 -485.038 0.296679 -0.698276 0.417598 -0.500005 
3353 2 -595.893 1974.17 -481.463 -0.265798 -0.765576 -0.323586 -0.488402 
3347 2 -651.747 1966.11 -476.293 0.21781 -0.720842 -0.16961 -0.63575 
3352 2 -605.425 1977.18 -480.942 -0.712364 -0.217162 -0.667339 0.00608925 
3348 2 -643.308 1971.15 -476.927 0.610653 -0.462588 0.606118 -0.213863 
3349 2 -634.515 1975.24 -478.718 0.612714 0.230407 0.623976 0.426789 
3333 2 -564.845 1936.89 -403.838 -0.396633 -0.276812 0.818627 -0.30969 
3350 2 -625.035 1977.68 -477.398 0.0273647 0.745987 0.0461525 0.663795 
3351 2 -615.186 1978.04 -478.972 -0.469498 0.478166 -0.561901 0.48497 
3332 2 -563.611 1946.36 -401.471 -0.633258 -0.752511 0.174766 -0.046568 
3323 2 -606.491 2023.64 -398.954 0.0947091 0.443427 -0.53346 0.714019 
3324 2 -601.216 2015.31 -398.111 -0.43381 -0.238297 -0.697067 0.518768 
3325 2 -597.421 2006.19 -399.381 -0.637459 -0.731382 -0.218979 -0.103799 
3326 2 -592.85 1997.35 -399.814 -0.386057 -0.568147 0.364569 -0.628695 
3327 2 -588.012 1988.78 -399.152 0.41444 -0.0527949 0.759612 -0.498439 
3331 2 -567.302 1955.51 -400.922 -0.591801 -0.408716 -0.594309 0.359889 
3330 2 -572.768 1963.67 -400.072 -0.104764 0.349936 -0.658114 0.658373 
3329 2 -577.186 1972.53 -400.609 0.522009 0.699987 -0.191005 0.448377 
3328 2 -581.737 1981.14 -399.232 0.683344 0.604104 0.388377 -0.131383 
3302 2 -536.622 1998.8 -404.856 0.879379 0.350359 0.0515833 -0.318247 
3303 2 -538.157 1992.49 -397.418 0.876049 0.0171887 -0.276193 0.394918 
3322 2 -613.888 2030.15 -397.699 0.53358 0.744183 0.149121 0.373157 
3321 2 -622.142 2035.53 -396.911 0.654543 0.265825 0.699122 -0.110173 
3320 2 -629.924 2038.92 -392.072 0.29426 -0.460837 0.682175 -0.485466 
3304 2 -542.66 1989.56 -389.041 0.169462 -0.151134 -0.149802 0.962289 
3305 2 -545.924 1987.12 -380.016 -0.437968 -0.248916 0.0632508 0.861525 
3319 2 -636.619 2042.02 -385.539 -0.158039 -0.908946 -0.0385653 -0.383866 
3318 2 -645.344 2042.98 -380.736 -0.482511 -0.497671 -0.688929 -0.211854 
3301 2 -534.906 2006.51 -410.741 0.284682 0.234732 0.370242 -0.852513 
3300 2 -530.584 2010.61 -418.652 -0.466391 0.128056 0.30492 -0.82043 
3306 2 -550.999 1985.69 -371.585 -0.869298 -0.171058 0.407917 0.2206 
3412 2 -571.488 2070.99 -442.431 0.173097 -0.0599862 -0.015888 -0.982948 
3411 2 -574.298 2075.6 -450.662 -0.66978 -0.279064 0.0667312 -0.684883 
3410 2 -572.477 2076.93 -460.313 -0.985244 -0.0589795 0.133334 0.0896561 
3413 2 -570.258 2070.54 -432.545 0.915184 -0.1354 -0.137523 -0.353826 
3307 2 -558.83 1984 -365.669 -0.715963 0.142966 0.338558 -0.59358 
3299 2 -525.116 2012.69 -426.605 -0.942466 -0.0514183 0.303396 -0.130632 
3414 2 -571.448 2073.58 -423.197 0.829258 -0.260973 0.031872 0.493162 
3298 2 -518.929 2014.47 -434.161 -0.670864 -0.316845 0.173675 0.647602 
3297 2 -510.413 2018.96 -436.233 0.0430614 -0.545859 -0.325173 0.771004 
3296 2 -502.448 2024.18 -438.827 0.667216 0.00542642 -0.595216 0.447785 
3295 2 -496.173 2030.08 -443.681 0.83753 0.428118 -0.231051 -0.248745 
3369 2 -458.689 1946.71 -510.453 0.841427 -0.319062 0.361239 -0.244349 
3294 2 -489.28 2036.42 -446.797 0.268538 0.513768 0.227586 -0.78239 