ITEM: TIMESTEP
100000000
ITEM: NUMBER OF ATOMS
4067
ITEM: BOX BOUNDS pp pp pp
-4.6310929470000001e+03 4.6704658980000004e+03
-4.6310929470000001e+03 4.6704658980000004e+03
-4.6310929470000001e+03 4.6704658980000004e+03
ITEM: ATOMS id type x y z c_q[1] c_q[2] c_q[3] c_q[4] 
3750 2 -652.402 2605.38 -670.917 -0.72127 0.22257 0.0810712 -0.650891 
3801 2 -786.215 2754.68 -667.386 0.0465741 0.133456 -0.92172 -0.361182 
3180 2 -416.547 1842.98 -534.45 -0.0162272 -0.296711 0.933756 0.199494 
3181 1 -420.25 1889.79 -529.506 -0.920532 -0.0829145 -0.354678 0.141243 
3179 2 -414.967 1839.52 -525.409 0.132647 -0.887348 0.4204 0.135213 
3178 2 -414.513 1835.23 -516.43 0.243656 -0.914863 -0.312373 -0.0779823 
3342 2 -670.585 2074.52 -556 -0.734595 -0.395446 0.489572 0.253598 
3318 2 -555.345 2019.38 -650.263 0.931134 -0.170482 0.0101612 -0.322213 
3319 2 -554.925 2022.13 -640.92 0.788824 -0.315243 0.274623 0.450511 
3320 2 -553.263 2029.44 -634.593 0.151047 -0.0551422 0.503091 0.849143 
3316 1 -598.939 2009.96 -634.733 -0.589365 0.316114 -0.142467 0.729674 
3315 2 -631.431 2004.7 -600.993 -0.235564 -0.814187 0.51155 0.14116 
3314 2 -626.681 2007.3 -592.709 -0.0198437 -0.875173 -0.370684 0.310279 
3321 2 -551.634 2038.33 -630.696 -0.580279 0.444502 0.385296 0.563242 
3304 2 -551.131 2039.03 -544.449 0.0125372 0.815624 0.221387 -0.534405 
3305 2 -559.892 2036.45 -548.24 0.39046 0.726213 -0.394848 -0.405279 
3306 2 -568.844 2035.34 -552.141 0.550592 -0.0741006 -0.828596 0.0691825 
3307 2 -577.992 2034.65 -556.014 0.161851 -0.612097 -0.544485 0.550162 
3308 2 -586.545 2030.48 -558.77 -0.380502 -0.755946 0.176678 0.502542 
3309 2 -595.496 2026.89 -561.393 -0.540334 -0.179315 0.816498 -0.0959978 
3310 2 -603.7 2022.91 -565.391 -0.152813 0.573847 0.670502 -0.444719 
3311 2 -610.548 2018.45 -570.992 0.235375 0.919887 -0.0512339 -0.309486 
3312 2 -616.828 2014.84 -577.638 0.403569 0.594064 -0.694933 -0.0358962 
3313 2 -623.012 2011.09 -584.402 0.224519 -0.0802215 -0.948696 0.20768 
3317 3 -581.65 2018.74 -605.587 -0.601461 0.341739 -0.196366 0.69491 
3325 2 -554.28 2073.27 -614.401 0.850119 -0.363192 -0.189292 -0.330996 
3324 2 -551.368 2066.23 -620.799 0.398886 0.0170048 -0.415056 -0.817514 
3323 2 -551.478 2057.1 -624.98 -0.356351 0.263181 -0.51333 -0.735012 
3322 2 -550.94 2047.7 -627.949 -0.77147 0.607721 -0.115213 -0.149111 
3303 2 -544.356 2036.03 -537.973 -0.39602 0.526745 0.748787 -0.0708976 
3302 2 -537.943 2034.74 -530.455 -0.337399 -0.235615 0.880702 0.234547 
3341 2 -661.434 2077.67 -558.244 -0.166695 -0.631545 -0.0796833 0.753003 
3301 2 -535.413 2034.8 -520.873 -0.0146389 -0.793316 0.585065 0.167735 
3374 2 -509.138 2077.12 -625.892 -0.203085 0.103483 -0.65775 -0.717922 
3373 2 -509.527 2067.96 -629.21 -0.708768 0.519742 -0.334101 -0.34043 
3370 1 -472.623 2051.13 -601.286 0.781182 -0.551 -0.139595 0.2582 
3372 2 -506.375 2059.44 -633.257 -0.80149 0.476585 0.306755 0.190743 
3369 2 -449.415 2059.97 -561.151 0.0825267 0.862679 -0.234024 0.440688 
3368 2 -457.339 2062.32 -555.582 0.410303 0.707369 0.504021 0.277928 
3367 2 -463.262 2065.67 -548.489 0.322591 0.0512334 0.934685 -0.140264 
3366 2 -469.31 2070.46 -542.152 -0.0102716 -0.694185 0.599726 -0.397907 
3371 3 -491.281 2077.27 -586.771 0.79394 -0.544813 -0.157414 0.219224 
3365 2 -477.43 2074.44 -538.281 -0.285949 -0.84738 -0.204404 -0.397995 
3340 2 -651.667 2079.17 -557.582 0.37355 -0.553706 -0.459794 0.585201 
3326 2 -555.2 2080.49 -607.764 0.777251 -0.483896 0.0475836 0.399325 
3339 2 -642.249 2081.2 -555.171 0.636675 0.100806 -0.756074 0.113291 
3327 2 -557.816 2087.82 -601.501 0.207468 -0.225852 0.191103 0.932431 
3328 2 -560.904 2092.62 -593.238 -0.649036 0.0245231 0.343733 0.678232 
3329 2 -565.363 2097.34 -585.941 -0.918075 0.193091 0.308565 -0.15698 
3330 2 -571.333 2099.85 -578.457 -0.343057 0.357086 -0.0714186 -0.865853 
3331 2 -576.958 2103.34 -571.106 0.495543 0.446512 -0.120472 -0.735222 
3332 2 -584.455 2101.01 -564.91 0.858834 -0.0228581 -0.436932 -0.266407 
3333 2 -591.754 2102.76 -558.499 0.564574 -0.380242 -0.299364 0.66862 
3334 2 -600.143 2102.93 -553.063 -0.29292 -0.637959 0.0606396 0.709598 
3335 2 -609.453 2100.55 -550.835 -0.81427 -0.367617 0.441667 0.0821701 
3336 2 -617.83 2095.78 -548.242 -0.488784 0.29212 0.701087 -0.429224 
3337 2 -626.98 2092.16 -549.696 0.135214 0.669822 0.270581 -0.678116 
3338 2 -635.002 2086.46 -550.746 0.45884 0.793054 -0.34056 -0.211067 
3356 2 -541.426 2132.12 -532.523 -0.0938267 0.354577 -0.717322 0.592386 
3355 2 -547.127 2139.52 -529.236 0.330049 0.794752 -0.225385 0.456769 
3354 2 -556.101 2143.5 -527.848 0.660453 0.439416 0.583675 0.173318 
3357 2 -536.056 2124.4 -535.665 -0.493796 -0.249194 -0.808926 0.199265 
3353 2 -565.203 2144.83 -524.246 0.534136 -0.149668 0.803224 -0.217093 
3352 2 -574.777 2146.58 -521.991 0.227432 -0.653715 0.428315 -0.580928 
3351 2 -583.876 2147.34 -518.138 -0.316937 -0.662725 -0.487031 -0.472384 
3344 3 -629.378 2098.54 -535.683 -0.574109 -0.263158 -0.771551 -0.0765226 
3343 1 -660.578 2104.06 -520.549 -0.561386 -0.253636 -0.782915 -0.0869457 
3358 2 -528.38 2119.34 -539.158 -0.543507 -0.776812 -0.269688 -0.168618 
3359 2 -522.454 2112.21 -542.522 -0.050966 -0.619731 0.349769 -0.700712 
3350 2 -593.592 2145.85 -517.418 -0.650691 -0.0302837 -0.733636 -0.19355 
3360 2 -514.348 2106.47 -542.529 0.484837 -0.123992 0.715751 -0.487093 
3349 2 -603.028 2142.93 -516.771 -0.664417 0.454468 -0.514306 0.295801 
3377 2 -512.584 2103.91 -616.256 0.416812 -0.136554 0.308993 0.843886 
3376 2 -510.962 2096.3 -622.095 0.870355 -0.4703 0.0257201 0.143661 
3378 2 -511.526 2110.06 -608.576 -0.349422 0.304197 0.335509 0.820245 
3375 2 -508.354 2086.85 -624.097 0.529279 -0.338058 -0.564916 -0.535211 
3379 2 -509.648 2117.86 -602.772 -0.866199 0.414857 0.00868117 0.278419 
3361 2 -506.614 2100.33 -542.808 0.712419 0.51927 0.471051 0.0304749 
3380 2 -507.21 2124.3 -595.671 -0.79505 0.232962 -0.416929 -0.373892 
3381 2 -502.569 2130.37 -589.64 -0.226216 -0.364042 -0.300565 -0.852033 
3382 2 -494.994 2133.35 -583.969 0.595579 -0.44298 0.0962225 -0.663171 
3362 2 -499.51 2093.47 -542.798 0.333151 0.633404 -0.190317 0.672004 
3383 2 -487.6 2137.46 -578.723 0.846078 -0.326422 0.418902 -0.0460597 
3364 2 -485.693 2079.75 -539.606 -0.74393 -0.256821 -0.607047 0.110025 
3363 2 -492.096 2086.95 -541.956 -0.337915 0.260713 -0.590139 0.685258 
3384 2 -480.579 2143.17 -574.73 0.445438 0.117708 0.399402 0.792596 
3385 2 -474.906 2148.81 -568.917 -0.369353 0.43947 -0.0146672 0.818675 
3386 2 -468.12 2151.49 -562.308 -0.783666 0.399969 -0.372456 0.295245 
3387 2 -461.14 2156.75 -557.798 -0.863597 -0.000942144 -0.4417 -0.243105 
3388 2 -453.151 2158.72 -552.243 -0.392212 -0.406281 -0.246705 -0.787555 
3389 2 -444.772 2159.35 -546.936 0.403669 -0.563969 0.352439 -0.628313 
3390 2 -434.941 2159.84 -546.352 0.610347 -0.124112 0.782071 -0.0209526 
3391 2 -425.47 2159.85 -548.733 0.591293 0.543159 0.51027 0.308181 
3392 2 -415.998 2156.94 -548.853 0.186278 0.617927 -0.0913614 0.758366 
3393 2 -407.565 2152.47 -546.669 -0.538695 0.226785 -0.540862 0.604851 
3394 2 -399.032 2148.26 -543.672 -0.795436 -0.382886 -0.457631 -0.106084 
3395 2 -390.859 2143.79 -540.358 -0.371653 -0.586656 -0.0813219 -0.71491 
3396 2 -381.821 2141.05 -537.599 0.341734 -0.455937 0.416168 -0.708621 
3534 2 -474.949 2311.51 -528.884 0.509208 0.198166 -0.162354 -0.821631 
3535 2 -480.641 2311.69 -520.785 0.974497 -0.058171 -0.141108 -0.164501 
3775 1 -890.879 2578.65 -610.701 0.659615 -0.0263587 0.661921 0.355069 
3777 2 -910.699 2602.85 -575.388 -0.0158898 0.428578 0.641752 0.635785 
3778 2 -905.584 2611.09 -577.492 -0.383293 0.711163 0.110746 0.578851 
3779 2 -897.916 2617.52 -578.262 -0.738411 0.529437 -0.397047 0.129613 
3780 2 -890.254 2623.75 -578.164 -0.510716 0.119648 -0.688755 -0.50047 
3774 2 -855.638 2568.07 -640.173 0.33374 -0.107405 -0.807246 0.4748 
3781 2 -884.151 2631.63 -579.02 0.060706 -0.574876 -0.405181 -0.70828 
3782 2 -876.627 2638.07 -580.599 0.488016 -0.802016 0.228599 -0.25759 
3773 2 -849.094 2574.57 -636.824 0.572345 0.571243 -0.588174 0.0124212 
3776 3 -866.459 2602.09 -602.414 0.623537 -0.0363671 0.644796 0.440588 
3783 2 -869.634 2644.4 -583.788 0.639504 -0.239248 0.69072 0.23812 
3784 2 -862.074 2650.46 -584.733 0.0837934 0.457308 0.54599 0.696953 
3785 2 -854.562 2656.86 -584.821 -0.544066 0.733471 -0.0636829 0.402439 
3786 2 -848.269 2664.33 -585.933 -0.63771 0.175902 -0.7489 -0.0391575 
3772 2 -840.985 2579.7 -634.227 0.314804 0.803968 -0.00589354 -0.504479 
3771 2 -831.657 2581.47 -631.493 -0.31472 0.58448 0.555904 -0.500306 
3787 2 -839.044 2666.93 -588.155 -0.221602 -0.584291 -0.636994 -0.45137 
3770 2 -823.231 2586.85 -630.606 -0.630149 -0.177599 0.736396 -0.170562 
3788 2 -830.705 2669.83 -592.834 0.16719 -0.903472 -0.0322874 -0.393374 
3789 2 -823.871 2673.28 -599.058 0.397759 -0.693642 0.585777 -0.132337 
3790 2 -817.638 2677.13 -605.593 0.381315 -0.0465386 0.915867 0.116704 
3769 2 -813.728 2588.97 -629.35 -0.438128 -0.648888 0.387746 0.486458 
3756 2 -696.601 2608.61 -636.813 -0.819993 -0.194148 0.508641 0.176641 
3757 2 -705.505 2606.22 -633.346 -0.523321 0.214727 0.575681 -0.590439 
3758 2 -714.254 2601.72 -632.199 0.0937471 0.616043 0.139224 -0.769623 
3759 2 -723.419 2598.4 -630.654 0.613849 0.45763 -0.525078 -0.37156 
3765 2 -776.91 2581.38 -633.455 -0.336526 0.629703 -0.0490681 -0.698439 
3766 2 -785.327 2585.98 -630.798 0.445263 0.358298 -0.493449 -0.655646 
3764 2 -767.577 2581.1 -636.363 -0.72213 0.26005 0.535144 -0.352879 
3767 2 -794.212 2588.84 -627.686 0.681601 -0.198687 -0.702941 0.0426257 
3768 2 -803.924 2590.46 -628.09 0.14805 -0.73245 -0.238093 0.620411 
3763 2 -759.385 2586.51 -638.091 -0.786417 -0.37306 0.491527 0.0278391 
3762 2 -750.871 2591.39 -636.867 -0.325452 -0.729808 -0.0213309 0.600837 
3761 2 -742.877 2595.22 -632.561 0.251223 -0.504301 -0.669038 0.484723 
3760 2 -733.217 2596.95 -631.105 0.644807 -0.0231857 -0.75463 0.119253 
3755 2 -687.314 2609.2 -640.211 -0.353835 -0.522231 0.216517 0.745114 
3754 2 -678.485 2609.92 -644.484 0.32783 -0.433732 -0.204691 0.813944 
3827 2 -695.389 2672 -518.051 -0.860508 -0.341135 0.232265 -0.298675 
3826 2 -691.299 2678.85 -523.856 -0.684211 -0.475266 -0.07001 0.548705 
3791 2 -810.788 2679.76 -612.341 -0.097141 0.640198 0.586747 0.48625 
3753 2 -670.02 2608.75 -649.517 0.860051 -0.132477 -0.483984 0.0923073 
3792 2 -806.366 2686.95 -617.421 -0.529672 0.819025 -0.0982331 0.197474 
3825 2 -685.134 2684.99 -528.601 0.163763 -0.294516 -0.378362 0.862139 
3751 2 -656.087 2607.55 -662.027 0.023792 0.25048 -0.032717 -0.967276 
3752 2 -661.095 2607.65 -653.582 0.578388 0.354728 -0.410058 -0.609498 
3747 2 -575.085 2588.85 -624.137 0.257551 0.728917 0.615128 0.154808 
3746 2 -580.527 2590.1 -615.83 0.258749 -0.16683 0.945064 -0.109867 
3748 1 -607.932 2599.21 -656.429 -0.808229 0.0515769 0.38092 -0.446101 
3745 2 -585.215 2594.17 -608.133 -0.107508 -0.893295 0.299037 -0.317873 
3749 3 -626.789 2587.28 -629.661 -0.864664 0.0172176 0.249523 -0.435657 
3744 2 -590.42 2597.66 -600.374 -0.293171 -0.685646 -0.655603 -0.118851 
3743 2 -593.046 2600.27 -591.269 -0.0955881 0.0524726 -0.985488 0.13009 
3742 2 -593.874 2601.54 -581.419 -0.00212628 0.815916 -0.576302 0.0463975 
3741 2 -594.035 2600.42 -571.487 -0.00829561 0.937658 0.347273 0.0114084 
3740 2 -591.615 2602.75 -562.299 -0.0509611 0.424387 0.89199 -0.147147 
3739 2 -589.28 2605.93 -553.245 -0.186128 -0.360233 0.905108 -0.127937 
3738 2 -586.133 2610.25 -544.822 -0.210532 -0.944272 0.245901 0.0596591 
3737 2 -580.933 2614.08 -537.214 0.10355 -0.557946 -0.736674 0.367812 
3736 2 -573.715 2613.78 -530.332 0.441747 0.201676 -0.865036 -0.126091 
3735 2 -565.156 2613.87 -525.52 0.193185 0.738433 -0.39516 -0.511121 
3734 2 -555.738 2614.41 -522.679 -0.222612 0.735522 0.378821 -0.515699 
3692 2 -514.575 2652.52 -517.697 -0.365334 -0.0869521 -0.885638 -0.273158 
3733 2 -546.852 2613.24 -518.33 -0.523795 0.327673 0.781038 -0.0908239 
3732 2 -537.395 2614.49 -515.571 -0.543618 -0.39242 0.705241 0.230478 
3730 2 -519.055 2607.25 -515.973 0.466213 -0.700432 -0.227059 0.490392 
3731 2 -527.893 2611.69 -516.914 -0.048102 -0.575174 0.216641 0.787355 
3729 2 -511.837 2600.59 -515.863 0.742729 -0.415457 -0.522087 -0.056334 
3693 2 -507.747 2656.15 -523.952 -0.0853887 -0.738185 -0.494972 -0.450327 
3723 2 -479.574 2551.77 -519.868 0.475992 -0.686389 0.155539 0.52736 
3725 2 -490.002 2568.52 -518.777 -0.527676 0.337278 0.656459 0.420551 
3726 2 -494.478 2577.27 -519.134 -0.707157 0.632301 0.125396 -0.290518 
3727 2 -500.166 2585.16 -517.212 -0.275928 0.495419 -0.402694 -0.718513 
3728 2 -505.285 2593.33 -514.761 0.295903 0.187303 -0.667796 -0.656816 
3724 2 -485.585 2559.67 -519.548 -0.0446218 -0.306946 0.616242 0.723906 
3793 2 -802.681 2695.39 -621.206 -0.472806 0.561189 -0.668076 -0.123271 
3824 2 -680.876 2692.99 -532.534 0.677979 0.223683 -0.484702 0.505346 
3800 2 -785.167 2748.21 -660.033 -0.253753 0.773813 -0.52145 -0.254781 
3799 2 -785.853 2742.06 -652.262 -0.294685 0.931566 0.184364 0.106564 
3796 2 -790.882 2716.75 -638.378 0.543066 -0.809307 0.220581 -0.0380218 
3794 2 -798.156 2702.28 -626.742 -0.191881 -0.00392328 -0.904817 -0.380096 
3797 2 -787.579 2725.19 -642.094 0.276775 -0.385516 0.787185 0.393843 
3795 2 -794.666 2709.4 -632.856 0.2613 -0.745846 -0.476612 -0.385068 
3798 2 -785.43 2733.79 -646.681 -0.218033 0.420123 0.798225 0.372551 
3804 2 -758.265 2809.1 -598.832 -0.0657854 0.461849 -0.567349 0.678589 
3805 2 -751.099 2802.42 -598.922 -0.67295 -0.0493657 -0.579752 0.456715 
3802 1 -776.102 2790.51 -638.357 -0.834865 -0.407236 -0.261038 0.262714 
3806 2 -743.681 2796.54 -596.206 -0.814966 -0.495646 -0.2161 -0.208485 
3807 2 -738.099 2789.56 -591.915 -0.341444 -0.573458 0.174669 -0.723915 
3808 2 -731.031 2783 -589.531 0.429896 -0.172923 0.499428 -0.732024 
3803 3 -767.492 2762.23 -619.655 -0.822957 -0.434296 -0.288267 0.2259 
3809 2 -724.525 2776.61 -585.731 0.73355 0.201824 0.624193 -0.177637 
3810 2 -716.328 2771.53 -583.435 0.574254 0.589798 0.243568 0.51288 
3811 2 -707.839 2767.06 -581.196 -0.0144633 0.48645 -0.397549 0.777889 
3812 2 -700.47 2760.53 -579.863 -0.70666 0.0400126 -0.49198 0.506939 
3813 2 -692.972 2756.42 -574.963 -0.681562 -0.448033 -0.492793 -0.303139 
3814 2 -684.037 2752.27 -573.765 -0.0835221 -0.69396 -0.00586182 -0.715129 
3815 2 -674.376 2750.58 -572.793 0.681103 -0.218831 0.475973 -0.511528 
3823 2 -674.723 2699.37 -537.069 0.818332 0.446432 -0.168705 -0.320265 
3822 2 -668.978 2705.25 -542.59 0.32332 0.406155 0.200947 -0.830736 
3816 2 -665.534 2748.82 -568.694 0.812282 0.413023 0.409276 0.0458714 
3817 2 -658.355 2742.6 -565.788 0.624424 0.489879 -0.145317 0.590759 
3909 2 -565.221 2831.2 -657.025 -0.484681 -0.443037 0.75154 0.0631632 
3908 2 -557.055 2833.71 -652.03 -0.251186 -0.856617 0.117938 0.434975 
3818 2 -654.464 2734.91 -561.218 -0.0892649 -0.0617837 -0.480149 0.870443 
3821 2 -662.861 2710.85 -547.84 -0.381528 0.185416 0.436939 -0.793185 
3820 2 -657.924 2717.52 -553.438 -0.854133 -0.279656 0.347911 -0.266846 
3819 2 -654.134 2726.19 -556.402 -0.620261 -0.587588 -0.151126 0.497169 
3907 2 -547.919 2835.82 -648.801 0.174589 -0.64392 -0.444476 0.597768 
3906 2 -540.425 2840.17 -643.987 0.473073 0.0513939 -0.832587 0.283479 
3694 1 -528.866 2698.25 -522.247 -0.976558 -0.18619 0.106402 0.0185932 
3910 1 -551.097 2787.39 -646.329 0.0302722 -0.20056 -0.366889 -0.907883 
3911 3 -536.6 2806.92 -621.199 0.0399864 -0.23578 -0.297712 -0.924217 
3922 2 -529.731 2829.49 -558.35 0.356144 -0.0584346 0.543662 0.757746 
3921 2 -530.279 2821.86 -564.595 0.850089 -0.36551 0.151319 0.34764 
3920 2 -528.089 2815.21 -571.636 0.843608 -0.269912 -0.275164 -0.373842 
3919 2 -526.421 2807.05 -576.953 0.175343 0.051915 -0.427543 -0.885306 
3917 2 -523.468 2792.22 -589.923 -0.877022 0.424214 -0.0144891 -0.225087 
3918 2 -524.778 2799.74 -583.53 -0.534857 0.223595 -0.304213 -0.755902 
3916 2 -525.218 2784.1 -595.311 -0.548053 0.36071 0.302024 0.691598 
3915 2 -528.082 2776.12 -600.425 0.165483 0.0940778 0.487626 0.852048 
3914 2 -531.03 2769.19 -606.909 0.765231 -0.226876 0.320254 0.51028 
3913 2 -528.805 2762.58 -614.029 0.904458 -0.309439 -0.186577 -0.226698 
3912 2 -526.732 2755.94 -621.046 0.464352 -0.0647622 -0.372258 -0.801004 
3923 2 -526.655 2838.08 -554.493 -0.475149 0.199308 0.412096 0.751456 
3885 2 -403.568 2764.91 -556.804 0.286313 -0.571616 -0.691803 -0.335691 
3886 2 -404.083 2772.59 -563.095 0.324139 -0.933773 -0.0836531 0.126506 
3887 2 -407.796 2778.86 -569.913 0.0583101 -0.656598 0.658855 0.362475 
3888 2 -410.903 2784.55 -577.338 -0.185768 0.00210293 0.846272 0.499309 
3889 2 -414.248 2792.89 -581.921 -0.617023 0.542092 0.541753 0.17867 
3890 2 -418.406 2801.67 -584.212 -0.523427 0.786016 -0.0703821 -0.321323 
3891 2 -423.08 2810.09 -586.314 0.0203373 0.552067 -0.486414 -0.676912 
3892 2 -429.744 2817.33 -587.148 0.463119 -0.156157 -0.839017 -0.239137 
3893 2 -436.825 2822.91 -591.582 0.537108 -0.657641 -0.504372 0.156948 
3894 2 -443.73 2828.8 -595.221 0.188756 -0.726612 0.356935 0.555882 
3883 1 -391.545 2794.83 -522.261 -0.416249 0.785857 0.334021 -0.312404 
3884 3 -415.041 2812.92 -540.833 -0.402893 0.799768 0.368963 -0.248826 
3895 2 -450.685 2835.02 -598.303 -0.39316 -0.271114 0.74364 0.467891 
3896 2 -458.896 2839.13 -601.897 -0.382476 0.450125 0.80262 -0.0830751 
3905 2 -533.06 2844.47 -638.945 0.469094 0.69551 -0.523031 -0.150515 
3904 2 -523.92 2845.72 -635.663 0.0514493 0.802521 0.117382 -0.582695 
3924 2 -527.429 2845.88 -548.477 -0.912268 0.378554 0.0401847 0.151159 
3925 2 -527.797 2853.31 -541.839 -0.666492 0.039668 -0.203824 -0.71601 
3926 2 -525.744 2856.43 -532.64 0.0450334 -0.115876 -0.0475613 -0.991102 
3955 2 -537.695 2980.33 -526.598 -0.188078 0.767859 -0.29171 -0.538446 
3970 2 -631.897 2952.94 -552.911 0.621355 0.301154 -0.501016 -0.521735 
3969 2 -625.958 2950.73 -560.333 0.0209985 0.261892 -0.117982 -0.957628 
3968 2 -620.536 2945.6 -566.94 -0.806913 0.372857 0.167619 -0.426348 
3967 2 -613.654 2939.43 -570.426 -0.730368 0.161786 0.556824 0.361019 
3966 2 -608.197 2931.97 -573.976 -0.204757 -0.218813 0.529157 0.793844 
3971 2 -640.491 2954.71 -548.494 0.869882 -0.349837 -0.347581 -0.0103229 
3972 2 -646.158 2960.52 -542.725 0.565604 -0.476751 0.0436887 0.671485 
3964 1 -574.332 2962.73 -585.408 0.424906 -0.428884 0.123339 0.787592 
3973 2 -651.841 2966.19 -536.988 -0.122394 -0.178349 0.368386 0.904159 
3965 3 -594.886 2981.19 -563.716 0.354809 -0.434978 0.119534 0.818912 
3927 2 -523.199 2857.31 -523.042 0.845334 0.1345 -0.00775463 -0.516972 
3954 2 -528.927 2977.17 -523.566 -0.476517 0.692265 0.382327 -0.384092 
3974 2 -656.079 2972.67 -530.904 -0.716661 0.0590228 0.476892 0.505458 
3975 2 -662.022 2977.82 -524.92 -0.935141 0.264186 0.192593 -0.136474 
3976 2 -665.278 2982.12 -516.629 -0.670469 0.197988 -0.145486 -0.700076 
3956 2 -545.193 2986.25 -529.216 0.31155 0.300217 -0.792357 -0.43009 
3953 2 -520.83 2974.51 -518.608 -0.491137 0.143329 0.854352 0.091233 
3957 2 -551.877 2992.31 -533.257 0.422994 -0.42302 -0.800085 -0.0446539 
3903 2 -514.218 2845.1 -633.804 -0.490758 0.481939 0.616961 -0.382428 
3952 2 -514.574 2968.44 -514.026 -0.185382 -0.48461 0.69472 0.498147 
3897 2 -465.036 2841.87 -609.123 -0.156726 0.942358 0.175793 -0.237687 
3898 2 -469.987 2843.85 -617.491 0.264997 0.524675 -0.684317 -0.431512 
3901 2 -494.374 2845.62 -633.17 -0.237836 -0.724362 0.246542 0.59829 
3902 2 -504.172 2844.92 -634.328 -0.680964 -0.188193 0.68962 0.159047 
3899 2 -478.023 2846.94 -622.47 0.392108 -0.123631 -0.910608 0.0419613 
3900 2 -485.379 2846.75 -629.06 0.287633 -0.688978 -0.468289 0.472528 
3958 2 -557.798 2996.74 -539.838 0.332964 -0.926432 -0.169841 0.0448531 
3959 2 -559.916 3003.08 -547.114 0.15964 -0.679496 0.677787 0.231094 
3960 2 -559.588 3008.41 -555.383 0.00920468 0.122081 0.991194 0.0504484 
3961 2 -558.839 3009.75 -565.231 0.122754 0.853513 0.502135 0.065628 
3962 2 -557.134 3007.67 -574.768 0.0669524 0.902347 -0.325777 0.274149 
3963 2 -552.854 3004.73 -583.328 -0.15192 0.3783 -0.876885 0.254719 
4008 2 -601.201 3123.78 -523.718 0.649795 -0.756156 -0.0100255 -0.0767733 
4007 2 -601.852 3113.95 -522.93 0.382828 -0.421956 -0.602217 -0.559223 
4009 2 -599.349 3133.43 -523.888 0.631969 -0.428301 0.493049 0.417224 
4006 2 -601.621 3104.7 -519.585 -0.138044 0.193435 -0.800816 -0.549746 
4010 2 -596.218 3142.62 -522.317 0.1354 0.167426 0.745034 0.631316 
4014 2 -569.095 3167.42 -529.174 0.0591684 -0.540508 -0.357865 -0.759133 
4015 2 -561.426 3173.65 -527.844 0.623673 -0.70751 -0.0977003 -0.317674 
4016 2 -558.144 3182.99 -528.125 0.521344 -0.493406 0.650346 0.248599 
4017 2 -554.432 3191.49 -531.63 0.121298 0.111316 0.831312 0.530863 
4013 2 -578.272 3163.77 -530.676 -0.661003 -0.0923037 -0.644039 -0.373858 
4012 2 -585.13 3157.69 -527.011 -0.550769 0.70541 -0.410061 0.175787 
4011 2 -592.119 3151.49 -523.581 -0.187692 0.756106 0.282227 0.559842 
3045 2 -366.598 1486.25 -401.963 0.186302 -0.918326 -0.320036 0.139803 
3044 2 -362.343 1484 -393.399 0.2682 -0.424431 -0.864303 -0.0301213 
3043 2 -359.141 1485.56 -384.162 0.135685 0.437812 -0.888707 0.0104684 
3042 2 -353.999 1483.14 -375.991 -0.0161231 0.905472 -0.261966 -0.333519 
3041 2 -352.224 1482.8 -366.205 -0.0776094 0.744711 0.660763 -0.0526711 
3046 1 -339.883 1522.9 -415.013 -0.84583 -0.104773 -0.200788 0.482988 
3048 2 -308.517 1557.23 -407.193 0.927876 0.293026 0.0964004 0.209499 
3049 2 -305.588 1552.37 -399.029 0.156841 0.399701 -0.160474 0.888756 
3050 2 -300.127 1547.79 -392.282 -0.582428 0.0910572 -0.445465 0.67383 
3047 3 -329.99 1517.35 -381.854 -0.860898 -0.0167778 -0.207438 0.464265 
3051 2 -293.793 1542.88 -386.362 -0.954235 -0.190691 -0.227914 0.0335771 
3052 2 -290.19 1538.25 -378.445 -0.684087 -0.362297 0.226264 -0.591245 
3053 2 -288.831 1531.23 -371.657 -0.00591626 0.00478566 0.388268 -0.921515 
3054 2 -288.477 1523.59 -365.252 0.727839 0.201291 0.236173 -0.611519 
3126 2 -438.047 1695.56 -496.735 -0.0909568 0.377219 -0.856481 -0.3404 
3127 1 -430.112 1727.96 -463.286 0.850662 0.405299 0.327932 -0.0675846 
3123 2 -433.562 1673.4 -478.109 -0.119253 -0.0748056 0.91054 0.388716 
3124 2 -435.59 1680.51 -484.78 -0.503655 0.66578 0.512388 0.201311 
3125 2 -436.904 1689.1 -489.347 -0.342908 0.918859 -0.13175 -0.144064 
3128 3 -413.469 1699.65 -451.319 0.831655 0.444538 0.329832 -0.0441219 
3130 2 -404.028 1740.23 -425.159 -0.488837 -0.556954 -0.602335 -0.296705 
3131 2 -394.736 1739.97 -428.617 -0.0671428 -0.775589 0.022995 -0.627236 
3132 2 -385.488 1737.84 -431.319 0.553198 -0.416425 0.587086 -0.419395 
3122 2 -430.092 1665.3 -473.657 0.343431 -0.735936 0.415634 0.409515 
3121 2 -426.136 1660.03 -466.315 0.327978 -0.836877 -0.428484 0.0920229 
3120 2 -423.818 1654.05 -458.831 0.226061 -0.166937 -0.922433 -0.26485 
3119 2 -421.74 1647.52 -451.721 -0.196617 0.684997 -0.623751 -0.321024 
3118 2 -420.733 1641.07 -444.369 -0.384164 0.9199 0.076088 -0.0203023 
3117 2 -414.696 1633.85 -441.09 -0.516011 0.382498 0.735428 0.215811 
3116 2 -409.283 1628.27 -434.718 -0.165687 -0.280008 0.856128 0.401481 
3115 2 -401.773 1625.92 -428.608 0.071744 -0.891169 0.103086 0.435941 
3114 2 -394.485 1624.39 -422.001 0.34609 -0.608893 -0.693021 0.170862 
3129 2 -412.974 1742.25 -421.714 -0.445299 0.282982 -0.794463 0.300762 
3133 2 -375.62 1738.44 -431.328 0.738609 -0.0855874 0.603441 0.28808 
3113 2 -388.371 1626.57 -414.48 0.370816 0.223113 -0.899499 0.0601518 
3112 2 -380.936 1628.46 -408.174 0.321631 0.743533 -0.503873 -0.299707 
3111 2 -374.224 1629.56 -401.121 0.0139881 0.925879 0.128637 -0.354972 
3134 2 -366.988 1742.73 -429.517 0.231736 0.279149 0.445749 0.818341 
3110 2 -368.172 1636.59 -397.465 -0.125776 0.367247 0.776923 -0.495682 
3109 2 -362.18 1644.59 -396.505 -0.586093 -0.212043 0.69544 -0.357626 
3135 2 -360.391 1748.13 -424.289 -0.467472 0.41882 0.037858 0.777577 
3108 2 -355.369 1650.57 -392.851 -0.482956 -0.799897 0.282858 0.216588 
3136 2 -353.563 1752.22 -418.272 -0.814799 0.368186 -0.447558 0.0152658 
3137 2 -346.252 1757.99 -415.108 -0.545152 -0.0978095 -0.614908 -0.561366 
3107 2 -351.353 1658.47 -388.613 -0.261849 -0.724118 -0.4423 0.459847 
3105 2 -344.109 1676.45 -384.503 0.630941 0.566329 -0.479523 0.226367 
3106 2 -348.202 1667.45 -385.491 0.18843 -0.011287 -0.7797 0.597022 
3103 2 -345.308 1696.26 -383.842 0.266358 0.289705 0.679656 -0.619025 
3104 2 -344.582 1686.38 -384.103 0.674587 0.626825 0.278132 -0.273248 
3102 2 -345.649 1706.07 -383.089 -0.296127 -0.448728 0.576227 -0.615561 
3138 2 -339.191 1764.51 -412.877 0.0813837 -0.500095 -0.280132 -0.815357 
3139 2 -331.662 1770.26 -410.08 0.630173 -0.510572 0.387632 -0.43811 
3140 2 -322.439 1773.18 -407.88 0.822129 -0.162789 0.509561 0.194808 
3288 2 -505.994 1913.16 -421.301 -0.415741 -0.519852 0.137877 0.733419 
3287 2 -497.325 1915.76 -425.254 0.222898 -0.471327 -0.307248 0.796094 
3177 2 -411.428 1835.06 -507.017 0.159358 -0.298108 -0.941134 -0.00206546 
3182 3 -397.243 1880.76 -504.765 -0.904004 -0.0912121 -0.390434 0.148389 
3176 2 -407.208 1834.83 -498.03 0.172775 0.540935 -0.799803 -0.194559 
3175 2 -401.776 1837.35 -490.179 0.108914 0.950695 0.063487 -0.283348 
3174 2 -396.806 1839.41 -481.877 -0.179303 0.583816 0.763009 -0.211721 
3173 2 -392.858 1838.56 -472.783 -0.198052 -0.22838 0.950991 0.0650719 
3172 2 -387.416 1835.69 -465.035 0.0192287 -0.806401 0.476906 0.349154 
3198 2 -383.79 1904.46 -370.604 0.895484 0.284911 0.240426 -0.243163 
3197 2 -386.718 1910.95 -377.545 0.314956 0.0480188 0.399659 -0.859517 
3196 2 -386.798 1914 -387.124 -0.606233 -0.102612 0.171366 -0.769796 
3195 2 -386.955 1915.96 -396.865 -0.969365 -0.0532304 -0.0194879 0.238994 
3194 2 -383.469 1916.75 -406.1 -0.475971 -0.199455 0.0111393 0.856472 
3193 2 -381.927 1918.66 -415.725 0.492377 -0.019909 -0.17495 0.852385 
3171 2 -379.715 1832.17 -459.78 0.323286 -0.84043 -0.277295 0.33507 
3170 2 -370.241 1830.23 -457.321 0.616492 -0.232913 -0.745125 0.102362 
3286 2 -489.355 1921.13 -427.311 0.643618 0.160645 -0.651973 0.367261 
3192 2 -383.895 1920.75 -425.179 0.977321 0.138172 0.102037 0.123855 
3285 2 -480.125 1924.46 -428.257 0.667564 0.525628 -0.425711 -0.311197 
3169 2 -362.118 1829.9 -451.707 0.31358 0.546239 -0.713583 -0.306739 
3199 2 -381.648 1897.96 -363.44 0.697235 0.319983 0.0188893 0.641184 
3191 2 -388.108 1923.06 -433.899 0.776343 -0.119704 0.27263 -0.555549 
3190 2 -391.979 1924.55 -442.929 0.0872705 -0.227557 0.0683165 -0.967437 
3141 2 -315.517 1777.57 -402.268 0.463678 0.241224 0.302556 0.797041 
3142 2 -309.05 1780.61 -395.437 -0.336825 0.480415 0.0061249 0.809761 
3143 2 -301.217 1783.91 -390.393 -0.897423 0.328994 -0.239713 0.170096 
3144 2 -296.853 1789.07 -383.224 -0.60091 0.039892 -0.531341 -0.595812 
3145 2 -292.023 1796.38 -378.449 0.0157898 -0.398431 -0.536707 -0.743605 
3146 2 -286.775 1804.68 -377.633 0.590577 -0.6602 -0.000805566 -0.464062 
3156 2 -248.085 1872.21 -450.847 0.676365 0.285373 -0.678974 -0.00934353 
3157 2 -257.072 1868.46 -452.58 0.509219 -0.372981 -0.584663 0.509657 
3158 2 -266.714 1866.32 -452.516 -0.212693 -0.576356 -0.0874226 0.784176 
3159 2 -275.94 1863.81 -450.353 -0.661741 -0.513694 0.48971 0.241664 
3160 2 -284.559 1859.01 -450.11 -0.602725 0.0214705 0.638072 -0.478671 
3161 2 -292.484 1853.31 -448.78 -0.00797972 0.457284 0.415968 -0.786001 
3162 2 -299.358 1846.68 -446.535 0.581443 0.612319 -0.0917331 -0.527801 
3168 2 -353.03 1830.62 -447.681 0.0159677 0.824783 0.0321105 -0.564312 
3163 2 -306.989 1840.98 -443.871 0.760965 0.191479 -0.618767 0.0373602 
3164 2 -315.744 1836.63 -442.248 0.354171 -0.512668 -0.544157 0.561807 
3167 2 -344.192 1829.57 -443.382 -0.413693 0.524775 0.698903 -0.254959 
3165 2 -324.862 1832.87 -442.078 -0.236735 -0.687568 0.0928166 0.680141 
3166 2 -334.486 1830.43 -441.409 -0.638188 -0.226419 0.712878 0.182364 
3155 3 -267.307 1851.65 -407.269 -0.492817 0.22614 0.677404 -0.497108 
3147 2 -281.131 1812.82 -376.307 0.747858 -0.367295 0.53734 0.13065 
3148 2 -273.845 1819.33 -374.247 0.423623 0.277036 0.452878 0.733959 
3149 2 -265.917 1824.15 -370.766 -0.48934 0.511257 0.222967 0.670409 
3150 2 -260.902 1832 -367.428 -0.805587 0.564098 -0.172718 0.0546869 
3151 2 -256.615 1840.28 -364.464 -0.589293 0.0429336 -0.598919 -0.540543 
3154 1 -237.071 1869.06 -405.045 -0.504791 0.202132 0.687502 -0.48132 
3152 2 -250.521 1847.52 -361.743 0.164474 -0.471901 -0.494799 -0.710937 
3300 2 -533.116 2034.38 -511.162 -0.00257671 -0.94022 -0.316333 0.126147 
3299 2 -531.044 2034.78 -501.447 0.0732002 -0.323324 -0.943275 0.0183228 
3298 2 -529.911 2031.36 -492.123 -0.0677873 0.550348 -0.81061 -0.188239 
3297 2 -530.744 2027.27 -483.186 -0.235955 0.948632 -0.208817 0.0285977 
3296 2 -529.862 2021.48 -475.207 -0.23022 0.638655 0.715652 0.164197 
3289 1 -530.439 1953.49 -420.922 0.43359 -0.282932 0.849796 -0.0989744 
3291 2 -537.801 1998.55 -432.827 -0.253127 0.546409 -0.797114 -0.0444075 
3292 2 -534.181 2002.16 -441.339 -0.0999363 -0.254804 -0.946366 -0.171693 
3293 2 -531.889 2005.13 -450.561 0.0920263 -0.802319 -0.548381 -0.21701 
3294 2 -530.922 2009.58 -459.303 0.345019 -0.897202 0.273758 0.0323579 
3295 2 -529.731 2015.42 -467.288 0.106414 -0.346923 0.885977 0.288731 
3189 2 -395.349 1927.97 -451.457 -0.73103 -0.271897 -0.0173093 -0.625594 
3188 2 -398.746 1929.82 -460.462 -0.986008 -0.0862835 -0.139375 0.0303027 
3186 2 -403.749 1931.1 -479.561 0.142309 0.157115 -0.020026 0.977068 
3187 2 -400.456 1930.57 -470.262 -0.659291 0.0499488 -0.117564 0.740958 
3185 2 -406.177 1928.63 -488.964 0.772617 -0.0261293 0.227947 0.591963 
3184 2 -407.796 1929.16 -498.734 0.969093 0.0381967 0.112244 -0.216336 
3183 2 -410.688 1930.77 -508.033 0.403384 -0.0902894 0.133446 -0.900734 
3284 2 -472.703 1930.8 -429.995 0.347979 0.607505 0.20146 -0.685027 
3283 2 -465.096 1937.04 -429.99 -0.349312 0.183324 0.687447 -0.609746 
3290 3 -504.095 1960.16 -443.079 0.37482 -0.391906 0.837806 -0.0632479 
3282 2 -458.907 1944.45 -427.575 -0.627725 -0.525429 0.571216 -0.059993 