ITEM: TIMESTEP
100000000
ITEM: NUMBER OF ATOMS
4067
ITEM: BOX BOUNDS pp pp pp
-4.6310929470000001e+03 4.6704658980000004e+03
-4.6310929470000001e+03 4.6704658980000004e+03
-4.6310929470000001e+03 4.6704658980000004e+03
ITEM: ATOMS id type x y z c_q[1] c_q[2] c_q[3] c_q[4] 
3500 2 -534.89 2274.12 -689.862 -0.0897783 0.991635 0.037324 -0.0848906 
3505 1 -570.269 2317.97 -698.756 -0.910926 -0.345126 -0.192783 -0.118058 
3504 2 -550.196 2283.46 -723.914 0.0440346 -0.794207 0.508232 0.330147 
3503 2 -545.754 2278.94 -716.278 0.317652 -0.86391 -0.361729 0.148016 
3502 2 -542.843 2275.53 -707.399 0.151514 -0.206457 -0.955496 -0.146448 
3501 2 -537.275 2276.08 -699.307 0.264407 0.59012 -0.75147 -0.130921 
3499 2 -534.725 2271.46 -680.294 -0.0998865 0.646812 0.74542 0.126513 
3498 2 -531.782 2273.93 -671.113 -0.201546 -0.336161 0.916611 -0.0787283 
3506 3 -556.432 2297.35 -674.213 -0.919046 -0.349103 -0.164933 -0.0792388 
4044 2 -739.766 3044.31 -734.146 -0.093973 -0.454879 -0.878862 -0.108887 
4042 2 -743.584 3043.91 -714.782 -0.00727359 0.980306 -0.194263 0.0347789 
4043 2 -742.705 3043.85 -724.645 -0.16462 0.370106 -0.913835 0.0287736 
4045 1 -693.697 3053.51 -731.294 0.582807 0.282731 0.0771092 -0.757928 
4046 3 -700.036 3035.56 -701.927 0.598515 0.285656 0.096565 -0.742196 
4041 2 -745.104 3041.18 -705.273 -0.060512 0.808723 0.565656 0.149465 
4040 2 -741.716 3041.26 -695.888 -0.153374 0.0767897 0.985144 -0.00848515 
4039 2 -739.141 3042.42 -686.334 -0.106293 -0.683591 0.721915 0.0156296 
4038 2 -736.591 3042.54 -676.821 -0.00122733 -0.963061 -0.234987 0.131501 
4037 2 -734.392 3042.57 -667.212 0.0749135 -0.523967 -0.846385 0.0589742 
4053 2 -671.101 3015.01 -671.145 0.68757 -0.208275 -0.281163 0.636252 
4052 2 -666.154 3019.17 -678.46 0.916513 0.302312 -0.234878 -0.11595 
4051 2 -660.432 3023.95 -685.009 0.391643 0.391097 0.0620615 -0.830546 
4047 2 -651.744 3053.34 -709.654 0.239896 -0.0373456 -0.440471 0.864315 
4049 2 -654.839 3038.41 -697.336 -0.874671 -0.482988 0.040904 -0.000335815 
4048 2 -654.432 3046.19 -703.345 -0.601498 -0.318786 -0.295811 0.670129 
4050 2 -656.922 3030.56 -691.459 -0.507704 -0.0701055 0.417712 -0.750226 
3345 2 -648.925 2023.62 -574.978 -0.719988 0.31551 -0.280611 0.550753 
3346 2 -642.572 2025.84 -567.696 -0.816794 -0.015693 -0.56206 -0.129192 
3347 2 -633.405 2026.27 -563.957 -0.469905 -0.34879 -0.167699 -0.793355 
3343 1 -662.046 1981.27 -558.921 0.879898 -0.251123 0.291571 -0.278751 
3348 2 -625.763 2025.89 -557.617 0.302873 -0.331026 0.0998014 -0.888104 
3349 2 -619.033 2024.99 -550.433 0.859606 -0.124938 0.395633 -0.298233 
3344 3 -640.665 1993.2 -533.728 0.872116 -0.249672 0.311829 -0.282561 
3350 2 -611.654 2024.67 -543.885 0.835761 0.277184 0.288428 0.37614 
3351 2 -604.907 2022.43 -536.867 0.239742 0.200793 -0.112112 0.943206 
3352 2 -601.111 2019.22 -528.411 -0.541605 0.214598 -0.294156 0.757683 
3353 2 -594.393 2017.08 -521.431 -0.868717 -0.0429408 -0.491675 0.0417339 
3379 2 -524.428 1995.98 -545.383 0.0842563 -0.178359 -0.214177 -0.95667 
3381 2 -518.981 2007.85 -530.526 0.88661 -0.282878 0.197182 0.308255 
3342 2 -662.889 1946.74 -526.748 0.430219 0.732218 -0.493215 -0.188432 
3378 2 -526.251 1988.22 -551.111 -0.609517 0.269703 -0.356671 -0.654626 
3377 2 -527.397 1980.52 -557.102 -0.913577 0.382633 -0.125269 -0.0572443 
3376 2 -528.953 1971.66 -561.255 -0.567863 0.516997 0.297347 0.567301 
3375 2 -528.051 1961.78 -562.893 0.0395792 -0.0632108 0.648342 0.757687 
3374 2 -522.949 1953.13 -562.698 0.542007 -0.717731 0.103125 0.4248 
3382 2 -517.642 2014.01 -522.873 0.357774 0.123947 0.435411 0.816733 
3341 2 -655.585 1951.21 -521.68 0.144011 0.856551 0.149999 -0.472316 
3380 2 -521.63 2000.98 -537.178 0.743575 -0.374618 -0.114399 -0.541913 
3354 2 -585.818 2016.14 -516.417 -0.472978 -0.463666 -0.0188328 -0.748966 
3373 2 -516.568 1945.73 -564.234 0.738343 -0.351857 -0.537794 -0.204508 
3371 3 -514.027 1955.53 -520.362 0.766047 -0.495301 -0.253709 0.321682 
3383 2 -512.546 2019.65 -516.638 -0.377289 0.498831 0.35253 0.696092 
3372 2 -510.656 1940.28 -569.819 0.332982 0.191443 -0.410726 -0.826908 
3370 1 -489.187 1932.29 -528.642 0.750628 -0.510356 -0.310822 0.281929 
3389 2 -486.985 2070.75 -518.293 0.0408553 -0.1354 0.817971 0.557603 
3388 2 -487.762 2061.2 -515.884 0.53203 -0.58727 0.499895 0.349518 
3397 1 -558.309 2117.4 -525.042 0.668318 0.373465 0.050687 0.641331 
3396 2 -515.143 2128.94 -539.986 -0.20982 -0.123485 0.816459 0.523566 
3390 2 -487.951 2080.26 -521.113 -0.504406 0.440972 0.649042 0.360364 
3395 2 -511.005 2120.79 -536.165 0.268931 -0.656035 0.512193 0.484719 
3468 2 -472.891 2216.21 -548.413 0.0103938 0.482829 -0.556243 -0.676285 
3467 2 -469.975 2207.2 -545.535 -0.553886 0.798543 -0.118809 -0.20353 
3466 2 -467.057 2197.98 -543.068 -0.571072 0.615298 0.507015 0.195502 
3465 2 -463.83 2190.21 -537.957 -0.173526 -0.0475043 0.865813 0.466905 
3464 2 -458.25 2185.63 -531.133 0.074725 -0.821909 0.397701 0.400894 
3463 2 -452.506 2182 -523.866 0.311475 -0.761002 -0.55776 0.112974 
3480 2 -414.933 2215.12 -571.061 0.250669 0.817841 -0.42042 -0.30257 
3481 2 -422.257 2214.38 -577.686 0.402096 0.168481 -0.859935 -0.265415 
3482 2 -430.115 2217.01 -582.994 0.505573 -0.621229 -0.591656 0.0917245 
3485 2 -451.196 2228.27 -599.9 -0.221891 0.377697 0.835681 0.331282 
3484 2 -445.098 2224.4 -593.269 -0.112871 -0.527619 0.759406 0.363567 
3483 2 -437.948 2221.79 -586.972 0.167238 -0.916732 -0.0214352 0.362179 
3469 2 -479.236 2223.78 -548.928 0.699865 -0.164816 -0.51595 -0.46564 
3394 2 -507.584 2112.07 -533 0.575268 -0.739553 -0.349194 0.0138639 
3393 2 -502.808 2103.4 -531.491 0.33693 0.00293589 -0.772653 -0.53803 
3392 2 -497.496 2095.7 -528.269 -0.146543 0.615379 -0.561975 -0.532934 
3391 2 -491.675 2088.98 -523.69 -0.467853 0.836141 0.0846987 -0.273511 
3462 2 -450.62 2181.35 -514.159 0.0934006 -0.0524753 -0.994075 0.0183465 
3497 2 -527.673 2277.72 -662.854 -0.245916 -0.885527 0.380572 0.102629 
3507 2 -581.53 2339.78 -658.472 0.783398 0.205101 0.404344 -0.42512 
3508 2 -576.181 2333.58 -652.888 0.755881 0.42983 0.12372 0.478105 
3509 2 -569.947 2327.82 -647.827 0.14459 0.320391 -0.23676 0.905753 
3510 2 -564.558 2323.68 -640.586 -0.591138 -0.0839693 -0.385868 0.703286 
3511 2 -561.168 2317.44 -633.707 -0.977928 -0.01844 -0.0593536 -0.199485 
3512 2 -559.341 2317.08 -624.045 -0.672473 -0.115757 0.0735413 -0.727304 
3513 2 -558.284 2315.32 -614.463 0.0915657 0.0590118 0.00489787 -0.994037 
3514 2 -559.862 2314.27 -604.664 0.826049 -0.226448 -0.0589874 -0.512722 
3515 2 -559.177 2318.39 -595.749 0.909615 -0.322207 0.042904 0.258731 
3516 2 -559.978 2323.97 -587.55 0.434908 -0.290303 0.156824 0.837846 
3517 2 -563.115 2329.82 -580.171 -0.465721 -0.00555408 0.341412 0.816401 
3518 2 -566.723 2335.69 -573.058 -0.893703 0.194935 0.321713 0.244531 
3519 2 -571.992 2340.58 -566.228 -0.796224 0.0738261 0.123082 -0.587731 
3520 2 -575.411 2341.14 -556.946 -0.0550139 0.404682 0.0194303 -0.912594 
3521 2 -583.061 2340.06 -550.655 0.672532 0.431963 -0.207977 -0.563785 
3522 2 -591.01 2337.21 -545.59 0.868563 0.0486809 -0.43165 0.238552 
3523 2 -598.91 2334.25 -540.093 0.0588477 -0.255069 -0.323289 0.909374 
3524 2 -604.133 2328.23 -534.43 -0.692013 -0.321162 0.0316351 0.645733 
3525 2 -608.389 2323.59 -526.96 -0.915018 -0.335082 0.206623 -0.0881424 
3543 2 -555.655 2363.04 -529.827 -0.645419 0.280595 0.493717 0.510826 
3542 2 -552.654 2354.28 -533.4 -0.0697115 -0.123846 0.590021 0.794782 
3539 2 -536.971 2330.66 -541.8 0.566055 -0.107505 -0.586237 -0.569518 
3541 2 -548.644 2346.07 -537.239 0.576557 -0.524545 0.259497 0.570172 
3540 2 -542.93 2338.17 -539.293 0.773424 -0.548109 -0.314549 0.0495001 
3537 2 -530.04 2312.32 -543.605 -0.684152 0.671364 -0.0010407 -0.284966 
3538 2 -533.755 2321.39 -543.246 -0.143208 0.311529 -0.545975 -0.76443 
3533 3 -567.079 2303.42 -523.154 -0.47513 0.604603 0.570313 0.288876 
3536 2 -525.84 2303.81 -540.97 -0.522667 0.507101 0.651685 0.212071 
3535 2 -522.505 2295.68 -536.5 -0.170346 -0.13715 0.824713 0.521555 
3534 2 -518.54 2287.73 -531.979 0.395153 -0.836388 0.160967 0.344092 
3544 2 -558.738 2371.9 -526.926 -0.830736 0.434371 0.337954 -0.0835869 
3526 2 -611.927 2317.33 -520.19 -0.433937 -0.178514 0.459825 -0.753918 
3545 2 -563.983 2379.37 -523.13 -0.491102 0.456689 -0.160583 -0.724201 
3496 2 -522.716 2277.3 -654.368 0.117652 -0.833079 -0.491576 0.2247 
3495 2 -516.163 2275.3 -647.188 0.346451 -0.151793 -0.924157 -0.0535191 
3527 2 -612.241 2309.04 -514.977 0.336151 0.119713 0.456519 -0.815023 
3486 2 -452.312 2235.76 -606.412 -0.249786 0.904763 0.228538 -0.25842 
3470 2 -483.322 2231.87 -545.164 0.867177 -0.449747 -0.043341 0.209412 
3487 2 -458.397 2239.35 -613.305 0.0984054 0.640376 -0.681498 -0.340287 
3488 2 -463.605 2242.13 -621.235 0.449886 -0.225116 -0.859957 -0.0860132 
3489 2 -471.171 2245.08 -626.812 0.428921 -0.746791 -0.309577 0.403104 
3490 2 -479.598 2249.14 -630.122 0.0509454 -0.651514 0.297422 0.696042 
3491 2 -488.451 2253.56 -630.69 -0.454893 -0.245884 0.714609 0.471112 
3492 2 -497.219 2257.99 -632.386 -0.46788 0.530895 0.70382 0.0622544 
3493 2 -503.605 2263.77 -637.189 -0.387703 0.843718 0.0287184 -0.370138 
3494 2 -510.266 2269.77 -641.427 0.0465645 0.544042 -0.692883 -0.470918 
3471 2 -487.054 2239.47 -539.977 0.405206 -0.328018 0.454798 0.72206 
3472 2 -487.274 2248.33 -535.702 -0.305395 0.288342 0.555509 0.717636 
3479 3 -456.451 2245.94 -565.964 -0.231436 0.697844 0.515722 -0.439866 
3478 1 -428.015 2253.5 -546.938 -0.12884 0.721443 0.558077 -0.389193 
3473 2 -486.295 2257.9 -533.594 -0.588508 0.720845 0.0657189 0.36017 
3474 2 -482.587 2266.95 -535.014 -0.708817 0.322889 -0.615705 -0.119284 
3475 2 -474.466 2272.78 -534.968 -0.350962 -0.298429 -0.552922 -0.694293 
3476 2 -466.751 2278.51 -533.17 0.358654 -0.645238 -0.154791 -0.656563 
3477 2 -459.684 2285.16 -532.063 0.726965 -0.527737 0.409688 -0.158655 
3672 2 -421.313 2382.32 -520.214 0.0532719 -0.319737 0.245414 -0.91362 
3546 2 -569.071 2386.48 -518.543 0.271832 0.236655 -0.47441 -0.803142 
3547 2 -575.895 2391.9 -514.075 0.756693 -0.346362 -0.542282 -0.115668 
3671 2 -430.937 2383.87 -521.562 -0.495631 -0.574948 -0.385525 -0.524553 
3662 2 -386.807 2453.48 -534.888 -0.251632 -0.426897 0.560658 0.663402 
3661 2 -378.386 2448.4 -533.788 0.291878 -0.739286 0.054729 0.604374 
3660 2 -369.942 2443.96 -531.058 0.569735 -0.577349 -0.525596 0.256554 
3663 2 -394.677 2459.28 -534.173 -0.791001 0.245023 0.497886 0.257665 
3664 2 -400.653 2466.13 -530.274 -0.756826 0.422089 0.180383 -0.465314 
3665 2 -407.193 2470.81 -524.383 -0.159206 0.47769 -0.134327 -0.853476 
3666 2 -414.981 2474.16 -519.491 0.603999 0.156604 -0.466206 -0.627147 
3668 3 -410.059 2422.59 -518.991 -0.372215 -0.681547 -0.0314497 -0.629254 
3667 1 -442.443 2435.77 -519.103 -0.320323 -0.700008 0.03001 -0.637559 
3669 2 -449.717 2389.18 -521.844 -0.208344 0.605007 -0.452043 0.621464 
3670 2 -440.223 2386.81 -522.774 -0.706969 -0.10434 -0.68275 0.152187 
3585 2 -433.728 2518.08 -514.447 0.566474 -0.787908 0.211882 0.115821 
3578 2 -464.665 2462.9 -514.476 0.712332 -0.475134 0.513254 -0.0583178 
3577 2 -471.99 2456.5 -516.383 0.458231 -0.680479 0.0390059 -0.570483 
3659 2 -360.097 2443.29 -530.788 0.674509 0.133285 -0.70361 -0.179458 
3658 2 -350.679 2445.08 -528.84 0.292646 0.752078 -0.29128 -0.513705 
3657 2 -341.248 2444.36 -526.229 -0.285785 0.750185 0.268433 -0.532441 
3656 2 -331.574 2443.67 -524.469 -0.650025 0.195448 0.730469 -0.0753856 
3655 2 -322.894 2440.64 -527.787 -0.515434 -0.235339 0.47942 0.670149 
3654 2 -314.493 2435.51 -529.49 0.111116 -0.561153 0.242583 0.783527 
3653 2 -306.397 2430.57 -532.284 0.70242 -0.512214 -0.31827 0.378083 
3652 2 -299.795 2423.11 -532.564 0.645743 -0.296039 -0.639816 -0.293278 
3651 2 -293.124 2415.86 -531.372 0.201993 0.307959 -0.688201 -0.625092 
3650 2 -284.914 2410.86 -529.086 -0.164922 0.769602 -0.19706 -0.584534 
3649 2 -276.575 2405.8 -527.845 -0.655739 0.587898 0.39356 -0.263615 
3648 2 -268.414 2400.43 -525.664 -0.515472 -0.0289782 0.780638 0.352212 
3647 2 -261.52 2393.83 -523.398 -0.0513701 -0.549153 0.574432 0.60483 
3646 2 -256.582 2387.13 -517.955 0.459094 -0.852557 -0.168821 0.18406 
3747 2 -468.159 2649.44 -595.75 -0.245624 0.50044 -0.811565 -0.174902 
3748 1 -428.45 2671.92 -583.901 0.727426 0.192406 -0.177222 -0.634369 
3746 2 -470.079 2644.38 -587.443 -0.265715 0.957818 -0.0434004 0.100481 
3745 2 -474.895 2638.03 -581.564 -0.0104284 0.56275 0.72778 0.391843 
3744 2 -482.314 2634.9 -575.721 0.496592 -0.0680665 0.857219 0.11806 
3743 2 -490.412 2633.56 -570.092 0.302445 -0.807008 0.400527 -0.311195 
3742 2 -495.227 2637.42 -562.313 -0.242321 -0.905547 -0.287755 -0.19612 
3741 2 -497.602 2637.66 -552.622 -0.0904234 -0.557513 -0.824737 -0.0284809 
3740 2 -498.81 2637.41 -542.866 -0.0692382 0.301207 -0.950756 -0.0233158 
3749 3 -444.75 2667.96 -553.108 0.687601 0.226957 -0.16335 -0.670084 
3739 2 -499.801 2637.66 -532.951 -0.0433257 0.889753 -0.451693 0.0493561 
3738 2 -500.214 2635.04 -523.479 -0.0774976 0.878853 0.461952 0.0906222 
3737 2 -501.607 2631.27 -514.372 0.0589027 0.258651 0.942882 0.201505 
3878 2 -676.021 2828.47 -522.427 0.128337 -0.32382 -0.753888 -0.557066 
3879 2 -674.61 2837.68 -525.757 0.453008 -0.778082 -0.399701 -0.172081 
3877 2 -679.909 2819.94 -519.318 -0.517252 0.40724 -0.67233 -0.338493 
3754 2 -414.443 2695.73 -517.54 0.973091 0.222873 -0.0306987 -0.049799 
3753 2 -410.512 2696.24 -526.555 0.397778 0.163351 -0.068399 -0.900228 
3752 2 -406.423 2694.31 -535.492 -0.531219 0.207383 -0.0156364 -0.821312 
3751 2 -401.16 2692.27 -543.701 -0.969095 0.04521 0.241781 -0.0187711 
3750 2 -397.94 2690.24 -552.852 -0.557053 -0.0528846 0.140082 0.816867 
3888 2 -763.061 2854.56 -519.75 0.904204 0.230222 -0.157793 0.323287 
3884 3 -722.196 2846.45 -528.481 -0.698159 -0.269768 0.256457 -0.611579 
3887 2 -764.005 2858.73 -528.604 0.843892 0.172265 0.131891 -0.490689 
3886 2 -765.771 2862.18 -537.713 0.0760917 -0.0807468 0.180619 -0.977275 
3885 2 -766.292 2867.82 -545.702 -0.66176 -0.220765 0.208055 -0.685602 
3883 1 -719.665 2874.2 -549.605 -0.73533 -0.271045 0.273049 -0.557914 
3882 2 -674.659 2862.6 -541.526 -0.237649 0.459702 0.763751 0.385852 
3881 2 -675.065 2854.9 -535.395 0.116955 -0.15165 0.868661 0.456895 
4067 2 -726.106 2934.96 -585.96 0.456617 0.168152 -0.450962 0.748237 
4066 2 -723.358 2942.4 -591.841 0.893817 0.392284 -0.178922 0.123256 
4065 2 -722.116 2950.12 -598.098 0.682369 0.343441 0.259077 -0.591016 
4064 2 -720.323 2957.33 -604.568 -0.0749791 0.0329905 0.383802 -0.919775 
4063 2 -720.798 2966.9 -606.888 -0.651165 -0.579943 0.284974 -0.398045 
3880 2 -676.001 2845.9 -531.223 0.50669 -0.688462 0.493906 0.159193 
4062 2 -717.961 2974.76 -612.109 -0.79735 -0.470994 -0.0412035 0.3751 
4061 2 -713.33 2981.55 -617.381 -0.237078 -0.354833 -0.333445 0.840655 
4060 2 -710.206 2988.83 -623.309 0.532731 0.0699494 -0.413851 0.734869 
4059 2 -705.47 2992.82 -631.004 0.943685 0.223553 -0.234828 -0.0658679 
4057 2 -697.322 3004.83 -644.536 -0.330484 0.158545 0.370169 -0.853592 
4056 2 -691.388 3007.29 -652.086 -0.926802 -0.0393799 0.334939 -0.165238 
4058 2 -701.688 2999.17 -637.671 0.476753 0.386426 0.179852 -0.768788 
4023 2 -755.011 3085.01 -550.306 0.0329666 0.156482 -0.838128 0.521506 
4024 2 -753.658 3076.18 -554.288 -0.36933 -0.62291 -0.620496 0.300937 
4025 2 -752.711 3067.91 -559.769 -0.373611 -0.86098 0.282294 -0.198591 
4026 2 -751.504 3060.45 -566.192 -0.0308089 -0.352004 0.878742 -0.320869 
4027 2 -750.066 3054.21 -573.65 0.248588 0.486081 0.8312 -0.105046 
4028 2 -747.371 3049.37 -581.788 0.0805249 0.989584 0.0275456 0.116103 
4029 2 -744.099 3047.25 -590.931 -0.0818983 0.662499 -0.738098 0.097969 
4030 2 -741.581 3046.81 -600.436 -0.106346 -0.142091 -0.982432 0.0576922 
4031 2 -738.625 3046.08 -609.89 -0.141974 -0.851488 -0.499693 -0.0715465 
4033 2 -733.707 3044.06 -628.842 0.108691 -0.228501 0.967426 0.00776682 
4032 2 -735.96 3044.03 -619.142 0.00743415 -0.92998 0.355219 -0.0943517 
4034 2 -732.608 3044.08 -638.745 0.172826 0.565763 0.806128 -0.0141705 
4035 2 -730.412 3042.52 -648.125 0.0741157 0.975019 -0.20198 -0.0552175 
4036 2 -731.685 3041.45 -657.806 0.067224 0.542271 -0.834554 -0.0703066 
4022 2 -759.936 3092.78 -546.629 0.409149 0.725925 -0.336078 0.438954 
4021 2 -765.007 3101.23 -546.174 0.721713 0.601711 0.340445 0.0342284 
4020 2 -772.35 3107.83 -546.244 0.573238 0.0599553 0.691646 -0.435234 
4055 2 -686.453 3011.21 -659.677 -0.775753 -0.315129 0.0906028 0.539159 
4054 2 -678.009 3013.66 -664.144 -0.0116905 -0.518645 -0.107917 0.848071 
3237 2 -455.493 1857.91 -375.242 0.732651 0.188069 -0.417782 0.503299 
3238 2 -459.732 1850.86 -369.892 0.0521698 -0.209933 -0.534907 0.816751 
3239 2 -463.686 1842.5 -366.4 -0.430486 -0.555084 -0.163706 0.69265 
3240 2 -470.221 1835.84 -363.253 -0.745637 -0.616595 0.171748 0.185308 
3326 2 -676.331 1964.92 -396.411 0.247979 0.0842287 0.961391 0.0844898 
3323 2 -682.668 1960 -367.912 -0.14562 -0.575944 -0.795431 -0.119885 
3324 2 -679.481 1961.45 -377.173 0.0876047 -0.99171 0.0674245 -0.0655024 
3325 2 -678.219 1963.72 -386.737 0.0609788 -0.618331 0.783333 -0.0183458 
3327 2 -671.954 1965.67 -405.179 0.0478586 0.814411 0.467203 0.340831 
3328 2 -667.478 1968.87 -413.294 -0.320105 0.866037 -0.383816 0.014096 
3340 2 -653.099 1956.09 -513.404 0.0592791 0.487673 0.821606 -0.28918 
3329 2 -664.405 1972.36 -421.926 -0.294537 0.41477 -0.860392 -0.0306634 
3355 2 -578.514 2012.32 -510.912 0.208785 -0.100436 0.40752 -0.883317 
3330 2 -659.839 1975.04 -430.323 -0.171612 -0.351765 -0.908183 -0.148374 
3331 2 -655.221 1977.28 -438.81 0.0994388 -0.919322 -0.147381 -0.351051 
3332 2 -648.55 1980.32 -445.47 0.1938 -0.605103 0.771108 -0.0410474 
3333 2 -644.149 1980.88 -454.361 0.32641 0.298623 0.893972 -0.0713795 
3334 2 -639.374 1977.3 -462.346 0.20981 0.948363 0.171978 0.164349 
3335 2 -636.712 1973.64 -471.168 0.126433 0.787342 -0.60322 0.0152279 
3356 2 -575.093 2005.33 -504.709 0.769694 0.344476 0.267427 -0.466251 
3357 2 -574.003 1997.54 -498.683 0.744708 0.489541 -0.100127 0.442419 
3336 2 -636.883 1971.71 -480.978 0.104728 -0.178418 -0.957911 0.199012 
3337 2 -639.37 1967.67 -489.662 -0.0923196 -0.871671 -0.400803 0.266504 
3338 2 -643.131 1963.89 -497.936 -0.28468 -0.785442 0.533052 0.133769 
3339 2 -648.033 1960.37 -505.806 -0.319565 -0.166326 0.916831 -0.172149 
3358 2 -571.872 1989.36 -493.538 0.000155625 0.347414 -0.326447 0.879054 
3359 2 -566.335 1983.36 -488.164 -0.631865 0.0610931 -0.52724 0.564829 
3360 2 -558.999 1977.92 -484.33 -0.753712 -0.313186 -0.50986 -0.271802 
3361 2 -549.907 1975.44 -481.238 -0.303856 -0.723637 -0.018692 -0.619413 
3362 2 -540.91 1971.45 -482.007 0.295105 -0.348156 0.592006 -0.664251 
3363 2 -532.158 1966.7 -481.677 0.79348 0.259057 0.54633 -0.0693052 
3364 2 -524.05 1961.65 -478.894 0.573868 0.559067 0.169678 0.573871 
3365 2 -516.245 1956.46 -475.828 0.00284668 0.563209 -0.369477 0.739104 
3384 2 -507.298 2027.58 -513.794 -0.699008 0.630617 -0.268753 0.203672 
3385 2 -500.456 2034.7 -513.407 -0.540009 0.201542 -0.648658 -0.497005 
3386 2 -495.132 2043.01 -513.642 0.204615 -0.449243 -0.529216 -0.690104 
3387 2 -491.516 2052.21 -513.82 0.62348 -0.753019 0.0595948 -0.201701 
3432 2 -485.308 2057.66 -378.583 0.0476792 -0.851939 0.476401 -0.212059 
3433 2 -481.995 2056.81 -387.897 0.219614 -0.272786 0.93667 0.00278842 
3366 2 -507.638 1951.61 -475.188 -0.586702 0.204534 -0.749468 0.22857 
3367 2 -498.092 1950.15 -477.892 -0.500456 -0.671273 -0.517138 -0.177497 
3369 2 -483.448 1938.2 -482.141 0.172819 -0.353191 0.62876 -0.670858 
3368 2 -490.486 1944.96 -481.46 -0.288034 -0.684295 0.262447 -0.616359 
3434 2 -478.926 2058.55 -397.114 0.0731869 0.61355 0.743378 0.256105 
3435 2 -474.463 2061.54 -405.418 -0.170126 0.894742 -0.00158785 0.412906 
3436 2 -467.528 2065.05 -411.538 -0.44187 0.538877 -0.713964 -0.0679558 
3437 2 -462.736 2071.04 -417.747 -0.290607 -0.263392 -0.833524 -0.389114 
3431 2 -491.881 2061.15 -372.163 -0.323246 -0.83595 -0.370584 -0.243655 
3430 2 -495.578 2064.63 -363.66 -0.23047 -0.334107 -0.903483 0.13775 
3438 2 -456.099 2076.43 -422.687 0.068973 -0.722834 -0.373636 -0.577191 
3398 3 -537.251 2102.22 -501.43 0.70184 0.403679 0.116454 0.575242 
3399 2 -588.607 2096.76 -495.302 0.00279498 -0.194747 0.0201985 -0.980642 
3400 2 -585.004 2096.74 -486.107 0.657123 -0.295265 0.233657 -0.653003 
3401 2 -578.433 2098.33 -478.96 0.937264 0.00884481 0.348221 0.0141468 
3402 2 -572.156 2098.18 -471.152 0.508496 0.339747 0.357856 0.705651 
3403 2 -563.685 2099.57 -466.234 -0.400103 0.516061 0.0269825 0.756882 
3404 2 -556.07 2104 -461.761 -0.716322 0.174459 -0.503379 0.450617 
3405 2 -547.232 2102.16 -457.787 -0.708162 -0.329473 -0.50619 -0.365685 
3406 2 -537.874 2101.73 -454.484 -0.204503 -0.40431 -0.0946193 -0.88643 
3407 2 -530.284 2101.38 -448.036 0.621368 -0.423408 0.304579 -0.584687 
3408 2 -521.767 2103.05 -443.264 0.745265 -0.0164228 0.606932 0.275578 
3439 2 -449.121 2083.12 -424.927 0.49515 -0.79478 0.269587 -0.224663 
3409 2 -513.078 2106.54 -440.185 0.432086 0.394262 0.278338 0.761832 
3440 2 -443.091 2089.57 -429.579 0.54565 -0.240586 0.771914 0.220303 
3441 2 -435.985 2095.62 -432.723 0.328617 0.641979 0.481537 0.497992 
3442 2 -426.662 2096.62 -435.824 -0.209432 0.85826 -0.110475 0.455328 
3461 2 -446.926 2180.17 -505.06 0.0731317 0.683547 -0.710045 -0.152484 
3410 2 -504.812 2107.35 -434.895 -0.319671 0.494832 -0.164875 0.791055 
3443 2 -418.218 2098.8 -440.433 -0.680345 0.538594 -0.492505 0.0669824 
3444 2 -410.955 2105.5 -441.143 -0.384188 0.116058 -0.775672 -0.487097 
3448 2 -387.167 2135.72 -444.16 0.418086 0.248001 0.51197 0.708228 
3447 2 -394.604 2129.32 -445.687 0.79117 -0.297044 0.52293 0.11117 
3449 2 -379.51 2140.84 -440.602 -0.112078 0.297867 0.0691374 0.945481 
3446 2 -401.59 2122.18 -445.974 0.562638 -0.731792 0.0652286 -0.379029 
3445 2 -405.471 2113.44 -443.381 0.132551 -0.507689 -0.60417 -0.599717 
3419 2 -440.231 2119.52 -380.562 -0.759834 -0.0321564 -0.310129 -0.570471 
3418 2 -446.21 2115.67 -387.423 -0.813315 0.350252 -0.213208 0.412776 
3417 2 -453.608 2112.05 -392.793 -0.140924 0.470578 0.0934077 0.866009 
3460 2 -445.585 2179.51 -495.241 -0.0757264 0.956366 0.281678 -0.0169325 
3459 2 -444.982 2179.91 -485.376 0.0177426 0.361284 0.931992 -0.0234575 
3416 2 -460.489 2107.17 -398.099 0.595375 0.135067 0.446499 0.654159 
3415 2 -465.11 2106.27 -406.855 0.95185 -0.0777247 0.268197 -0.126531 
3451 1 -414.254 2164.11 -420.455 0.1268 0.658616 -0.741349 -0.0234126 
3452 3 -419.858 2154.57 -453.533 0.140911 0.626543 -0.765568 0.0386408 
3414 2 -470.79 2106.13 -414.995 0.440194 -0.281102 0.100934 -0.846772 
3413 2 -479.227 2107.17 -420.193 -0.331401 -0.469812 -0.115947 -0.809942 
3412 2 -487.063 2107.72 -426.198 -0.800977 -0.209034 -0.368761 -0.422795 
3411 2 -495.956 2107.76 -430.544 -0.786685 0.228365 -0.491954 0.294887 
3458 2 -444.22 2181.81 -475.675 -0.072579 -0.487987 0.866357 -0.0776275 
3457 2 -444.046 2184.02 -466.134 -0.118738 -0.985512 0.116929 -0.0315517 
3456 2 -447.47 2184.4 -456.799 -0.113074 -0.727287 -0.662586 -0.138741 
3455 2 -450.884 2182.59 -447.735 -0.168953 -0.115808 -0.974641 -0.090102 
3453 2 -457.37 2181.02 -429.205 -0.0790983 0.962768 -0.0234478 0.257433 
3454 2 -453.275 2182.32 -438.14 -0.0849468 0.657923 -0.745932 0.0592173 
3420 2 -435.078 2122.17 -372.512 0.0487445 -0.0719628 -0.180509 -0.979725 
3450 2 -373.984 2142.65 -432.469 -0.863701 0.234091 -0.227667 0.383914 
3421 2 -433.496 2125.37 -363.194 0.923535 -0.150755 -0.158395 -0.315067 
3425 3 -474.301 2102.33 -364.223 -0.285161 -0.907378 0.270202 -0.149465 
3532 1 -557.89 2271.89 -511.331 -0.45254 0.581284 0.603125 0.305871 
3528 2 -610.929 2300.43 -509.872 0.779742 0.425415 0.344045 -0.304396 
3529 2 -608.104 2291.7 -506.435 0.709539 0.452108 -0.0884034 0.533233 
3530 2 -605.118 2284.05 -500.952 0.0753218 0.190548 -0.377925 0.902879 
3531 2 -601.874 2276.75 -494.961 -0.70327 -0.176318 -0.363849 0.584753 
3673 2 -414.963 2378.71 -513.611 0.902803 -0.151421 0.296549 -0.272171 
3614 3 -399.746 2379.99 -376.81 0.0862198 0.718285 0.688601 0.0496073 
3674 2 -408.716 2379.79 -506.049 0.806941 -0.0192763 0.265819 0.527082 
3618 2 -353.951 2373.48 -378.966 0.239678 0.329339 0.912255 -0.0433643 
3619 2 -349.292 2372.12 -387.612 0.165103 0.955582 0.203625 0.134685 
3617 2 -357.236 2371.14 -370.045 0.196259 -0.562722 0.802676 0.0231768 
3642 2 -233.76 2364.16 -496.891 -0.455913 0.724401 0.45383 -0.247839 
3643 2 -240.992 2368.95 -501.824 -0.157673 0.812771 -0.205588 -0.521801 
3644 2 -248.307 2373.82 -506.251 0.132074 0.271298 -0.82557 -0.476852 
3620 2 -346.246 2369.64 -396.61 -0.363048 0.65502 -0.649495 0.131536 
3621 2 -339.791 2372.43 -403.57 -0.199216 -0.163532 -0.942035 -0.214802 
3622 2 -336.035 2375.2 -412.352 0.106763 -0.86042 -0.372504 -0.330939 
3645 2 -252.598 2381.05 -511.298 0.368022 -0.535462 -0.741305 -0.168248 
3623 2 -331.545 2379.7 -420.101 0.516085 -0.753359 0.407452 -0.00945479 
3548 2 -583.962 2397.35 -511.706 0.441729 -0.773633 0.0243711 0.453623 
3549 2 -590.448 2404.69 -513.442 -0.128428 -0.478292 0.564409 0.660443 
3550 2 -598.492 2410.57 -513.164 -0.725238 0.125376 0.638788 0.224189 
3551 2 -606.762 2415.53 -510.835 -0.702491 0.517017 0.192145 -0.449756 
3552 2 -614.058 2421.07 -506.879 -0.0497138 0.366928 -0.325574 -0.869996 
3553 2 -620.17 2427.42 -502.372 0.684682 -0.130423 -0.449524 -0.558684 
3554 2 -625.14 2434.2 -497.281 0.866939 -0.435589 -0.0563885 0.235586 
3555 2 -627.15 2442.34 -492.003 0.420795 -0.372378 0.40175 0.723093 
3556 2 -627.526 2451.42 -488.152 -0.211077 0.336486 0.470852 0.787732 
3557 2 -625.009 2460.48 -484.959 -0.779125 0.520275 0.0915325 0.33749 
3558 2 -622.716 2469.4 -481.171 -0.709583 0.365179 -0.408211 -0.443283 
3560 3 -587.899 2431.86 -472.556 -0.364377 -0.789694 -0.49353 0.00632655 
3567 2 -547.764 2410.96 -477.725 -0.382523 0.312119 -0.863936 0.0993586 
3566 2 -551.721 2408.41 -469.012 -0.168665 0.940826 -0.23112 0.181611 
3565 2 -554.716 2408.37 -459.653 0.138944 0.910392 0.365944 0.134036 
3559 1 -597.793 2451.5 -445.349 -0.317864 -0.824916 -0.461535 0.0739042 
3564 2 -556.332 2412.31 -450.645 0.176897 0.395003 0.88167 -0.187982 
3561 2 -569.659 2419.11 -425.714 -0.301827 -0.720169 -0.623925 -0.0312062 
3562 2 -565.058 2415.01 -433.361 -0.110699 -0.967958 0.0839154 -0.20919 
3563 2 -560.748 2412.49 -441.87 0.209311 -0.527665 0.81207 -0.135278 
3568 2 -540.275 2411.89 -484.054 -0.276011 -0.33342 -0.732331 -0.52568 
3569 2 -533.215 2417.71 -487.822 0.30838 -0.748534 -0.167923 -0.562495 
3570 2 -525.44 2423.83 -489.661 0.479294 -0.720785 0.453086 -0.213213 
3589 2 -516.019 2525.3 -487.217 0.392864 0.543116 -0.466984 0.576723 
3571 2 -518.327 2429.37 -493.78 0.505615 -0.192031 0.825284 0.16243 
3588 2 -519.316 2534.52 -485.507 0.616403 0.768572 0.154273 0.0744547 
3584 2 -433.66 2508.96 -510.541 0.470706 -0.675232 -0.457884 -0.335917 
3675 2 -404.876 2383.27 -497.646 -0.062551 0.00789276 0.339122 0.938627 
3590 2 -512.79 2516.02 -486.588 -0.347319 -0.14969 -0.698242 0.6078 
3591 2 -510.658 2506.3 -487.214 -0.682942 -0.703902 -0.185502 0.0608414 
3581 2 -442.202 2481.41 -509.472 -0.696464 0.684566 0.00653185 0.215091 
3580 2 -449.74 2475.19 -510.937 -0.158271 0.60538 0.291233 0.723636 
3579 2 -456.728 2468.77 -513.65 0.535965 0.0782279 0.605209 0.58339 
3576 2 -479.861 2451.04 -513.715 -0.168821 -0.550701 -0.552327 -0.60263 
3575 2 -487.608 2448.08 -508.327 -0.464829 0.0497862 -0.864796 -0.183259 
3582 2 -437.941 2490.38 -509.049 -0.663063 0.358237 -0.567021 -0.332417 
3583 2 -433.734 2499.38 -507.94 0.105111 -0.114625 -0.80831 -0.567845 
3592 2 -508.895 2496.6 -487.82 -0.602021 -0.471172 0.362757 -0.532894 
3593 2 -508.402 2487.28 -484.583 0.0248885 -0.0267766 0.426325 -0.903831 
3574 2 -496.803 2445.95 -505.371 -0.49775 0.555897 -0.571525 0.341441 
3573 2 -504.76 2441.14 -502.108 -0.202231 0.791859 0.126148 0.562271 
3572 2 -511.019 2434.75 -497.779 0.0913363 0.44202 0.741823 0.495958 
3594 2 -507.307 2479.3 -478.917 0.787926 0.235238 0.345204 -0.452405 
3608 2 -458.138 2399.66 -387.528 0.926858 0.142424 0.237351 0.253601 
3595 2 -505.095 2472.12 -472.331 0.722368 0.434661 0.152927 0.515624 
3676 2 -404.18 2389.34 -489.822 -0.686 0.199662 0.123051 0.688765 
3677 2 -403.543 2394.33 -481.324 -0.844824 0.470223 0.0191428 -0.254552 
3587 3 -479.857 2502.54 -496.508 -0.722523 -0.494159 0.337491 -0.346218 
3596 2 -499.186 2466.99 -466.353 0.0278173 0.348668 -0.384098 0.854474 
3597 2 -493.773 2459.81 -462.131 -0.63933 -0.308511 -0.242409 0.661299 
3598 2 -493.845 2453.33 -454.737 -0.834687 -0.503912 0.0198435 -0.221307 
3599 2 -492.765 2445.42 -448.716 -0.483307 -0.258586 0.392957 -0.738331 
3600 2 -492.819 2437.53 -442.896 0.416269 -0.0621478 0.437157 -0.794828 
3601 2 -488.722 2430.59 -437.15 0.86685 0.393191 0.29126 -0.0956021 
3602 2 -484.894 2423.54 -431.448 0.585067 0.453835 0.0391022 0.670971 
3603 2 -478.867 2418.16 -425.756 -0.315754 0.134043 -0.360984 0.867192 
3604 2 -474.555 2412.48 -418.877 -0.849543 -0.316767 -0.295457 0.301068 
3605 2 -471.637 2405.11 -412.944 -0.634399 -0.285337 -0.0420377 -0.717185 
3606 2 -466.919 2401.36 -405.111 0.226246 -0.146342 0.136354 -0.953312 
3607 2 -462.717 2399.3 -396.34 0.897723 -0.05254 0.210831 -0.383254 
3695 3 -381.743 2506.09 -425.626 0.434707 -0.266271 -0.83631 0.201779 
3609 2 -452.598 2398.27 -379.501 0.395845 0.225079 0.0845644 0.886282 
3687 2 -419.411 2466.28 -420.886 0.921059 -0.0580604 0.253954 0.28946 
3686 2 -421.757 2460.51 -428.513 0.806406 -0.311413 -0.0189078 -0.502369 
3685 2 -420.978 2454.52 -436.247 0.283544 0.000117909 -0.353975 -0.891238 
3682 2 -414.304 2434.9 -457.05 -0.508002 0.105968 0.381243 0.765087 
3683 2 -416.506 2442.38 -451.04 -0.917096 0.347004 0.155377 0.119917 
3684 2 -418.53 2449.13 -444.238 -0.605857 0.301395 -0.118728 -0.726637 
3688 2 -415.22 2469.46 -412.347 0.195541 0.285624 0.259289 0.901639 
3689 2 -408.138 2472.32 -406.101 -0.682658 0.353598 -0.12696 0.626759 