ITEM: TIMESTEP
100000000
ITEM: NUMBER OF ATOMS
4067
ITEM: BOX BOUNDS pp pp pp
-4.6310929470000001e+03 4.6704658980000004e+03
-4.6310929470000001e+03 4.6704658980000004e+03
-4.6310929470000001e+03 4.6704658980000004e+03
ITEM: ATOMS id type x y z c_q[1] c_q[2] c_q[3] c_q[4] 
4067 2 -924.503 3044.2 -927.647 -0.0361684 -0.758139 0.594903 0.26459 
4066 2 -920.563 3041.31 -919.005 0.163764 -0.961811 -0.127634 0.178356 
4065 2 -918.093 3040.6 -909.405 0.128584 -0.620465 -0.769291 0.0817351 
4064 2 -913.874 3038.41 -900.779 0.206205 0.0839151 -0.964279 -0.143543 
4063 2 -906.924 3036.48 -893.915 0.108428 0.790161 -0.455851 -0.395081 
4062 2 -899.102 3035.25 -887.742 -0.238282 0.807684 0.395383 -0.366797 
4061 2 -893.73 3035.76 -879.56 -0.257327 0.207329 0.937669 -0.107587 
4060 2 -887.507 3035.58 -871.906 -0.29221 -0.514409 0.789557 0.163083 
4059 2 -879.824 3035.81 -865.591 -0.0605883 -0.899844 0.0492714 0.429165 
4058 2 -873.924 3039.26 -858.322 0.205293 -0.475297 -0.801112 0.300278 
4057 2 -866.186 3042.58 -853.124 0.464496 0.384744 -0.796135 -0.0488376 
4056 2 -858.695 3048.03 -849.696 0.415589 0.779115 -0.115731 -0.454831 
4055 2 -849.489 3051.27 -847.607 -0.157398 0.655046 0.483841 -0.558603 
4054 2 -840.285 3054.17 -845.357 -0.565634 0.0742552 0.779959 -0.25731 
4053 2 -832.141 3059.18 -842.504 -0.617497 -0.532441 0.556374 0.160164 
4052 2 -826.237 3065.35 -837.535 -0.275758 -0.843428 -0.187687 0.421142 
4051 2 -821.66 3070.82 -830.663 0.145845 -0.241634 -0.878904 0.384538 
4048 2 -797.956 3086.21 -822.157 -0.0523915 0.520582 0.506589 -0.685286 
4047 2 -789.575 3091.3 -823.286 -0.663615 -0.0816498 0.680869 -0.298941 
4049 2 -805.77 3080.17 -823.527 0.418887 0.787064 -0.122651 -0.435913 
4050 2 -813.729 3075.31 -826.608 0.542204 0.39707 -0.739603 0.0365895 
3424 1 -394.448 2058.84 -708.362 -0.103435 0.510699 -0.365776 -0.771165 
3429 2 -437.947 2055.25 -672.053 0.0711101 -0.612999 0.389476 0.683728 
3431 2 -450.007 2070.33 -674.415 -0.558021 0.53088 0.619137 0.153126 
3428 2 -429.681 2049.56 -671.91 0.583825 -0.648868 -0.199283 0.445426 
3427 2 -420.388 2046.62 -670.016 0.682543 -0.187593 -0.701663 -0.0813263 
3426 2 -412.615 2040.57 -668.942 0.250512 0.327007 -0.676443 -0.610521 
3432 2 -455.221 2077.92 -678.002 -0.600268 0.718078 0.114415 -0.333094 
3430 2 -445.157 2061.87 -672.002 -0.283195 -0.10225 0.762205 0.573052 
3450 2 -576.792 2179.22 -671.16 0.226157 -0.933088 -0.0744782 0.269541 
3425 3 -417.879 2082.87 -698.359 -0.13971 0.480509 -0.364953 -0.785113 
3423 2 -391.094 2091.83 -741.98 -0.0661157 -0.47979 0.789404 -0.37719 
3422 2 -393.443 2097.85 -734.547 -0.338926 -0.924682 0.0800157 -0.153914 
3421 2 -392.849 2104.18 -726.817 -0.21871 -0.665139 -0.662302 0.266669 
3420 2 -388.646 2109.7 -719.881 0.191768 0.0051693 -0.921145 0.33866 
3419 2 -383.259 2111.99 -711.907 0.273548 0.704097 -0.654186 -0.0381934 
3416 2 -372.103 2121.02 -685.923 -0.248969 -0.505768 0.825616 -0.0238961 
3418 2 -380.023 2114.69 -702.997 0.0856508 0.936578 0.228023 -0.251973 
3417 2 -376.129 2118 -694.548 -0.180317 0.305383 0.909941 -0.215023 
3433 2 -461.477 2085.62 -678.572 -0.137276 0.471822 -0.46808 -0.734466 
3434 2 -466.653 2094.11 -678.066 0.453126 0.126427 -0.660284 -0.585421 
3435 2 -474.253 2100.23 -676.851 0.824045 -0.339248 -0.418037 0.176366 
3437 2 -492.27 2106.52 -671.845 -0.48855 -0.443817 0.358883 0.659961 
3436 2 -482.836 2104.13 -674.11 0.261013 -0.676391 -0.0595792 0.686162 
3438 2 -501.714 2106.87 -668.893 -0.779356 9.75552e-05 0.611214 0.137917 
3415 2 -370.527 2124.44 -676.788 -0.198434 -0.968213 0.141013 0.0574764 
3414 2 -370.962 2127.49 -667.438 -0.122778 -0.680773 -0.70228 0.168157 
3914 2 -705.082 2839.64 -712.418 -0.100478 0.405585 -0.0191697 0.908316 
3915 2 -697.441 2840.23 -706.13 -0.790102 0.250712 -0.269576 0.490113 
3913 2 -712.104 2840.42 -719.218 0.656827 0.294679 0.292533 0.629418 
3937 1 -506.723 2840.4 -671.612 0.59804 -0.518446 -0.588201 -0.166076 
3916 2 -690.229 2841.06 -699.361 -0.780474 -0.0913072 -0.572463 -0.234114 
3912 2 -718.903 2842.2 -726.235 0.885161 -0.0431648 0.376722 -0.269644 
3917 2 -680.881 2843.1 -696.477 -0.147032 -0.425999 -0.328025 -0.830245 
3918 2 -672.564 2846.67 -692.502 0.638585 -0.570042 0.136928 -0.49851 
3910 1 -739.351 2880.77 -708.33 -0.110738 0.574371 -0.00749431 0.811036 
3909 2 -740.271 2919.07 -680.782 -0.318549 -0.633075 0.518319 0.478631 
3907 2 -721.239 2920.16 -676.444 0.605488 -0.125406 -0.733221 0.282922 
3908 2 -730.994 2917.95 -677.549 0.225552 -0.792565 -0.206412 0.527599 
3906 2 -712.554 2924.72 -674.772 0.620911 0.4519 -0.630753 -0.111385 
3911 3 -706.183 2883.69 -697.659 -0.142728 0.583793 -0.0576931 0.797174 
3988 2 -750.433 2984.54 -676.125 -0.471432 -0.160862 0.302777 -0.812528 
3989 2 -750.708 2978.05 -668.658 0.387922 0.359019 0.262399 -0.807322 
3987 2 -753.408 2992.9 -680.591 -0.86802 -0.476813 -0.137575 -0.0162435 
3905 2 -704.863 2927.77 -669.251 0.218154 0.855462 -0.0474019 -0.467275 
3919 2 -664.859 2851.6 -688.809 0.75729 -0.234445 0.598418 0.115945 
3920 2 -655.921 2855.83 -687.649 0.355077 0.348636 0.52962 0.686932 
3923 2 -633.669 2872.63 -678.866 -0.675801 0.0999731 -0.519766 -0.512974 
3922 2 -638.941 2865.48 -683.377 -0.858896 0.459048 -0.184183 0.132852 
3921 2 -647.397 2860.7 -685.74 -0.335459 0.614536 0.0886931 0.708482 
3938 3 -524.909 2869.57 -678.779 0.596604 -0.521224 -0.585808 -0.17093 
3947 2 -527.916 2921.24 -700.459 0.047686 -0.411371 0.644714 0.642529 
3948 2 -531.608 2930.31 -702.435 -0.620008 0.283484 0.510854 0.523694 
3949 2 -535.326 2939.02 -699.272 -0.898954 0.427314 0.0419248 -0.0867633 
3951 2 -541.07 2954.87 -690.079 0.395478 -0.0198464 -0.620736 -0.676676 
3950 2 -537.482 2946.12 -692.694 -0.319393 0.453123 -0.416787 -0.720386 
3952 2 -545.078 2963.7 -688.078 0.814436 -0.486129 -0.316365 0.0169127 
3953 2 -550.685 2970.89 -684.203 0.575654 -0.602669 0.0497557 0.550397 
3954 2 -556.901 2978.32 -682.346 0.0200379 -0.417224 0.464598 0.780814 
3955 2 -562.881 2986.02 -680.27 -0.55925 0.0634115 0.674761 0.477406 
3956 2 -569.939 2992.68 -678.803 -0.63485 0.677003 0.353377 -0.117286 
3946 2 -523.252 2912.57 -700.362 0.626315 -0.698827 -0.0322313 0.343992 
3945 2 -517.817 2904.99 -703.65 0.789338 -0.342722 -0.446995 -0.244302 
3924 2 -627.677 2878.81 -674.009 0.0384935 -0.415489 -0.283449 -0.863449 
3925 2 -621.057 2884.12 -669.036 0.770501 -0.412397 0.306044 -0.377617 
3944 2 -510.908 2899.43 -708.191 0.391042 0.275501 -0.416275 -0.77324 
3943 2 -503.954 2892.51 -708.903 -0.287029 0.64571 -0.250962 -0.661582 
3942 2 -497.482 2885.14 -708.476 -0.67436 0.611778 0.365683 -0.192983 
3941 2 -491.852 2877.03 -708.374 -0.545407 0.178543 0.656873 0.489051 
3940 2 -487.311 2868.64 -705.7 -0.0401864 -0.367694 0.714164 0.594269 
3939 2 -481.196 2860.9 -705.555 0.426368 -0.715573 0.161552 0.529213 
4026 2 -842.692 3128.99 -757.279 -0.805266 -0.381213 -0.422009 0.167724 
4027 2 -837.927 3121.31 -753.223 -0.757224 -0.57068 0.105624 -0.299631 
4028 2 -837.482 3112.02 -750.173 -0.348011 -0.0900025 0.523768 -0.772305 
4029 2 -838.862 3103.29 -745.725 0.385216 0.425717 0.376375 -0.727128 
4030 2 -841.626 3094.25 -742.965 0.669732 0.731399 -0.128357 -0.00626138 
4031 2 -842.663 3084.56 -743.999 0.311387 0.274787 -0.579152 0.701508 
4032 2 -842.673 3074.92 -742.109 -0.402012 -0.202176 -0.658725 0.602986 
4033 2 -839.809 3065.44 -741.427 -0.686926 -0.630523 -0.359926 -0.0320455 
4034 2 -835.172 3056.8 -741.093 -0.391884 -0.66963 0.14442 -0.614138 
4035 2 -828.417 3049.4 -740.551 0.101481 -0.296194 0.758491 -0.571544 
4025 2 -846.749 3135.86 -763.081 -0.405105 -0.00297696 -0.421985 0.811055 
4024 2 -849.248 3145.12 -765.646 0.286801 0.346391 -0.512466 0.731531 
4036 2 -823.355 3041.36 -743.315 0.587279 0.421228 0.67781 -0.135071 
4037 2 -816.503 3034.93 -746.12 0.462957 0.81833 0.0239311 0.339756 
3986 2 -756.223 3002.01 -683.508 -0.458806 -0.167949 -0.533729 0.690235 
3985 2 -754.272 3010.53 -688.192 0.278626 0.0291776 -0.524082 0.804273 
4038 2 -810.018 3028.38 -749.7 0.101311 0.508758 -0.719529 0.461714 
4039 2 -806.119 3020.46 -754.23 -0.510143 -0.00203516 -0.855857 0.0852013 
4040 2 -797.707 3018.75 -758.935 -0.297444 -0.686331 -0.437503 -0.499067 
3984 2 -752.19 3019.79 -690.224 0.716035 0.550133 -0.363511 0.229145 
3983 2 -746.861 3027.91 -691.828 0.572812 0.604925 0.0985653 -0.544277 
3982 2 -740.6 3035.32 -694.015 -0.221092 0.295411 0.570388 -0.733831 
3981 2 -734.27 3042.24 -697.39 -0.734462 -0.183327 0.545267 -0.360056 
3980 2 -725.277 3044.84 -700.722 -0.668691 -0.427683 0.392764 0.46441 
3977 2 -700.437 3052.75 -714.166 0.885526 0.136283 -0.443969 0.0127632 
3976 2 -692.13 3052.76 -719.603 0.495497 0.419425 -0.2322 -0.724326 
3975 2 -685.925 3050.2 -726.891 -0.347612 0.346773 -0.0387948 -0.870293 
3978 2 -707.837 3049.27 -708.723 0.610376 -0.318059 -0.364674 0.62713 
3979 2 -716.306 3047.96 -703.742 0.0210753 -0.564964 -0.188473 0.803025 
4044 2 -760.708 3022.1 -770.113 0.154978 0.680748 0.277728 0.659872 
4043 2 -770.513 3020.92 -769.747 0.598286 0.28273 0.658441 0.358571 
4042 2 -779.957 3020.36 -766.865 0.566399 -0.343281 0.733739 -0.151583 
4041 2 -788.387 3018.65 -762.345 0.194837 -0.84941 0.169697 -0.460156 
4046 3 -795.876 3044.77 -800.858 0.635757 0.111303 -0.724735 0.241214 
4045 1 -765.069 3060.82 -796.827 0.617654 0.0641594 -0.723257 0.302138 
4008 2 -769.053 3119.48 -701.085 0.177369 -0.539468 0.610743 0.551822 
4007 2 -768.209 3112.48 -694.098 0.359983 -0.910395 0.193718 0.0637728 
3974 2 -679.914 3045.74 -733.328 -0.879003 0.329504 0.217863 -0.267051 
4006 2 -764.675 3105.93 -687.675 0.386727 -0.763036 -0.517883 -0.0039134 
4009 2 -772.318 3128.05 -704.655 -0.285802 0.324384 0.758919 0.486965 
4005 2 -763.893 3099.8 -680.018 0.0967031 -0.191987 -0.924494 -0.314802 
4004 2 -762.406 3093 -672.854 -0.148122 0.570016 -0.722294 -0.362538 
3973 2 -672.538 3039.52 -735.597 -0.643717 0.0684259 0.633415 0.423949 
4003 2 -758.228 3085.9 -667.324 -0.459755 0.853491 0.180729 -0.16588 
4010 2 -774.281 3137.07 -708.668 -0.513891 0.805786 0.261348 0.135362 
3972 2 -666.836 3032.21 -739.171 -0.160913 -0.25779 0.488969 0.817655 
3971 2 -662.666 3025.43 -745.159 0.604857 -0.375752 0.117036 0.692287 
3967 2 -634.136 3003.36 -760.117 -0.692116 0.552051 0.133329 -0.445465 
3968 2 -640.824 3009.22 -755.531 -0.102465 0.438021 -0.24801 -0.85798 
3966 2 -625.976 2999.93 -764.533 -0.840678 0.144665 0.502196 0.141887 
3969 2 -647.931 3013.89 -750.545 0.575148 0.124746 -0.58199 -0.561186 
3970 2 -656.308 3018.33 -747.978 0.767753 -0.497024 -0.402997 0.0334006 
3957 2 -575.873 3000.66 -679.262 -0.32351 0.622224 -0.450214 -0.552708 
3959 2 -585.02 3016.84 -685.541 0.493834 -0.684536 -0.491638 -0.21408 
3965 3 -618.273 3018.43 -716.671 -0.515396 0.130587 0.336085 -0.777407 
3964 1 -596.581 3029.14 -741.908 -0.500475 0.196652 0.369495 -0.757843 
3963 2 -579.953 3050.81 -703.496 -0.490987 0.830104 0.102166 0.243764 
3962 2 -583.356 3042.6 -699.302 -0.171003 0.533925 0.666972 0.490745 
3960 2 -586.341 3026 -689.298 0.507596 -0.752341 0.366682 0.20463 
3961 2 -585.056 3034.88 -693.448 0.173621 -0.23721 0.852659 0.431926 
3958 2 -580.615 3009.01 -681.239 0.216746 0.0522274 -0.844112 -0.487615 
4023 2 -852.385 3154.39 -765.063 0.64852 0.71362 0.0702599 0.255405 
4022 2 -853.023 3163.46 -768.923 0.61689 0.421724 0.392565 -0.53618 
4021 2 -854.019 3173.3 -768.803 -0.000789589 -0.0820774 0.68922 -0.719887 
4020 2 -855.896 3183.05 -768.169 -0.533994 -0.672811 0.317143 -0.40199 
4019 3 -816.815 3175.02 -735.119 -0.745033 -0.18335 0.297386 -0.568216 
4011 2 -775.693 3146.09 -712.711 -0.356507 0.789828 -0.465306 -0.180455 
4012 2 -775.245 3153.89 -718.807 0.014334 0.0578984 -0.867759 -0.493393 
4013 2 -775.455 3162.42 -723.896 0.357595 -0.651588 -0.597308 -0.3013 
4014 2 -775.148 3170.52 -729.729 0.491816 -0.868043 -0.0581999 -0.0350907 
4015 2 -775.128 3178.72 -735.175 0.422511 -0.474418 0.639672 0.432703 
4016 2 -773.132 3188.03 -737.995 -0.000108831 0.230285 0.696515 0.679584 
4017 2 -769.997 3197.46 -738.913 -0.547949 0.704532 0.219049 0.394213 
4018 1 -811.003 3196.41 -762.292 -0.713153 -0.195851 0.318968 -0.592718 
3477 2 -687 2057.74 -586.884 -0.473646 -0.641371 -0.180085 0.576083 
3476 2 -681.035 2065.51 -588.079 0.0754591 -0.333998 -0.569754 0.747082 
3475 2 -675.51 2073.53 -589.978 0.655936 0.24588 -0.569921 0.429513 
3478 1 -660.897 2041.68 -550.938 0.0256388 0.264785 0.704792 0.657647 
3480 2 -627.334 2045.71 -518.108 0.611831 -0.611177 0.483729 0.134653 
3481 2 -623.372 2054.56 -520.221 0.349843 -0.20298 0.674306 0.617836 
3482 2 -620.97 2064.17 -520.154 -0.343135 0.459216 0.600612 0.557354 
3483 2 -619.399 2073.74 -521.602 -0.483032 0.849957 -0.128571 0.166499 
3479 3 -648.573 2074.16 -555.909 0.0674519 0.240602 0.706196 0.662457 
3474 2 -669.557 2081.18 -592.221 0.804054 0.507243 -0.231549 -0.206367 
3531 2 -681.864 2196.61 -526.097 0.310418 0.746182 -0.458473 -0.369668 
3530 2 -673.468 2197.57 -521.069 -0.11389 0.819819 0.295743 -0.476931 
3440 2 -519.856 2111.91 -662.734 -0.033955 0.413036 -0.0786988 -0.906672 
3529 2 -663.78 2197.26 -519.652 -0.610425 0.238307 0.708095 -0.263044 
3449 2 -570.757 2175.14 -664.367 0.355595 -0.548321 -0.756867 0.00699374 
3473 2 -661.901 2086.82 -594.805 0.165053 0.564779 0.278356 -0.759144 
3442 2 -535.246 2119.53 -655.641 0.773003 -0.434386 -0.453549 -0.0898227 
3441 2 -527.761 2113.08 -656.942 0.457149 0.163325 -0.653558 -0.580691 
3472 2 -654.595 2093.61 -595.483 -0.561665 -0.0574628 0.666706 -0.486552 
3448 2 -566.674 2168.44 -658.262 0.110189 0.25666 -0.856195 -0.434643 
3447 2 -561.799 2159.99 -656.602 -0.323261 0.628713 -0.396907 -0.585395 
3471 2 -647.76 2100.51 -597.351 -0.745839 -0.510153 0.418729 0.0901898 
3446 2 -557.691 2151.19 -654.916 -0.633948 0.719329 0.278728 -0.0546535 
3445 2 -552.836 2142.81 -653.004 -0.470395 0.217209 0.752195 0.407127 
3444 2 -548.163 2134.21 -652.12 0.0837541 -0.421106 0.578623 0.693434 
3443 2 -541.503 2127.13 -653.916 0.566482 -0.63003 0.0134227 0.531018 
3470 2 -643.627 2109.38 -599 -0.566162 -0.672158 -0.16186 0.448848 
3484 2 -615.024 2081.79 -525.966 -0.456259 0.398734 -0.780716 -0.152713 
3469 2 -639.267 2118.03 -600.723 0.0418883 -0.26576 -0.597878 0.755089 
3485 2 -608.975 2087.87 -530.919 -0.163637 -0.361025 -0.78524 -0.475691 
3486 2 -602.839 2093.89 -535.797 0.180611 -0.801585 -0.15877 -0.547388 
3487 2 -595.018 2098.88 -539.277 0.493534 -0.796412 0.349384 -0.00910254 
3488 2 -590.712 2106.16 -544.505 0.389342 -0.136445 0.894394 0.172784 
3489 2 -585.238 2111.09 -551.152 0.0904051 0.364869 0.760004 0.53018 
3490 2 -580.056 2118.35 -555.258 -0.285687 0.702016 0.198286 0.621481 
3491 2 -572.658 2125.09 -555.589 -0.652494 0.484768 -0.446874 0.37357 
3492 2 -563.322 2128.26 -554.215 -0.668593 0.0644211 -0.54348 -0.503451 
3493 2 -556.512 2134.48 -550.271 0.0101128 -0.525835 -0.343835 -0.777928 
3495 2 -541.267 2144.34 -542.433 0.938438 -0.127449 0.312924 0.0718958 
3494 2 -548.435 2139.62 -547.413 0.653123 -0.430429 0.184263 -0.595155 
3496 2 -534.745 2147.81 -535.913 0.492334 0.304347 0.25387 0.774938 
3463 2 -613.581 2167.97 -592.056 -0.286449 -0.803237 -0.24669 0.460327 
3462 2 -608.495 2175.69 -588.598 0.074326 -0.347602 -0.748838 0.559366 
3461 2 -604.28 2183.86 -584.812 0.408912 0.381431 -0.724493 0.403002 
3460 2 -600.063 2192.83 -584.78 0.663491 0.706015 -0.198707 -0.147775 
3459 2 -596.251 2201.89 -585.145 0.272822 0.520708 0.468127 -0.659764 
3464 2 -619.256 2160.8 -595.605 -0.511611 -0.762116 0.383917 -0.100209 
3465 2 -622.571 2152.39 -599.477 -0.209568 -0.0996787 0.833822 -0.500885 
3468 2 -633.509 2126.06 -601.368 0.626758 0.258663 -0.650734 0.34178 
3467 2 -628.163 2134.28 -602.403 0.635937 0.656933 -0.0541726 -0.401357 
3466 2 -624.486 2143.38 -602.999 0.11411 0.405654 0.56869 -0.706411 
3458 2 -590.984 2210.29 -585.098 -0.352875 0.0775595 0.725244 -0.586075 
3514 2 -530.779 2215.7 -550.779 -0.66038 -0.279687 0.623603 0.311115 
3515 2 -540.772 2215.84 -550.618 -0.656452 0.280198 0.489283 -0.50116 
3452 3 -562.973 2199.72 -625.445 0.924131 0.309243 0.223389 -0.0211706 
3457 2 -584.32 2217.29 -586.538 -0.763005 -0.409468 0.492992 -0.0843722 
3517 2 -558.868 2212.97 -543.438 0.671102 0.419876 -0.405462 -0.457086 
3497 2 -527.91 2149.33 -528.866 -0.197154 0.334101 -0.306989 0.86906 
3518 2 -568.322 2211.88 -540.921 0.727442 0.0791501 -0.608997 0.306081 
3519 2 -576.477 2207.14 -538.207 0.350197 -0.484106 -0.368758 0.712054 
3516 2 -549.555 2213.89 -546.38 -0.00148634 0.622765 0.0924546 -0.776926 
3456 2 -579.501 2225.12 -590.405 -0.617021 -0.556422 -0.0466099 0.554533 
3520 2 -585.62 2204.96 -535.085 -0.452444 -0.55039 0.183782 0.677193 
3521 2 -594.726 2202.91 -531.905 -0.913365 -0.250924 0.319458 -0.0273601 
3522 2 -600.274 2198.54 -524.832 -0.529766 0.278918 0.47087 -0.647946 
3523 2 -608.917 2195.43 -521.225 0.0976087 0.513921 0.0910006 -0.847394 
3451 1 -581.861 2219.66 -647.295 0.903405 0.302951 0.289311 -0.0915362 
3513 2 -520.91 2216.36 -550.71 -0.137969 -0.664929 0.16539 0.715178 
3498 2 -521.053 2145.91 -522.64 -0.70927 -0.0458853 -0.575565 0.40442 
3524 2 -617.785 2193.03 -517.414 0.610018 0.308253 -0.429277 -0.590406 
3528 2 -654.184 2197.13 -517.72 -0.568855 -0.347271 0.673165 0.320401 
3439 2 -510.924 2109.57 -666.244 -0.6156 0.452512 0.281552 -0.580516 
3372 2 -481.773 2088.78 -595.89 0.0182711 0.455914 0.60054 0.656628 
3373 2 -475.072 2096.08 -596.149 -0.510463 0.754182 0.0322378 0.411823 
3370 1 -495.756 2087.66 -550.769 0.566902 -0.66792 0.0707073 -0.476975 
3374 2 -468.729 2103.49 -597.195 -0.756596 0.312979 -0.560231 -0.125487 
3499 2 -513.895 2140.67 -518.394 -0.639407 -0.541096 -0.505007 -0.208187 
3413 2 -376.935 2132.93 -661.514 -0.201293 0.317192 -0.828342 0.415596 
3412 2 -384.048 2138.35 -657.187 0.166655 0.766849 -0.318318 0.53183 
3512 2 -511.102 2216.89 -549.594 0.37312 -0.605629 -0.455109 0.535603 
3411 2 -389.221 2145.48 -652.622 0.537938 0.776316 0.314639 0.0946551 
3511 2 -501.974 2218.56 -546.174 0.580992 0.0206491 -0.810498 0.0715112 
3510 2 -492.233 2220.72 -545.447 0.477975 0.587762 -0.483129 -0.438934 
3375 2 -460.988 2109.49 -595.237 -0.436837 -0.401134 -0.55743 -0.58098 
3376 2 -451.328 2111.81 -594.289 0.151729 -0.393236 -0.0141536 -0.906721 
3371 3 -471.781 2113.08 -551.045 0.526662 -0.719148 0.117857 -0.437678 
3377 2 -444.679 2114.15 -587.293 0.672075 -0.202181 0.381416 -0.601631 
3378 2 -437.004 2111.76 -581.549 0.918336 0.0339253 0.382287 0.0967689 
3509 2 -482.727 2223.18 -544.156 0.0318644 0.716803 0.164658 -0.676805 
3506 3 -490.511 2180.74 -524.074 -0.66954 0.0129578 0.74213 0.0281473 
3508 2 -472.944 2222.93 -541.86 -0.522633 0.454285 0.62659 -0.357582 
3507 2 -463.203 2221.33 -541.361 -0.620683 -0.211427 0.692191 0.301536 
3379 2 -430.139 2112.24 -574.396 0.500533 0.349657 0.27454 0.742856 
3505 1 -455.577 2179.2 -521.642 -0.685381 0.0552649 0.725892 0.016707 
3407 2 -408.144 2176.13 -639.646 -0.533871 -0.588984 -0.596629 0.110056 
3406 2 -411.9 2184.9 -637.032 -0.168966 -0.00969758 -0.801796 0.573131 
3405 2 -413.603 2194.6 -638.561 0.542266 0.552268 -0.360702 0.520425 
3404 2 -415.133 2204.41 -638.486 0.717622 0.670275 0.179305 -0.0600062 
3403 2 -416.128 2213.98 -641.106 0.424588 0.266568 0.579543 -0.642492 
3402 2 -418.969 2223.31 -642.732 -0.197879 -0.275515 0.527582 -0.778841 
3392 2 -419.151 2213.73 -553.797 0.26181 -0.69536 0.251794 0.620105 
3391 2 -416.151 2204.76 -556.726 0.806716 -0.566361 -0.153986 0.0687947 
3393 2 -425.421 2221.1 -555.778 -0.299339 -0.185964 0.700579 0.620486 
3390 2 -414.928 2194.94 -556.534 0.330136 -0.306471 -0.648276 -0.613859 
3389 2 -413.405 2185.21 -556.55 -0.240316 0.397678 -0.609409 -0.642433 
3380 2 -422.033 2112.49 -568.422 -0.399007 0.45826 -0.0905578 0.789044 
3381 2 -414.875 2114.25 -561.799 -0.902941 0.331321 -0.268854 0.0513954 
3388 2 -410.416 2175.73 -557.101 -0.70805 0.658262 0.0408529 -0.252363 
3382 2 -409.19 2120.11 -556.078 -0.45725 0.0760853 -0.639783 -0.613034 
3387 2 -407.623 2166.32 -555.305 -0.522012 0.431436 0.64404 0.355781 
3386 2 -404.064 2157.3 -553.226 -0.15999 -0.101557 0.763652 0.617191 
3383 2 -404.792 2128.73 -554.259 0.235512 -0.242589 -0.543875 -0.76804 
3385 2 -403.61 2147.95 -550.32 0.391552 -0.588517 0.568475 0.420917 
3384 2 -403.54 2138.29 -552.221 0.768523 -0.627712 -0.0396214 -0.117392 
3394 2 -432.187 2228.33 -555.97 -0.708164 0.404385 0.570875 0.0952792 
3398 3 -428.238 2223.14 -600.121 0.13488 -0.121496 0.661414 -0.72772 
3408 2 -403.339 2168.52 -643.712 -0.519633 -0.778678 0.197766 -0.290741 
3409 2 -400.903 2159.47 -646.552 -0.0213535 -0.420072 0.713932 -0.559809 
3410 2 -396.912 2151.43 -650.679 0.532565 0.146917 0.787142 -0.274221 
3500 2 -505.053 2136.24 -518.51 -0.134791 -0.639838 -0.11854 -0.747253 
3501 2 -495.16 2136.13 -517.228 0.537388 -0.522577 0.376057 -0.54471 
3502 2 -485.486 2137.09 -514.959 0.865704 0.0630913 0.480348 0.125864 
3455 2 -576.59 2233.69 -594.477 -0.0214832 -0.159893 -0.500806 0.850392 
3454 2 -577.802 2241.56 -600.333 0.575783 0.354213 -0.258042 0.690233 
3453 2 -577.722 2246.58 -608.868 0.968861 0.235006 -0.00294507 -0.0779235 
3587 3 -534.887 2358.01 -553.508 0.891567 0.10734 -0.127312 0.421163 
3586 1 -533.558 2370.33 -586.394 0.904729 0.145216 -0.119717 0.382159 
3589 2 -577.481 2374.38 -565.032 0.956135 0.0603277 -0.046743 0.28281 
3590 2 -578.129 2372.99 -555.357 0.424778 0.18867 0.0311222 0.884872 
3591 2 -574.022 2371.82 -546.453 -0.462264 0.238941 -0.0224165 0.853649 
3592 2 -569.642 2372.86 -537.587 -0.963669 0.127697 -0.21614 0.0912071 
3588 2 -578.84 2376.58 -574.544 0.780396 0.0430245 0.104005 -0.615072 
3593 2 -564.913 2375.31 -529.132 -0.640219 -0.179391 -0.194318 -0.721234 
3594 2 -559.609 2377.04 -521.099 0.100947 -0.356647 -0.164283 -0.914125 
3401 2 -422.036 2232.71 -644.073 -0.658432 -0.679696 0.0816333 -0.312756 
3395 2 -440.394 2233.64 -555.402 -0.420434 0.697162 -0.0770673 -0.575552 
3396 2 -447.96 2239.98 -555.144 0.217655 0.357261 -0.587725 -0.69251 
3400 2 -427.705 2240.63 -642.575 -0.589558 -0.376494 -0.664294 0.263415 
3399 2 -433.456 2248.02 -645.425 -0.211396 0.2365 -0.537705 0.781187 
3397 1 -444.524 2254.05 -600.039 0.114119 -0.20652 0.723226 -0.649053 
3585 2 -489.873 2354.13 -578.938 0.353467 -0.79052 0.495718 -0.0663523 
3584 2 -494.301 2349.79 -571.243 0.15571 -0.90425 -0.271013 -0.290926 
3583 2 -494.877 2346.78 -561.761 0.0694726 -0.36149 -0.925077 -0.0934415 
3582 2 -494.078 2341.46 -553.376 -0.133537 0.530617 -0.785195 -0.289969 
3581 2 -497.45 2335.19 -546.425 -0.337916 0.91675 -0.177643 0.117582 
3580 2 -501.204 2328.27 -540.54 -0.149612 0.634026 0.60589 0.456645 
3579 2 -505.887 2321.86 -534.632 0.329686 -0.106485 0.885687 0.309075 
3578 2 -506.992 2314.32 -528.484 0.39807 -0.845462 0.341765 0.0996557 
3577 2 -509.13 2306.63 -522.637 0.345998 -0.794884 -0.382878 -0.319137 
3576 2 -511.862 2298.91 -517.068 -0.0205867 -0.176698 -0.851333 -0.493544 
3750 2 -633.108 2639.33 -586.587 0.124667 0.135868 0.132037 0.973943 
3748 1 -621.439 2673.58 -616.769 0.45349 0.281909 0.265356 0.802783 
3749 3 -598.709 2677.88 -590.518 0.466602 0.26143 0.277953 0.797922 
3751 2 -629.818 2639.81 -577.281 -0.703613 0.193238 -0.211486 0.650278 
3752 2 -624.313 2639.21 -568.985 -0.883937 0.0550564 -0.37345 -0.27597 
3753 2 -617.535 2642.19 -562.318 -0.280003 -0.297927 -0.248474 -0.878122 
3754 2 -610.601 2644.53 -555.728 0.493375 -0.486027 0.234362 -0.682226 
3755 2 -601.831 2645.83 -551.557 0.882411 -0.0896014 0.461271 -0.023489 
3758 2 -581.122 2659.8 -540.6 -0.701528 0.528246 -0.454288 0.14979 
3756 2 -593.417 2647.02 -546.518 0.447628 0.19746 0.393862 0.778147 
3757 2 -586.912 2651.88 -540.799 -0.329109 0.619664 0.291708 0.650085 
3759 2 -573.611 2666.33 -540.841 -0.509129 0.127847 -0.689793 -0.498627 
3720 2 -537.582 2588.45 -533.834 -0.637019 -0.725711 -0.255902 0.0454476 
3739 2 -541.565 2680.75 -585.172 0.167158 0.283569 -0.850316 -0.410621 
3760 2 -568.324 2674.8 -540.749 0.321036 -0.259323 -0.673533 -0.613222 
3719 2 -540.528 2597.82 -532.929 -0.352597 -0.204266 -0.710508 0.573698 
3718 2 -542.049 2607.23 -530.327 0.140938 0.372227 -0.704487 0.587607 
3738 2 -535.236 2675.77 -579.082 -0.107508 0.8088 -0.403445 -0.414147 
3717 2 -543.199 2616.36 -526.809 0.540075 0.773787 -0.232899 0.235225 
3737 2 -528.408 2672.8 -572.682 -0.403917 0.78043 0.408114 -0.247432 
3761 2 -568.394 2684.63 -541.091 0.666683 -0.738349 -0.0904068 0.0469056 
3716 2 -541.917 2625.72 -523.942 0.397148 0.612279 0.493994 -0.472607 
3736 2 -523.312 2667.63 -565.899 -0.314782 0.260297 0.887936 0.211488 
3715 2 -540.584 2632.33 -516.668 -0.00440537 0.0646366 0.934048 -0.351222 
3735 2 -517.827 2661.91 -559.943 -0.0160019 -0.526172 0.722659 0.44794 
3740 2 -547.237 2686.4 -591.106 0.433095 -0.349581 -0.812086 -0.175321 
3734 2 -510.996 2657.63 -554.118 0.259883 -0.901441 -0.0133204 0.345959 
3733 2 -503.495 2655.09 -548.223 0.451895 -0.510358 -0.718078 0.140317 
3732 2 -495.663 2652.3 -542.868 0.429532 0.212348 -0.825124 -0.299302 
3731 2 -487.108 2651.83 -537.984 0.162489 0.845151 -0.265002 -0.434847 
3730 2 -480.073 2648.69 -531.646 -0.30033 0.824411 0.374063 -0.300375 
3729 2 -477.093 2643.07 -523.989 -0.225115 0.248879 0.915373 0.222429 
3728 2 -474.412 2639.19 -515.388 -0.0148181 -0.504043 0.831657 0.232523 
3777 2 -679.526 2690.92 -515.624 0.521692 0.479175 0.472119 0.524722 
3778 2 -669.73 2689.99 -514.516 -0.127713 0.611057 -0.114472 0.772784 
3775 1 -676.254 2722.81 -550.214 -0.515112 -0.512228 -0.326832 -0.604536 
3741 2 -552.352 2692.27 -597.168 0.194495 -0.946331 -0.164404 0.198997 
3762 2 -570.321 2694.28 -541.962 0.284633 -0.474932 0.651286 0.518894 
3742 2 -557.156 2695.96 -605.052 -0.123258 -0.628778 0.670174 0.374583 
3743 2 -562.647 2699.22 -612.681 -0.5238 -0.0389374 0.834856 0.164719 
3744 2 -571.329 2702.17 -616.446 -0.46714 0.608484 0.590373 -0.250971 
3745 2 -580.019 2704.64 -620.469 -0.0635366 0.900178 -0.136355 -0.408718 
3746 2 -587.496 2706.59 -626.842 0.309319 0.441616 -0.73041 -0.419283 
3747 2 -595.447 2710.1 -631.386 0.509556 -0.340072 -0.790268 0.0134312 
3831 2 -627.485 2792.87 -559.943 0.8259 -0.0475089 -0.0140362 0.561636 
3833 2 -626.616 2793.82 -540.204 -0.730082 0.0927259 0.0636245 0.674043 
3832 2 -627.757 2794.59 -550.048 0.0959074 0.0641198 -0.0303344 0.99286 
3774 2 -652.609 2751.45 -579.181 0.602892 -0.41644 -0.657386 0.175906 
3776 3 -643.095 2718.17 -540.475 -0.408815 -0.565043 -0.30762 -0.647277 
3835 2 -625.456 2800.6 -521.859 -0.55268 0.0897341 -0.195901 -0.805057 
3834 2 -626.249 2796.03 -530.547 -0.939702 0.206079 -0.111105 -0.249295 
3773 2 -643.559 2747.99 -577.346 0.522797 0.187218 -0.75069 -0.357907 
3772 2 -634.527 2746.47 -573.841 0.0493517 0.764128 -0.230138 -0.60059 
3771 2 -625.008 2744.57 -571.47 -0.406393 0.673765 0.444373 -0.428272 
3770 2 -616.412 2739.69 -570.738 -0.656922 0.17513 0.704768 0.202692 
3769 2 -608.548 2733.71 -570.912 -0.218719 -0.427375 0.587928 0.65104 
3768 2 -599.496 2729.73 -570.414 0.321079 -0.742659 -0.0447419 0.585973 
3767 2 -590.69 2728.35 -566.23 0.475957 -0.454024 -0.716204 0.233192 
3766 2 -583.963 2724.3 -560.132 0.232299 0.306338 -0.844892 -0.371956 
3765 2 -576.873 2720.01 -554.455 -0.093336 0.865939 -0.18949 -0.453355 
3764 2 -573.894 2712.4 -549.136 -0.430374 0.737208 0.511481 0.0984364 
3763 2 -571.692 2703.68 -544.845 -0.236541 0.22025 0.831044 0.452663 
3829 1 -645.802 2834.84 -571.39 0.0354949 0.24841 0.0528433 0.966561 
3818 2 -605.091 2825.25 -516.296 -0.476444 0.779221 0.0938706 -0.396237 
3817 2 -597.726 2818.82 -514.54 -0.625242 0.450279 0.62828 0.107638 
3819 2 -611.765 2832.15 -518.75 -0.0410218 0.55082 -0.528028 -0.64506 
3820 2 -618.339 2839.39 -519.726 0.541387 -0.110358 -0.72898 -0.404116 
3936 2 -545.762 2835.48 -645.56 -0.772109 -0.110295 -0.431846 0.45298 
3990 2 -754.572 2970.93 -662.929 0.857495 0.448556 -0.115577 -0.223925 
3904 2 -698.035 2931.18 -663.03 -0.188974 0.513762 0.74844 -0.3744 
3903 2 -692.549 2936.67 -656.987 -0.459553 -0.321126 0.818157 -0.127702 
3902 2 -689.472 2943.01 -650.078 -0.373569 -0.907991 0.133741 0.134583 
3901 2 -687.346 2948.96 -642.65 -0.14321 -0.650245 -0.685049 0.295601 
3900 2 -683.432 2954.88 -635.606 0.269908 0.163164 -0.90428 0.287757 
3899 2 -682.307 2961.01 -627.951 0.339969 0.764313 -0.530656 0.136567 
3898 2 -680.59 2965.88 -619.593 0.19681 0.893402 0.323186 -0.242176 
3897 2 -681.517 2970.11 -610.676 0.0467002 0.265866 0.937481 -0.219688 
3866 2 -693.529 2944.66 -565.569 -0.864491 0.42521 0.229209 -0.138978 
3867 2 -698.367 2951.32 -559.945 -0.404689 0.422001 -0.131237 -0.800574 
3868 2 -703.627 2957.8 -554.608 0.245455 0.185867 -0.331129 -0.891941 
3869 2 -708.454 2963.51 -548.043 0.896654 -0.204814 -0.279315 -0.275763 
3865 2 -688.771 2937.38 -570.292 -0.695198 0.143356 0.464645 0.52939 
3870 2 -713.043 2968.37 -540.8 0.676497 -0.404411 0.00650832 0.615436 
3864 2 -683.621 2930.36 -574.928 0.0531434 -0.329337 0.403868 0.851823 
3863 2 -676.802 2924.51 -578.994 0.677707 -0.500365 -0.115656 0.52628 
3871 2 -717.265 2974.45 -534.204 -0.259708 -0.177392 0.440272 0.840978 
3896 2 -684.33 2976.92 -604.118 -0.0873383 -0.461649 0.805898 -0.360251 
3895 2 -686.542 2984.31 -597.973 -0.392059 -0.880478 0.176141 -0.200058 
3872 2 -721.813 2980.57 -527.907 -0.694604 0.189517 0.416298 0.555251 
3894 2 -690.116 2992.69 -594.253 -0.514937 -0.594881 -0.57986 0.21147 
3991 1 -736.764 2991.6 -624.413 -0.0818474 -0.0905577 0.877784 0.463245 
3862 2 -667.27 2921.67 -579.046 0.709301 -0.0815683 -0.695919 -0.0770372 
3873 2 -725.213 2987.98 -522.271 -0.849001 0.47444 0.0830015 -0.21729 
3926 2 -613.257 2888.1 -664.338 0.692022 0.0806303 0.631696 0.339947 
3830 3 -631.631 2840.7 -539.92 -0.0187204 0.166218 0.116254 0.979033 
3935 2 -551.029 2841.35 -651.62 -0.0792693 0.279353 -0.324666 0.90015 
3929 2 -584.594 2888.15 -659.336 -0.573809 -0.142676 -0.724794 0.353638 
3930 2 -577.154 2881.71 -660.396 -0.678632 -0.66369 -0.233755 -0.210552 
3927 2 -603.8 2890.33 -662.618 0.310897 0.514889 0.253486 0.757613 