ITEM: TIMESTEP
100000000
ITEM: NUMBER OF ATOMS
4067
ITEM: BOX BOUNDS pp pp pp
-4.6310929470000001e+03 4.6704658980000004e+03
-4.6310929470000001e+03 4.6704658980000004e+03
-4.6310929470000001e+03 4.6704658980000004e+03
ITEM: ATOMS id type x y z c_q[1] c_q[2] c_q[3] c_q[4] 
3156 2 -415.653 1491.46 -674.441 0.0291889 -0.0925197 0.217199 0.971294 
3119 2 -489.504 1450.77 -544.56 0.166591 -0.946971 -0.116942 -0.24863 
3120 2 -485.663 1454.64 -552.893 0.287719 -0.561949 0.773565 -0.0550302 
3118 2 -495.857 1448.7 -537.232 -0.229361 -0.529717 -0.777184 -0.250555 
3124 2 -481.753 1461.36 -590.494 0.11934 -0.0708148 -0.986688 -0.0847986 
3125 2 -484.267 1463.01 -599.908 0.183588 -0.851097 -0.491659 0.0141809 
3121 2 -481.07 1456.53 -561.404 0.0680607 0.247689 0.966245 0.0196927 
3117 2 -499.7 1446.3 -528.452 -0.221287 0.287735 -0.921642 -0.137169 
3123 2 -480.347 1458.86 -581.018 -0.112148 0.830937 -0.538284 -0.084948 
3122 2 -479.896 1457.21 -571.214 -0.0952973 0.912006 0.396943 0.03999 
3154 1 -383.755 1465.87 -650.779 -0.880243 0.363848 0.210505 -0.22017 
3126 2 -486.804 1466.23 -608.919 0.100208 -0.901514 0.391034 0.15596 
3152 2 -368.145 1454.19 -604.063 -0.0969159 0.796867 -0.500279 0.324547 
3151 2 -374.183 1458.08 -597.376 0.335125 0.833832 0.384185 0.2117 
3150 2 -382.114 1461.02 -592.123 0.490967 0.351609 0.796291 -0.0352692 
3148 2 -399.153 1467.02 -584.021 -0.161878 -0.828583 0.106373 -0.525291 
3149 2 -390.846 1463.73 -588.205 0.352604 -0.479937 0.688069 -0.4146 
3116 2 -502.428 1444.32 -519.048 -0.0869585 0.963152 -0.234883 0.0980094 
3153 2 -361.807 1452.02 -611.4 -0.305986 0.119699 -0.932094 0.152467 
3127 1 -522.435 1494.01 -595.167 0.890222 0.0609129 0.3536 0.280645 
3129 2 -545.181 1520.86 -563.86 0.828917 -0.386117 0.342418 -0.215778 
3130 2 -537.081 1525.97 -561.025 0.651932 -0.0158867 0.619258 0.437324 
3131 2 -529.284 1531.53 -558.507 0.23151 0.508706 0.458823 0.690726 
3132 2 -520.125 1535.3 -556.936 -0.488442 0.586667 -0.207857 0.61159 
3157 2 -418.146 1495.2 -665.689 -0.740002 0.0238297 0.320862 0.590658 
3147 2 -407.03 1471.64 -580.261 -0.503221 -0.645056 -0.549547 -0.169322 
3158 2 -422.465 1499.77 -658.158 -0.901746 0.330783 0.0708567 -0.269101 
3146 2 -414.634 1474.87 -574.766 -0.413068 0.0846114 -0.89162 0.165015 
3145 2 -421.386 1480.2 -569.905 0.0691075 0.73156 -0.414323 0.537011 
3133 2 -511.363 1538.61 -553.601 -0.756413 0.0190467 -0.651605 0.0537321 
3134 2 -501.766 1539.32 -551.431 -0.468288 -0.592334 -0.296757 -0.584622 
3128 3 -499.377 1496.92 -569.019 0.932999 0.0155027 0.310023 0.182092 
3169 2 -410.536 1572.53 -597.817 0.678245 -0.382705 0.549285 0.302997 
3159 2 -426.171 1504.72 -650.274 -0.487802 0.176289 -0.108266 -0.848086 
3160 2 -428.351 1508.97 -641.579 0.444521 0.143326 -0.216921 -0.857207 
3161 2 -433.244 1512.55 -633.804 0.927095 -0.192402 -0.194594 -0.256143 
3162 2 -434.959 1516.94 -625.153 0.699879 -0.407606 0.332477 0.483204 
3163 2 -434.061 1525.29 -619.99 0.125536 0.0207007 0.476 0.870193 
3164 2 -432.736 1533.22 -614.325 -0.580769 0.402783 0.30829 0.636734 
3165 2 -431.482 1541.57 -609.027 -0.79017 0.536595 -0.288762 -0.0656775 
3139 2 -462.194 1513.74 -546.651 -0.469966 0.101379 -0.797647 0.364162 
3166 2 -427.729 1550.02 -605.61 -0.496293 -0.0349084 -0.502934 -0.706776 
3155 3 -403.504 1479.66 -625.382 -0.897425 0.314946 0.208059 -0.228363 
3140 2 -453.483 1509.31 -548.304 -0.423417 -0.651056 -0.619914 -0.112032 
3141 2 -446.967 1505.55 -554.736 -0.173644 -0.859493 0.204543 -0.435065 
3144 2 -428.594 1486.17 -566.53 0.510374 0.757674 0.328925 0.239285 
3142 2 -440.748 1500.32 -560.376 0.186189 -0.191552 0.807491 -0.525928 
3143 2 -435.423 1493.01 -564.3 0.610832 0.37609 0.664068 -0.21084 
3167 2 -422.598 1557.35 -601.468 0.177454 -0.55884 -0.349892 -0.730605 
3168 2 -415.954 1564.34 -599.59 0.725321 -0.581039 0.10417 -0.354193 
3138 2 -470.566 1518.9 -544.977 0.11218 0.698394 -0.331355 0.624392 
3170 2 -405.556 1580.96 -596.958 0.127834 0.186522 0.62631 0.746059 
3135 2 -492.719 1536.6 -548.511 0.124032 -0.426483 0.336479 -0.830368 
3136 2 -485.096 1532.05 -544.28 0.598327 0.0273924 0.689408 -0.407395 
3137 2 -477.294 1526.1 -543.784 0.631663 0.68283 0.346903 0.120015 
3171 2 -401.226 1589.86 -596.462 -0.394733 0.746117 0.321029 0.42946 
3172 2 -398.373 1598.81 -599.723 -0.592168 0.754025 -0.279847 0.0496933 
3173 2 -394.126 1607.32 -602.577 -0.465508 0.262694 -0.744571 -0.399885 
3174 2 -389.284 1615.64 -604.49 0.14363 -0.509281 -0.645609 -0.550629 
3175 2 -385.5 1624.32 -607.602 0.49464 -0.807534 -0.0411625 -0.318631 
3206 2 -510.412 1745.08 -517.028 -0.678576 0.228419 0.494341 -0.492935 
3191 2 -386.483 1694.58 -567.038 -0.563066 -0.142372 0.616854 0.531204 
3192 2 -394.33 1700.41 -565.7 -0.673567 0.499787 0.53705 -0.0899832 
3193 2 -402.714 1705.71 -565.63 -0.453478 0.612235 -0.00414589 -0.647695 
3194 2 -410.553 1711.55 -564.022 0.118365 0.418455 -0.430343 -0.791006 
3176 2 -380.338 1631.99 -611.015 0.478562 -0.460909 0.735118 0.134698 
3195 2 -418.012 1716.94 -560.437 0.775161 -0.0351028 -0.538989 -0.327695 
3196 2 -425.847 1720.59 -555.531 0.685472 -0.38402 -0.357284 0.504979 
3177 2 -374.564 1638.45 -615.952 0.112155 0.269436 0.837283 0.462366 
3178 2 -369.475 1644.72 -621.888 -0.11087 0.858171 0.132944 0.483298 
3197 2 -434.402 1723.39 -551.438 -0.0194374 -0.605985 0.0806092 0.791143 
3198 2 -443.855 1724.85 -549.047 -0.600546 -0.079972 0.640495 0.471927 
3199 2 -452.639 1728.78 -546.947 -0.825133 0.291337 0.428951 -0.224231 
3200 2 -460.711 1732.29 -542.251 -0.238553 0.590406 -0.122891 -0.76119 
3201 2 -469.015 1736.55 -539.179 0.444592 0.350722 -0.561687 -0.603191 
3202 2 -478.24 1739.96 -538.139 0.788172 -0.153264 -0.596065 0.00142969 
3203 2 -487.263 1742.18 -534.679 0.527726 -0.358614 -0.160951 0.752991 
3204 2 -494.082 1743.1 -527.738 -0.280225 -0.41082 0.284575 0.819584 
3205 2 -502.664 1745.26 -523.128 -0.857831 -0.153928 0.420602 0.252045 
3190 2 -377.638 1690.43 -568.069 -0.053418 -0.60584 0.318913 0.726911 
3189 2 -367.846 1689.44 -567.092 0.443016 -0.556093 -0.399108 0.578974 
3179 2 -362.058 1647.98 -627.656 -0.373676 0.491313 -0.722698 0.310944 
3180 2 -353.755 1647.86 -633.058 -0.478032 -0.171743 -0.859143 -0.0621472 
3182 3 -349.704 1656.54 -581.984 -0.755386 -0.357726 0.26488 0.480898 
3188 2 -358.974 1686.84 -563.234 0.55559 -0.0874537 -0.822111 -0.0883512 
3187 2 -349.863 1684.25 -560.355 0.332588 0.535142 -0.620332 -0.467115 
3186 2 -340.398 1683.84 -557.719 -0.112195 0.791118 0.139044 -0.584989 
3181 1 -324.137 1668.67 -602.729 -0.694651 -0.389425 0.277089 0.537615 
3185 2 -330.581 1684.44 -557.564 -0.547338 0.372032 0.62932 -0.407393 
3184 2 -320.651 1684.48 -558.411 -0.623124 -0.341806 0.57503 0.405248 
3183 2 -310.97 1683.02 -559.812 0.0672795 -0.661367 -0.0353909 0.7462 
3235 1 -398.078 1876.39 -540.317 0.728492 0.0419177 -0.0787864 -0.679217 
3234 2 -441.658 1858.79 -537.067 -0.205528 -0.94946 0.196215 -0.133355 
3233 2 -443.332 1862.87 -528.17 -0.21338 -0.734805 -0.639159 0.0775007 
3232 2 -447.4 1867.45 -520.432 -0.16253 0.0223305 -0.960621 0.224261 
3237 2 -358.409 1894.8 -522.57 -0.978034 -0.117569 0.0373615 0.168018 
3448 2 -698.652 2216.82 -616.365 -0.172764 0.634829 -0.664638 -0.354119 
3447 2 -696.055 2210.54 -609.323 -0.338278 0.925039 0.123472 -0.120934 
3446 2 -696.219 2206.09 -600.46 -0.0977236 0.568802 0.797519 0.175722 
3445 2 -699.709 2202.33 -592.057 0.245186 -0.186634 0.930603 0.197561 
3444 2 -701.36 2201.95 -582.13 0.0953612 -0.923602 0.368147 -0.0483106 
3443 2 -700.289 2204.48 -572.638 -0.0805082 -0.882821 -0.454024 0.0894839 
3442 2 -697.994 2206.99 -563.45 0.0551189 -0.199489 -0.96518 0.159982 
3441 2 -693.026 2209.2 -555.17 0.321157 0.571706 -0.75359 -0.0459511 
3440 2 -690.604 2210.1 -545.705 0.0838213 0.984394 -0.0724024 -0.136748 
3439 2 -686.91 2214.45 -537.488 -0.0251315 0.656765 0.685693 -0.312815 
3438 2 -683.893 2218.39 -528.907 -0.191566 -0.228591 0.932893 -0.201888 
3437 2 -682.102 2220.88 -519.603 -0.174759 -0.829442 0.530543 0.00298423 
3449 2 -700.34 2223.6 -623.463 -0.0658495 -0.0726994 -0.935055 -0.340663 
3450 2 -698.846 2229.8 -631.012 0.252451 -0.749888 -0.55093 -0.265354 
3452 3 -703.12 2245.81 -581.84 0.929456 0.338611 0.14627 0.00771132 
3451 1 -714.295 2267.33 -607.022 0.926563 0.355672 0.122089 -0.00850253 
3456 2 -705.655 2276.55 -549.535 -0.925685 -0.30034 -0.114904 -0.199251 
3455 2 -712.374 2281.55 -554.855 -0.761124 -0.061842 -0.499559 0.409031 
3454 2 -717.407 2287.31 -561.102 -0.0612147 0.273914 -0.314 0.906988 
3453 2 -723.987 2291.06 -567.338 0.677098 0.403026 0.156724 0.595437 
3457 2 -702.1 2271.19 -542.059 -0.482997 -0.178899 0.0229049 -0.856846 
3458 2 -699.564 2267.7 -533.221 0.364738 0.00557395 0.163076 -0.916701 
3459 2 -698.996 2264.73 -523.91 0.952609 0.17144 -0.0684652 -0.241777 
3460 2 -700.467 2261.05 -514.777 0.792804 0.0334391 -0.136621 0.593024 
3650 2 -515.459 2372.98 -520.483 0.282018 -0.837464 0.168757 0.436624 
3651 2 -521.32 2379.66 -524.95 -0.209504 -0.416143 0.8291 0.309071 
3652 2 -526.765 2382.85 -532.459 -0.252754 0.406774 0.848108 0.226634 
3639 2 -413.023 2377.67 -562.118 -0.718497 -0.495864 -0.381112 -0.304359 
3640 1 -425.966 2350.57 -525.753 -0.0343462 0.578795 -0.412642 -0.702527 
3641 3 -451.004 2374.96 -526.94 -0.0304575 0.616891 -0.465157 -0.63415 
3638 2 -421.524 2382.31 -564.159 -0.644809 0.0532531 -0.637347 0.418537 
3649 2 -507.177 2368.6 -517.236 0.539697 -0.649469 -0.480367 0.23699 
3678 2 -728.713 2514.6 -541.557 0.948298 -0.280582 -0.0998027 0.109748 
3676 2 -717.781 2513.9 -557.324 -0.119461 0.30948 0.120242 -0.935678 
3677 2 -724.287 2512.05 -550.052 0.585589 0.0935397 -0.240283 -0.768505 
3675 2 -709.804 2512.68 -562.934 -0.850033 0.169508 0.46148 -0.18907 
3674 2 -700.979 2513.71 -567.651 -0.718562 -0.358832 0.367653 0.468763 
3673 2 -692.242 2513.71 -572.44 -0.113492 -0.521094 0.107737 0.839031 
3672 2 -683.017 2512.88 -575.928 0.532008 -0.467342 -0.356034 0.609753 
3671 2 -675.426 2510.22 -581.583 0.881819 -0.0723863 -0.399098 -0.240576 
3679 2 -730.996 2519.5 -533.218 0.583343 -0.108055 0.252129 0.764504 
3680 2 -730.578 2525.06 -525.047 -0.0694163 0.136954 0.18243 0.971156 
3681 2 -727.548 2528.86 -516.411 -0.741333 0.349995 -0.0203874 0.572287 
3670 2 -670.436 2512.08 -589.919 0.442627 0.262498 -0.0134054 -0.857319 
3653 2 -529.682 2389.48 -539.301 -0.479305 0.825482 0.25036 -0.16176 
3669 2 -666.07 2514.46 -598.486 -0.533447 0.186473 0.265874 -0.781008 
3654 2 -534.651 2396.97 -543.451 -0.0304894 0.735761 -0.488558 -0.468014 
3655 2 -541.329 2402.39 -548.578 0.582522 -0.0026319 -0.779311 -0.230944 
3656 2 -550.279 2405.8 -551.235 0.451377 -0.646495 -0.490542 0.371041 
3657 2 -559.269 2408.07 -554.701 -0.0213916 -0.712217 0.252345 0.654684 
3615 2 -554.573 2505.09 -614.819 0.427386 0.228011 0.535566 0.691752 
3617 2 -537.903 2512.68 -607.723 -0.707129 0.165555 -0.543414 0.421025 
3616 2 -546.662 2509.86 -611.533 -0.244528 0.519124 0.0139694 0.818853 
3668 3 -645.784 2470.05 -580.961 -0.93205 -0.148395 0.229404 -0.237984 
3667 1 -632.151 2483.79 -610.182 -0.940296 -0.122143 0.244356 -0.203014 
3666 2 -604.267 2446.58 -601.82 -0.0175691 0.632037 0.762805 0.135463 
3665 2 -605.322 2444.29 -592.188 0.0896554 -0.204036 0.965893 0.131842 
3664 2 -606.136 2438.94 -584.023 0.285405 -0.815735 0.488057 0.122152 
3663 2 -605.495 2433.08 -576.099 0.31123 -0.84654 -0.426177 -0.0698524 
3613 1 -556.961 2461.86 -596.214 0.821028 -0.228188 0.45539 -0.257805 
3612 2 -540.632 2426.2 -569.97 0.0268788 -0.391385 -0.831989 0.392288 
3611 2 -536.398 2432.52 -563.567 0.337787 0.465833 -0.798774 0.175668 
3614 3 -527.273 2474.61 -583.013 0.826753 -0.25954 0.447052 -0.221951 
3662 2 -600.97 2427.09 -569.837 0.298805 -0.128861 -0.876709 -0.354247 
3661 2 -594.319 2423.6 -563.357 0.158673 0.709589 -0.564788 -0.390284 
3660 2 -585.434 2421.24 -559.708 -0.371604 0.738716 0.281798 -0.48662 
3659 2 -576.571 2416.9 -558.197 -0.596854 0.345478 0.723931 -0.0182839 
3658 2 -568.057 2412.22 -556.648 -0.446471 -0.232595 0.715507 0.484369 
3618 2 -528.807 2510.91 -604.15 -0.717122 -0.341062 -0.52806 -0.30094 
3610 2 -530.89 2438.07 -557.435 0.378963 0.846409 -0.317947 -0.197204 
3609 2 -523.995 2440.78 -550.945 -0.0446496 0.854091 0.288901 -0.430199 
3619 2 -519.138 2509.61 -602.003 -0.117736 -0.578865 -0.0222971 -0.80657 
3608 2 -519.281 2448.04 -546.345 -0.139507 0.296324 0.816791 -0.474955 
3607 2 -514.449 2455.97 -543.177 -0.553227 -0.577941 0.585719 -0.129837 
3606 2 -510.756 2464.95 -541.125 -0.570131 -0.749928 -0.0439631 0.332603 
3637 2 -429.875 2387.63 -564.398 -0.122352 0.547188 -0.418258 0.714615 
3620 2 -509.779 2509.2 -598.504 0.56951 -0.30927 0.444417 -0.618468 
3621 2 -500.536 2507.59 -595.218 0.855092 0.3029 0.417653 0.0513406 
3605 2 -508.541 2473.75 -537.053 -0.176167 -0.425757 -0.71856 0.52093 
3604 2 -508.29 2481.77 -531.244 0.208717 0.448216 -0.760629 0.420693 
3603 2 -508.955 2488.95 -524.585 0.333308 0.93537 -0.0613662 0.101105 
3602 2 -505.747 2497.76 -521.397 0.319158 0.577541 0.544772 -0.517501 
3622 2 -493.701 2502.52 -590.197 0.61163 0.537115 0.0443403 0.57918 
3623 2 -487.21 2496.36 -586.089 0.0582702 0.229834 -0.51218 0.825501 
3636 2 -438.935 2391.11 -566.292 0.545102 0.568606 0.195849 0.584119 
3635 2 -447.273 2396 -568.35 0.77258 0.313611 0.548053 -0.0663765 
3634 2 -455.188 2401.05 -571.805 0.512194 -0.205949 0.543023 -0.632746 
3624 2 -484.303 2488.12 -581.53 -0.578393 -0.159139 -0.424732 0.678041 
3625 2 -481.245 2480.28 -576.501 -0.824047 -0.53865 -0.155403 -0.081562 
3626 2 -477.432 2471.84 -573.353 -0.472643 -0.368188 0.319888 -0.733974 
3627 2 -475.187 2463.19 -568.888 0.329326 -0.0269214 0.44486 -0.832417 
3628 2 -471.791 2455.59 -563.481 0.736729 0.580173 0.279197 -0.206589 
3629 2 -469.694 2446.08 -562.31 0.46091 0.684461 -0.309862 0.472293 
3630 2 -466.53 2436.67 -563.41 0.0323437 0.146424 -0.719346 0.678274 
3631 2 -465.235 2427.02 -564.893 -0.403336 -0.488794 -0.686864 0.355836 
3632 2 -462.769 2418.51 -569.264 -0.559749 -0.808522 -0.0212174 -0.18034 
3633 2 -460.128 2409.55 -572.634 -0.287675 -0.514208 0.429738 -0.684221 
3601 2 -499.11 2505.2 -519.973 -0.342538 0.0851184 0.764456 -0.539472 
3600 2 -495.719 2513.46 -516.003 -0.500818 -0.756971 0.418494 -0.0322243 
3883 1 -884.61 2806.08 -578.496 0.76884 -0.314626 0.282779 -0.479511 
3884 3 -857.458 2816.85 -559.087 0.744596 -0.355068 0.310674 -0.472214 
3882 2 -886.57 2777.87 -540.788 0.0860569 0.598232 0.651139 -0.459054 
3890 2 -824.758 2840.12 -579.791 0.0350521 0.319366 -0.290697 0.901261 
3881 2 -881.897 2784.75 -535.501 -0.338918 -0.180841 0.858536 -0.339628 
3880 2 -877.283 2791.51 -529.815 -0.435279 -0.775577 0.455923 0.033846 
3879 2 -872.421 2798.6 -525.036 -0.270549 -0.811886 -0.343971 0.386431 
3878 2 -865.858 2804.4 -520.392 0.319112 -0.163358 -0.8473 0.391874 
3891 2 -818.999 2834.78 -573.722 -0.686146 0.100782 -0.418966 0.5861 
3877 2 -858.533 2810.95 -519.231 0.678332 0.556502 -0.468503 -0.103327 
3876 2 -853.555 2817.89 -514.224 0.309855 0.822126 0.255376 -0.403587 
3892 2 -812.792 2831.17 -566.901 -0.896106 -0.392488 -0.199558 -0.0558887 
3893 2 -809.036 2824.33 -560.83 -0.516713 -0.390729 0.130661 -0.75051 
3952 2 -726.238 2810.87 -541.68 0.942202 0.237438 0.218358 -0.0905409 
3953 2 -722.971 2805.99 -533.623 0.766492 0.251012 -0.0244908 0.590663 
3894 2 -805.182 2817.79 -554.459 0.197873 -0.281712 0.409658 -0.844787 
3895 2 -799.949 2811.84 -548.647 0.768561 0.216565 0.549026 -0.246949 
3896 2 -792.609 2805.69 -545.836 0.598395 0.649064 0.0258345 0.469011 
3897 2 -786.239 2798.29 -544.436 -0.251307 0.415844 -0.390597 0.781891 
3898 2 -778.231 2794.43 -540.05 -0.749029 -0.0914903 -0.468328 0.459624 
3954 2 -720.802 2801.6 -525.098 0.0185101 0.0738769 -0.370467 0.925718 
3955 2 -718.766 2796.44 -516.923 -0.656735 -0.0458727 -0.368002 0.656635 
3951 2 -729.729 2814.83 -550.043 0.649226 -0.00549458 0.233645 -0.7238 
3950 2 -731.926 2819.57 -558.585 -0.213363 -0.144669 0.192765 -0.946778 
3949 2 -736.089 2824.13 -566.246 -0.824833 -0.334522 -0.0104029 -0.455672 
3899 2 -772.365 2789.13 -533.967 -0.866588 -0.349916 -0.228069 -0.273072 
3921 2 -685.652 2808.96 -526.244 -0.00880935 0.077551 -0.477228 -0.875306 
3920 2 -680.929 2800.94 -529.822 -0.616415 0.51523 -0.0826021 -0.589701 
3900 2 -766.3 2784.1 -528.223 -0.296523 -0.532373 0.143557 -0.779772 
3948 2 -741.088 2830.32 -572.019 -0.806572 -0.207465 -0.427907 0.351135 
3947 2 -746.14 2835.53 -578.802 -0.265338 0.196375 -0.359969 0.872614 
3919 2 -676.066 2792.64 -532.11 -0.794284 0.526643 0.302917 0.00139545 
3922 2 -687.758 2817.06 -521.21 0.667952 -0.367574 -0.521587 -0.382983 
3923 2 -692.13 2825.56 -518.782 0.618527 -0.696753 0.0646814 0.357457 
3901 2 -759.327 2778.81 -523.65 0.508863 -0.167529 0.401569 -0.742788 
3916 2 -671.138 2763.61 -533.11 0.630647 -0.654219 0.252725 0.332284 
3924 2 -697.049 2834.2 -519.148 0.121288 -0.543257 0.448983 0.698981 
3918 2 -674.317 2782.97 -533.22 -0.299885 0.173595 0.642125 0.68382 
3917 2 -672.203 2773.4 -534.654 0.244253 -0.355599 0.585073 0.686717 
3915 2 -672.163 2753.83 -532.797 0.584939 -0.708107 -0.188308 -0.347809 
3913 2 -669.189 2734.98 -527.572 -0.434958 0.632457 -0.462926 -0.443293 
3914 2 -670.297 2744.39 -530.491 0.199997 -0.100728 -0.752188 -0.619733 
3912 2 -667.593 2725.77 -524.005 -0.579259 0.81269 0.0412339 -0.0478871 
3902 2 -753.082 2774.12 -517.681 0.948947 0.123442 0.284795 0.0561551 
3885 2 -866.215 2841.05 -604.26 -0.793377 -0.0569818 -0.532153 -0.290035 
3886 2 -857.629 2843.06 -599.665 -0.137695 -0.505935 -0.204851 -0.826502 
3887 2 -848.728 2844.7 -595.707 0.469774 -0.399364 0.336902 -0.71156 
3888 2 -839.622 2844.33 -591.588 0.863707 0.0426112 0.498862 -0.0577201 
3889 2 -830.991 2843.4 -586.729 0.683181 0.386295 0.151258 0.600966 
3925 2 -702.596 2842.23 -519.099 -0.478286 -0.127356 0.698995 0.516167 
3946 2 -750.395 2841.94 -584.971 0.479036 0.451781 -0.231137 0.716237 
3945 2 -755.513 2847.31 -591.482 0.915199 0.322767 0.238359 0.0376394 
3938 3 -774.911 2862.53 -554.497 0.352582 -0.276145 0.649228 -0.614763 
3944 2 -760.868 2853.67 -596.901 0.492864 -0.0083701 0.469739 -0.732366 
3943 2 -764.791 2862 -600.713 -0.30833 -0.4183 0.343937 -0.78209 
3941 2 -773.748 2879.38 -599.551 -0.445276 -0.328941 -0.676248 0.486021 
3942 2 -769.492 2870.65 -600.491 -0.683002 -0.677659 -0.188346 -0.197009 
3940 2 -780.118 2886.05 -595.518 -0.111136 0.500556 -0.667234 0.54027 
3939 2 -786.799 2893.38 -594.523 0.332241 0.677876 -0.185117 0.629152 
3937 1 -805.705 2879.07 -553.718 0.36735 -0.309683 0.669803 -0.56614 
3926 2 -710.742 2847.81 -520.687 -0.775167 0.299652 0.508532 -0.225211 
3927 2 -719.671 2851.41 -518.391 -0.424634 0.572151 0.101598 -0.694267 
3928 2 -728.532 2855.02 -515.708 0.295141 0.440992 -0.34507 -0.774173 
3966 2 -642.312 2851.32 -527.008 0.4251 -0.629088 -0.0125202 0.650678 
3967 2 -649.773 2857.04 -523.801 -0.219755 -0.266707 0.425466 0.836393 
3968 2 -655.465 2863.23 -518.719 -0.834845 0.202208 0.446002 0.251451 
4009 2 -713.92 3014.47 -559.725 0.484416 -0.0282907 -0.873749 -0.0332265 
4010 2 -721.929 3015.37 -565.47 0.256549 -0.73541 -0.587637 0.219175 
4011 2 -728.424 3017.97 -572.486 -0.162498 -0.802132 0.191309 0.54183 
4008 2 -707.109 3015.16 -552.633 0.255127 0.726897 -0.588824 -0.244575 
4012 2 -737.468 3017.55 -576.568 -0.474383 -0.222312 0.788389 0.32246 
4013 2 -745.964 3020.5 -580.661 -0.450111 0.404468 0.729364 -0.319113 
4016 2 -772.458 3016.76 -592.583 0.635957 -0.00449033 -0.720479 0.276494 
4014 2 -754.856 3020.54 -585.182 0.0650675 0.781373 0.0116005 -0.620554 
4015 2 -764.435 3020.11 -588.084 0.469341 0.625787 -0.570516 -0.250241 
4017 2 -781.471 3012.88 -592.923 0.226369 -0.543166 -0.493638 0.640351 
4007 2 -702.847 3014.43 -543.761 -0.0604318 0.95338 0.211039 -0.207069 
4020 2 -795.52 3095.88 -556.293 0.482424 0.270388 0.82382 0.124409 
4021 2 -787.105 3095.61 -561.427 0.226613 0.791168 0.351281 0.446432 
4022 2 -778.304 3095.94 -566.091 -0.49718 0.714327 -0.316374 0.377434 
4023 2 -770.2 3100.42 -569.394 -0.519023 0.22626 -0.793843 -0.22189 
4024 2 -762.718 3105.3 -573.622 -0.0920288 -0.306252 -0.711446 -0.625768 
4018 1 -798.411 3051.05 -570.976 -0.633765 0.0230295 -0.763838 -0.119849 
4025 2 -757.446 3113.36 -575.1 0.440997 -0.798339 -0.174089 -0.371309 
4026 2 -752.717 3121.39 -578.306 0.598931 -0.676181 0.426896 -0.0426691 
4019 3 -764.603 3058.72 -575.758 -0.595718 -0.0146371 -0.796074 -0.105699 
4027 2 -746.457 3128.09 -581.953 0.431078 -0.189848 0.763078 0.442539 
4028 2 -742.464 3136.74 -584.234 -0.265063 0.526338 0.556484 0.585692 
4006 2 -699.688 3015.9 -534.562 -0.112579 0.40591 0.884633 -0.199968 
4005 2 -697.278 3016.47 -524.952 -0.0884122 -0.352888 0.931475 -0.00260402 
4004 2 -696.818 3016.05 -514.984 0.0132778 -0.967059 0.249688 0.047711 
4029 2 -738.547 3145.63 -586.371 -0.64514 0.69083 0.0611197 0.320645 
4030 2 -734.593 3154.74 -586.47 -0.622574 0.484413 -0.537481 -0.298094 
4031 2 -731.751 3164.25 -586.133 -0.0523903 0.0737389 -0.805501 -0.58565 
4032 2 -730.178 3173.83 -587.925 0.469985 -0.543471 -0.481708 -0.501709 
4033 2 -729.311 3183.67 -588.67 0.715699 -0.674748 0.126493 0.128411 
4034 2 -730.287 3193.51 -587.876 0.321693 -0.308266 0.627038 0.638991 
4044 2 -726.896 3278.29 -547.671 -0.847091 0.360641 -0.0445153 -0.387805 
4043 2 -725.661 3271.95 -555.169 -0.746537 0.244278 0.264556 0.559483 
4042 2 -726.856 3265.35 -562.583 -0.0636052 0.0734855 0.350709 0.931428 
4041 2 -726.934 3256.79 -567.212 0.503868 -0.324791 0.37441 0.707421 
4040 2 -726.294 3247.56 -570.971 0.852138 -0.511421 0.0205985 0.109017 
4039 2 -726.417 3239.12 -575.84 0.627327 -0.4324 -0.323601 -0.561047 
4038 2 -724.125 3230.94 -580.976 0.140697 0.0189886 -0.451929 -0.880684 
4037 2 -724.983 3221.27 -583.012 -0.6234 0.462879 -0.404031 -0.483605 
4035 2 -731.633 3203.35 -587.322 -0.187293 0.396134 0.476847 0.761982 
4036 2 -728.533 3212.24 -584.534 -0.721275 0.631698 -0.00745562 0.284016 
4060 2 -684.015 3218.53 -520.72 -0.736058 0.67031 0.0500311 0.0800011 
4059 2 -687.675 3209.72 -522.858 -0.367013 0.396639 0.438688 0.718005 
4046 3 -740.909 3230.47 -533.152 -0.437449 -0.881291 -0.00507503 -0.178713 
4045 1 -753.691 3257.6 -514.875 -0.418732 -0.879076 0.0621978 -0.219133 
4058 2 -695.25 3203.34 -521.672 0.43449 0.203451 0.710547 0.514732 
4057 2 -701.64 3195.83 -519.971 0.653943 -0.599672 0.461175 0.00832558 
4056 2 -707.79 3188.76 -517.013 0.362592 -0.803389 -0.156301 -0.445717 
4055 2 -715.499 3183.13 -519.323 -0.289885 -0.287402 -0.536451 -0.738639 
4061 2 -682.88 3228.27 -519.469 -0.349629 0.560419 -0.503403 -0.557024 
4062 2 -684.944 3237.83 -519.929 0.0349435 -0.00527443 -0.773807 -0.632434 
4063 2 -685.55 3247.59 -522.083 0.395284 -0.73758 -0.519174 -0.173737 
4064 2 -686.336 3254.95 -528.591 0.397915 -0.889442 0.221308 0.0397339 
4065 2 -684.999 3261.93 -535.595 0.231601 -0.365046 0.877492 0.207631 
4066 2 -682.553 3266.79 -543.781 -0.118073 0.360499 0.845009 0.376907 
4067 2 -681.756 3273.85 -550.547 -0.405684 0.888586 0.184249 0.10903 
4053 2 -734.551 3181.72 -514.901 -0.38386 0.660326 -0.462382 0.45036 
4054 2 -724.971 3181.73 -517.328 -0.657637 0.114632 -0.74377 -0.034325 
3102 2 -586.635 1448.99 -417.264 -0.202197 0.901099 -0.0174305 0.383187 
3103 2 -579.863 1452.2 -423.578 -0.252722 0.451082 -0.843679 0.14444 
3104 2 -573.821 1452.56 -431.459 -0.372494 -0.276675 -0.885438 -0.0264354 
3100 1 -567.087 1411.06 -397.041 0.499915 -0.497252 0.706845 -0.0565356 
3105 2 -567.48 1450.84 -438.686 -0.23329 -0.802061 -0.341819 -0.43062 
3106 2 -559.662 1449.92 -444.817 0.210154 -0.830316 0.412928 -0.30968 
3101 3 -540.984 1424.4 -416.226 0.44717 -0.555812 0.698957 -0.0506986 
3107 2 -552.771 1449.97 -451.966 0.454654 -0.168022 0.873564 0.0441014 
3108 2 -545.401 1451.61 -458.447 0.284818 0.580866 0.634716 0.422623 
3109 2 -537.478 1452.93 -464.434 0.05977 0.888679 -0.187554 0.414126 
3099 2 -531.764 1380.8 -389.63 0.704457 0.402552 -0.499091 -0.304302 
3110 2 -529.981 1449.73 -469.995 -0.47391 0.377474 -0.775076 0.179389 
3098 2 -522.499 1383.34 -392.016 0.243635 0.625752 -0.0252489 -0.740567 
3111 2 -522.138 1449.97 -475.922 -0.341422 -0.429885 -0.834313 -0.0505131 
3112 2 -516.232 1447.72 -483.584 -0.104011 -0.892739 -0.208831 -0.385471 
3097 2 -513.999 1387.95 -393.859 -0.374962 0.376166 0.532745 -0.658852 
3113 2 -509.657 1446.55 -490.979 0.0689491 -0.728286 0.630457 -0.259557 
3115 2 -502.772 1445.58 -509.211 0.0696144 0.820665 0.567113 0.00676136 
3114 2 -505.484 1444.86 -499.778 0.118438 0.0691982 0.987342 0.0796182 
3096 2 -508.428 1395.62 -396.341 -0.73921 -0.400788 0.505127 -0.194381 
3095 2 -506.445 1404.75 -399.717 -0.742168 -0.535407 -0.138575 0.37858 
3094 2 -501.004 1412.65 -402.127 -0.133035 -0.424629 -0.454044 0.771904 
3093 2 -496.728 1420.31 -406.594 0.680396 0.187192 -0.425139 0.566813 
3092 2 -491.261 1428.53 -407.001 0.69949 0.647127 -0.233015 -0.19402 
3091 2 -487.582 1436.8 -410.98 0.394777 0.430575 0.300378 -0.754009 
3090 2 -485.309 1445.61 -414.881 -0.251971 -0.0468374 0.595248 -0.761575 
3089 2 -481.349 1454.22 -418.006 -0.707771 -0.309498 0.503505 -0.386981 
3088 2 -475.474 1461.63 -421.044 -0.691178 -0.59618 0.092769 0.397789 
3087 2 -469.43 1466.94 -426.858 -0.188493 -0.405634 -0.220838 0.866696 
3086 2 -462.071 1472.54 -430.528 0.539504 -0.0745113 -0.560226 0.624124 
3085 2 -458.254 1480.61 -434.842 0.858791 0.431367 -0.258897 0.0968122 
3084 2 -454.747 1489.33 -438.158 0.588347 0.508595 0.178013 -0.602901 
3083 2 -453.012 1499.05 -439.312 0.00254693 0.211187 0.632517 -0.745195 
3082 2 -448.933 1507.73 -441.721 -0.651561 -0.350187 0.517381 -0.430296 
3081 2 -444.249 1516.07 -439.325 -0.573652 -0.784296 0.042367 0.232397 
3080 2 -442.358 1525.83 -438.026 -0.306463 -0.497851 -0.59826 0.548005 
3079 2 -443.674 1535.72 -436.867 0.0459824 0.124856 -0.728417 0.67209 
3078 2 -445.93 1545.25 -435.61 0.493787 0.70909 -0.282207 0.416804 
3077 2 -449.415 1553.81 -432.489 0.556124 0.61396 0.538623 -0.153834 
3076 2 -453.112 1562.52 -429.465 0.241328 0.0619453 0.803647 -0.54044 
3075 2 -456.33 1569.58 -423.346 -0.178854 -0.696339 0.5857 -0.374272 
3074 3 -428.278 1535.38 -396.501 -0.183595 0.439815 -0.741116 0.472865 
3073 1 -452.942 1553.14 -379.189 -0.259482 0.428462 -0.750691 0.430758 
3064 2 -371.425 1528.12 -382.353 -0.474244 -0.650266 0.115369 0.582183 
3065 2 -380.23 1524.03 -380.4 -0.754809 -0.232523 0.55094 0.269558 
3066 2 -389.477 1522.67 -377.187 -0.652892 0.154138 0.5075 -0.540756 
3067 2 -397.172 1518.46 -372.806 -0.0528518 0.40469 0.196931 -0.891432 
3068 2 -404.064 1515.1 -366.321 0.689845 0.281661 -0.31073 -0.590109 
3063 2 -362.024 1530.44 -383.87 0.194655 -0.632069 -0.309625 0.683177 
3062 2 -352.092 1530.11 -383.882 0.65165 -0.284291 -0.657131 0.250418 
3048 2 -219.021 1527 -401.211 0.749036 -0.206737 -0.585902 0.23005 
3049 2 -228.564 1527.74 -398.689 0.334392 -0.605018 -0.288781 0.662375 
3050 2 -238.347 1528.08 -397.834 -0.230447 -0.60861 0.36632 0.665055 
3051 2 -248.034 1529.77 -398.087 -0.63669 0.122673 0.756722 0.0833555 
3052 2 -257.421 1532.22 -399.468 -0.431887 0.625674 0.347529 -0.548843 
3061 2 -342.344 1531.93 -383.398 0.643671 0.433282 -0.575443 -0.258496 
3053 2 -267.101 1533.39 -400.67 0.119166 0.52333 -0.32483 -0.778724 
3055 2 -285.181 1536.79 -394.788 0.758881 -0.228742 -0.495453 0.355392 
3054 2 -275.916 1537.12 -398.317 0.698769 0.297169 -0.4682 -0.451885 
3056 2 -294.197 1536.07 -390.727 0.238593 -0.583456 -0.140137 0.763553 
3058 2 -312.912 1534.84 -384.271 -0.732017 -0.0389284 0.678954 -0.040709 
3057 2 -303.497 1535.9 -387.293 -0.531483 -0.536802 0.292831 0.586191 
3059 2 -322.638 1533.13 -383.482 -0.39641 0.46859 0.478021 -0.628314 
3060 2 -332.433 1532.67 -382.259 0.167135 0.701052 -0.148819 -0.677085 
3046 1 -214.683 1489.79 -372.501 -0.687933 0.0875954 0.711557 -0.112971 
3047 3 -249.32 1493.23 -375.855 -0.721863 0.211349 0.643707 -0.141017 
3207 2 -519.314 1743.06 -513.343 -0.171324 0.521649 0.214814 -0.807704 
3208 1 -503.173 1728.97 -471.356 -0.18198 -0.482336 -0.713568 -0.474402 
3209 3 -475.326 1744.52 -485.779 -0.204819 -0.47541 -0.696052 -0.49754 
3214 2 -443.757 1748.49 -451.336 0.0574118 0.543197 0.774254 0.319643 
3215 2 -439.205 1753.08 -458.996 -0.310366 0.929607 0.00900559 0.198552 
3216 2 -435.901 1759.07 -466.2 -0.313772 0.814334 -0.440578 -0.210471 
3217 2 -435.763 1766.24 -473.163 -0.157562 0.116779 -0.856433 -0.477556 
3213 2 -450.4 1744.15 -445.36 0.409693 -0.211574 0.875233 0.146134 
3212 2 -456.873 1738.11 -440.942 0.505518 -0.790068 0.266779 -0.221525 
3211 2 -464.097 1731.77 -439.049 0.0940257 -0.651985 -0.469058 -0.588268 
3210 2 -469.763 1723.57 -438.52 -0.432642 0.0225394 -0.743267 -0.509771 
3231 2 -449.17 1871.65 -511.712 0.100138 0.765404 -0.601697 0.205157 
3218 2 -434.083 1774.76 -478.106 0.26103 -0.662181 -0.44926 -0.539949 
3236 3 -404.695 1877.58 -506.183 0.728096 0.011308 -0.105122 -0.677273 
3230 2 -448.582 1874.45 -502.231 0.142769 0.981289 0.120097 -0.047592 
3219 2 -429.397 1782.86 -481.27 0.562986 -0.768986 0.134279 -0.271434 
3229 2 -443.994 1873.37 -493.447 -0.194071 0.679826 0.700693 -0.095924 
3228 2 -439.426 1867.21 -487.32 -0.224044 -0.0781099 0.884685 0.401293 
3220 2 -424.746 1791.36 -483.427 0.463403 -0.450316 0.609059 0.459914 
3221 2 -423.062 1800.85 -485.57 -0.279145 -0.00659194 0.668308 0.689491 
3227 2 -437.777 1857.94 -483.853 0.415834 -0.580022 0.538341 0.448158 
3226 2 -435.281 1848.39 -483.83 0.688978 -0.69494 -0.205816 0.00281581 
3225 2 -433.979 1838.62 -484.712 0.478821 -0.365605 -0.586171 -0.541726 
3222 2 -426.565 1809.82 -483.618 -0.674785 0.644545 0.342493 0.109204 
3223 2 -430.056 1819.08 -483.366 -0.529527 0.60942 -0.394927 -0.438453 
3224 2 -431.976 1828.83 -483.337 0.00290801 0.149601 -0.708337 -0.689833 
3249 2 -384.326 1864.79 -412.57 0.607986 -0.0692927 0.0111297 0.79084 
3250 2 -385.707 1866.6 -402.966 -0.208938 -0.176739 0.119238 0.954406 
3248 2 -383.663 1868.82 -421.603 0.985128 0.159912 -0.0609365 0.0153957 