ITEM: TIMESTEP
100000000
ITEM: NUMBER OF ATOMS
4067
ITEM: BOX BOUNDS pp pp pp
-4.6310929470000001e+03 4.6704658980000004e+03
-4.6310929470000001e+03 4.6704658980000004e+03
-4.6310929470000001e+03 4.6704658980000004e+03
ITEM: ATOMS id type x y z c_q[1] c_q[2] c_q[3] c_q[4] 
3910 1 -821.368 2848.58 -668.809 0.400332 0.379367 0.141639 0.822042 
3909 2 -797.135 2888.37 -676.314 0.144552 -0.324915 -0.916844 0.181471 
3908 2 -792.8 2890.02 -667.548 0.262218 0.457077 -0.849894 0.0018314 
2748 2 -241.367 1003.69 -535.158 0.391813 0.158405 0.897594 -0.125363 
2747 2 -247.597 1007.15 -528.541 0.133622 -0.622637 0.661072 -0.396803 
2746 2 -251.649 1012.95 -521.549 -0.329947 -0.928061 -0.113335 -0.13036 
2745 2 -255.567 1019.55 -515.239 -0.3408 -0.445107 -0.790059 0.248076 
3590 2 -642.32 2279.25 -556.546 -0.57018 0.277257 -0.528925 -0.564146 
3589 2 -642.225 2269.32 -556.164 -0.661218 0.731846 -0.0950109 -0.134773 
3591 2 -640.142 2288.51 -553.799 0.0376258 -0.191708 -0.529724 -0.825363 
3594 2 -625.57 2312.33 -544.307 0.539591 -0.017936 0.499985 0.677152 
3593 2 -631.683 2305.29 -547.809 0.855836 -0.381302 0.34475 -0.0574487 
3592 2 -636.243 2297.27 -551.585 0.606692 -0.539232 -0.110222 -0.573589 
3588 2 -640.932 2259.73 -554.249 -0.537536 0.531848 0.515078 0.403593 
3587 3 -596.901 2286.73 -546.837 0.471914 -0.659034 0.473079 0.345207 
3586 1 -597.353 2252.98 -537.537 0.552865 -0.648683 0.419984 0.311711 
3595 2 -620.682 2319.26 -539.053 -0.195482 0.155337 0.360733 0.898626 
3596 2 -619.525 2326.69 -532.547 -0.818077 0.364958 0.221118 0.385566 
3597 2 -619.104 2334.24 -526.063 -0.857429 0.389437 -0.143503 -0.30424 
3598 2 -618.164 2341.08 -518.871 -0.353385 0.0359281 -0.478946 -0.802769 
3576 2 -530.27 2340.44 -545.622 -0.450844 -0.577944 -0.111842 0.670978 
3575 2 -522.552 2346.64 -545.256 0.263913 -0.329767 -0.655649 0.625881 
3574 2 -514.637 2352.38 -547.166 0.712996 0.203362 -0.612207 0.274743 
3577 2 -537.883 2334.61 -543.368 -0.704474 -0.570216 0.416037 0.074056 
3578 2 -545.02 2327.9 -542.186 -0.444884 -0.233491 0.601325 -0.621263 
3579 2 -548.198 2318.72 -540.364 0.114096 0.426475 0.565804 -0.696396 
3580 2 -553.217 2310.2 -540.237 0.687714 0.629124 -0.0818889 -0.352911 
3581 2 -558.845 2302.63 -537.414 0.687123 0.477775 -0.37838 0.395502 
3584 2 -557.32 2274.36 -532.101 -0.774297 -0.563435 -0.287285 -0.0217409 
3582 2 -561.117 2293.21 -535.487 0.199341 0.152914 -0.51925 0.81686 
3583 2 -560.949 2283.66 -532.534 -0.463914 -0.270998 -0.672505 0.509 
3585 2 -552.621 2265.85 -530.144 -0.509668 -0.581119 0.224796 -0.593301 
3573 2 -506.07 2356.08 -550.658 0.668043 0.511911 -0.273785 -0.465518 
3572 2 -499.054 2356.23 -557.472 -0.0814968 0.383572 0.0470017 -0.918707 
3571 2 -492.418 2357.06 -564.618 -0.679476 0.23427 0.270186 -0.640647 
3570 2 -485.58 2355.6 -571.566 -0.901086 -0.0122943 0.406307 0.151021 
3569 2 -477.956 2353.41 -577.367 -0.482655 -0.284384 0.330331 0.759639 
3568 2 -472.974 2346.04 -581.878 0.41164 -0.421194 0.321862 0.741319 
3561 2 -446.698 2291.14 -613.334 0.295635 -0.340209 0.335434 0.82725 
3562 2 -451.239 2298.97 -609.207 -0.453094 0.00334084 0.491617 0.743645 
3563 2 -455.263 2306.44 -604.156 -0.854232 0.408558 0.320635 0.0236941 
3564 2 -460.722 2313.25 -599.535 -0.616416 0.448941 -0.232957 -0.603501 
3565 2 -463.018 2321.69 -594.786 0.0600198 0.105378 -0.536113 -0.83539 
3567 2 -468.112 2338.8 -586.27 0.794131 -0.508933 -0.23745 0.232294 
3566 2 -465.204 2330.31 -590.609 0.681984 -0.256567 -0.454758 -0.512119 
3559 1 -430.302 2269.11 -574.971 -0.812804 0.515141 0.252057 -0.102207 
3560 3 -447.061 2296.76 -561.66 -0.831911 0.478246 0.203041 -0.194881 
3558 2 -426.91 2262.59 -528.342 -0.383438 -0.182615 -0.877031 0.224595 
3557 2 -432.052 2268.66 -522.448 -0.031013 0.534409 -0.70497 0.465255 
3556 2 -438.336 2276.05 -520.049 0.394964 0.813818 -0.0542101 0.422807 
3555 2 -447.206 2279.92 -518.071 0.613849 0.493535 0.607204 0.104476 
3554 2 -453.109 2287.52 -515.979 0.384372 0.0612653 0.785451 -0.481218 
3553 2 -457.709 2296.25 -515.111 -0.185555 -0.54454 0.498739 -0.64831 
3552 2 -461.138 2305.32 -517.241 -0.739133 -0.622232 -0.0291701 -0.256239 
3664 2 -714.086 2414.59 -610.192 0.658353 0.0314853 -0.749105 -0.0664894 
3663 2 -704.255 2413.83 -608.68 0.344801 0.653718 -0.428506 -0.519757 
3665 2 -724.152 2415.15 -610.775 0.297877 -0.612059 -0.641743 0.353297 
3666 2 -732.19 2414.8 -616.431 -0.0875407 -0.85859 0.192121 0.467173 
3669 2 -724.113 2505.47 -604.712 0.619363 0.0120094 0.78397 -0.0404621 
3667 1 -738.716 2460.77 -608.234 -0.625418 0.0807385 -0.765947 0.125137 
3668 3 -704.388 2458.55 -613.867 -0.612124 0.122013 -0.767386 0.146747 
3670 2 -714.5 2504.95 -606.967 0.295954 0.663692 0.59593 0.341748 
3671 2 -706.328 2505.06 -612.754 -0.259904 0.706352 -0.158667 0.639016 
3672 2 -696.756 2507.39 -613.807 -0.662091 0.315541 -0.661574 0.156168 
3673 2 -687.121 2509.41 -614.565 -0.652649 -0.135565 -0.601505 -0.440299 
3674 2 -678.335 2512.96 -611.848 -0.104513 -0.542927 -0.243138 -0.796989 
3662 2 -694.768 2416.44 -609.636 -0.104845 0.621706 0.274128 -0.726184 
3661 2 -685.06 2418.53 -608.287 -0.581517 0.240838 0.705839 -0.325002 
3660 2 -676.237 2422.46 -610.461 -0.728683 -0.400567 0.519957 0.195478 
3675 2 -669.068 2515.99 -610.163 0.496784 -0.673218 0.141429 -0.529133 
3659 2 -666.911 2423.68 -613.73 -0.351018 -0.557452 0.234587 0.714844 
3676 2 -660.17 2520.34 -609.169 0.876885 -0.0935125 0.470425 0.0320708 
3625 2 -626.756 2384.08 -519.766 0.41348 -0.248814 0.862445 0.152691 
3626 2 -620.801 2389.61 -525.548 0.100957 0.253422 0.810316 0.518625 
3627 2 -616.603 2397.64 -529.76 -0.421896 0.777665 0.4183 0.205586 
3658 2 -657.22 2425.22 -613.966 0.274037 -0.566481 -0.420467 0.653613 
3657 2 -647.277 2424.37 -614.031 0.741797 -0.100919 -0.662 0.036178 
3656 2 -638.051 2420.92 -613.1 0.32342 0.519725 -0.572792 -0.545155 
3655 2 -628.238 2420.09 -612.184 -0.233727 0.700728 0.193472 -0.645694 
3654 2 -618.717 2421.17 -609.906 -0.566092 0.286115 0.71168 -0.301976 
3653 2 -609.133 2421.32 -607.737 -0.564034 -0.335157 0.720872 0.223338 
3652 2 -599.732 2422.84 -605.241 -0.149998 -0.776329 -0.0336285 0.611296 
3651 2 -589.87 2424.21 -604.833 0.468136 -0.438054 -0.507538 0.575641 
3649 2 -571.91 2429.27 -599.819 0.323428 0.770908 -0.256206 -0.485236 
3650 2 -580.206 2426.02 -603.932 0.709039 0.172169 -0.682823 -0.0370749 
3648 2 -563.132 2431.51 -595.949 -0.173876 0.631533 0.5576 -0.509917 
3647 2 -555.01 2435.14 -591.743 -0.541045 -0.0172274 0.816878 -0.199209 
3641 3 -579.101 2463.47 -571.986 0.307208 0.54084 0.536434 -0.570398 
3633 2 -621.345 2448.71 -558.401 -0.0973933 -0.042806 0.790888 0.602643 
3634 2 -623.13 2458.21 -560.741 -0.43835 0.632039 0.457131 0.446551 
3635 2 -622.344 2467.96 -562.663 -0.608122 0.768566 -0.163634 -0.112772 
3646 2 -548.838 2440.69 -586.395 -0.48215 -0.641746 0.573957 0.16207 
3636 2 -621.962 2477.64 -564.812 -0.450327 0.300632 -0.63872 -0.546684 
3637 2 -619.682 2487.26 -564.64 -0.0711041 -0.332866 -0.76122 -0.551986 
3640 1 -565.35 2495.51 -571.166 0.304302 0.557747 0.513881 -0.576406 
3638 2 -614.899 2495.11 -568.278 0.381573 -0.775259 -0.374249 -0.33662 
3645 2 -542.549 2445.97 -580.928 -0.204123 -0.834765 -0.214157 0.464368 
3632 2 -620.034 2439.38 -555.472 0.332143 -0.466793 0.607893 0.549774 
3631 2 -620.245 2430.44 -551.23 0.520737 -0.852096 0.044384 -0.02822 
3630 2 -618.46 2421.95 -546.675 0.34073 -0.458124 -0.70263 -0.42466 
3629 2 -618.032 2413.5 -541.613 -0.146186 0.204562 -0.821067 -0.512478 
3628 2 -617.475 2405.93 -535.154 -0.349148 0.853545 -0.342073 -0.180396 
3644 2 -537.443 2452.15 -575.346 0.147334 -0.343092 -0.827327 0.419656 
3643 2 -533.557 2460.23 -571.116 0.47962 0.537929 -0.652777 0.233408 
3639 2 -611.827 2503.62 -572.349 0.526511 -0.779981 0.336262 0.0366588 
3642 2 -527.385 2467.69 -568.579 0.551061 0.773694 -0.116455 -0.290117 
3677 2 -651.937 2522.81 -604.237 0.4172 0.463246 0.292379 0.725163 
3678 2 -643.261 2523.84 -599.684 -0.354533 0.678962 -0.143803 0.626608 
3679 2 -634.038 2527.33 -598.703 -0.710951 0.305611 -0.621129 0.123891 
3680 2 -624.581 2530.57 -598.257 -0.60907 -0.317353 -0.44853 -0.571964 
3681 2 -615.759 2532.61 -594.34 0.0687537 -0.577884 0.0694186 -0.810249 
3682 2 -606.588 2532.55 -590.819 0.638372 -0.470927 0.520329 -0.316175 
3683 2 -596.933 2534.79 -590.218 0.720853 -0.104404 0.618531 0.29477 
3684 2 -588.678 2540.02 -588.336 0.19248 0.447322 0.468898 0.736878 
3685 2 -580.711 2545.5 -586.273 -0.500236 0.582665 0.00436165 0.640505 
3694 1 -532.682 2618.92 -563.759 0.853418 0.456712 -0.241137 -0.0703151 
3692 2 -521.103 2572.92 -579.086 -0.413063 0.813244 -0.0401653 0.407921 
3691 2 -527.666 2565.91 -576.302 0.138082 0.415537 0.714475 0.5457 
3690 2 -536.792 2562.33 -577.927 0.744884 -0.0996283 0.651083 0.106359 
3689 2 -546.47 2560.28 -577.353 0.473413 -0.582475 0.44108 -0.491987 
3688 2 -555.473 2557.49 -580.123 -0.0737491 -0.573106 -0.247566 -0.777702 
3687 2 -565.378 2556.45 -580.74 -0.663469 -0.231951 -0.627915 -0.334262 
3686 2 -572.311 2550.01 -583.672 -0.792902 0.452275 -0.395329 0.102312 
3695 3 -552.34 2593.82 -549.5 0.846507 0.436562 -0.30037 -0.051162 
3697 2 -561.444 2636.48 -530.418 -0.964952 -0.257311 0.0381161 0.0347293 
3696 2 -563.899 2642.79 -537.719 -0.595512 -0.0848499 -0.323971 0.730212 
3698 2 -561.87 2631.3 -522.097 -0.569816 -0.29789 0.219328 -0.733802 
3693 2 -514.07 2579.37 -581.57 -0.58799 0.411736 -0.689739 -0.094876 
3806 2 -604.864 2677.94 -523.955 -0.846582 -0.138665 0.438766 -0.267496 
3699 2 -559.783 2624.41 -515.153 0.174771 -0.10257 0.505243 -0.838847 
3805 2 -602.41 2686.42 -528.239 -0.806447 -0.521886 -0.0294171 0.276428 
3807 2 -611.894 2673.89 -518.49 -0.326222 0.284733 0.410172 -0.802661 
3937 1 -867.285 2798.09 -547.015 0.876131 -0.231601 0.286721 -0.310719 
3938 3 -843.205 2806.89 -523.15 0.863704 -0.230497 0.297371 -0.335346 
3936 2 -868.679 2762.25 -516.349 -0.598047 -0.448276 0.653301 0.12077 
3912 2 -827.491 2806.12 -649.285 0.315935 0.245146 0.368074 0.839411 
3939 2 -849.62 2838.46 -563.973 0.752013 -0.0226606 -0.369298 -0.54551 
3931 2 -825.371 2775.44 -521.481 0.277202 0.546156 0.121723 -0.781061 
3932 2 -832.892 2770.61 -517.211 0.76134 0.341303 -0.344559 -0.430295 
3913 2 -820.615 2809.82 -643.158 -0.469932 0.363921 -0.115155 0.795905 
3914 2 -813.423 2810.68 -636.514 -0.86243 0.146017 -0.455942 0.164349 
3928 2 -803.839 2789.02 -535.958 -0.797261 -0.31727 0.176288 0.482325 
3927 2 -797.542 2791.91 -542.968 -0.117423 -0.336848 -0.0973807 0.929119 
3926 2 -791.339 2794.87 -549.994 0.649785 -0.148828 -0.364396 0.650265 
3925 2 -783.141 2796.63 -555.385 0.853802 0.20327 -0.461985 -0.127568 
3859 2 -711.524 2821.13 -541.971 0.595158 -0.450458 -0.012416 -0.665373 
3858 2 -719.477 2817.35 -546.646 -0.0504972 -0.37858 -0.241267 -0.892142 
3860 2 -705.292 2826.26 -536.255 0.803802 -0.361081 0.465996 0.0798179 
3861 2 -698.663 2832.95 -533.103 0.247499 0.0754695 0.462365 0.848096 
3915 2 -804.982 2811.57 -631.457 -0.737693 -0.178559 -0.290749 -0.582572 
3916 2 -798.121 2810.89 -624.321 -0.158049 -0.413051 0.0623188 -0.894721 
3924 2 -776.253 2797.36 -562.349 0.324549 0.379217 -0.10446 -0.860204 
3923 2 -772.39 2796.22 -571.595 -0.571473 0.196696 0.101562 -0.790199 
3922 2 -768.6 2798.87 -580.31 -0.95377 -0.0978787 0.240511 -0.15132 
3921 2 -767.189 2800.75 -589.906 -0.762236 -0.14374 -0.0210884 0.630786 
3917 2 -790.815 2809.06 -617.944 0.538126 -0.283226 0.47163 -0.638568 
3920 2 -770.173 2803.8 -598.76 0.0201267 0.166044 -0.174641 0.970322 
3919 2 -776.174 2806.6 -606.119 0.706179 0.270053 0.165313 0.633288 
3918 2 -782.565 2805.33 -613.639 0.919538 -0.104752 0.375467 0.0500115 
3856 1 -696.489 2786.48 -573.873 0.881676 -0.0907593 0.328196 0.326647 
3929 2 -810.142 2785.39 -529.23 -0.801953 -0.126107 0.538989 -0.224631 
3857 3 -673.76 2792.69 -547.997 0.905381 -0.0309057 0.363737 0.216852 
3930 2 -817.797 2780.29 -525.46 -0.432918 0.266197 0.471949 -0.720407 
3862 2 -694.248 2839.56 -527.05 -0.620914 0.399342 0.234405 0.632492 
3855 2 -658.401 2761.81 -586.882 -0.0678615 0.128838 0.966467 -0.21151 
3852 2 -648.856 2766.47 -560.179 0.177603 -0.593237 -0.776939 0.113549 
3854 2 -656.881 2765.35 -577.766 -0.172136 -0.679556 0.708727 -0.0792374 
3853 2 -652.915 2767.94 -569.118 -0.171817 -0.967377 0.01075 0.185862 
3851 2 -645.752 2765.63 -550.807 0.100123 0.471915 -0.87202 -0.0827774 
3850 2 -644.06 2765.37 -541.092 0.0145015 0.961717 -0.266095 -0.0639048 
3849 2 -639.978 2768.66 -532.703 0.0408326 0.844886 0.449681 -0.286859 
3848 2 -637.531 2773.74 -524.637 -0.0154296 0.304056 0.896332 -0.322336 
3804 2 -601.378 2693.69 -534.834 -0.316387 -0.14968 -0.371567 0.859903 
3847 2 -636.216 2777.58 -515.656 -0.145091 -0.537089 0.81461 -0.163996 
3940 2 -855.5 2843.25 -557.65 0.841087 -0.465341 -0.212873 0.175257 
3941 2 -861.087 2850.15 -553.238 0.371793 -0.553346 0.406618 0.624692 
3942 2 -865.455 2859.02 -552.31 -0.154152 -0.0222388 0.710238 0.686516 
3943 2 -869.259 2868.05 -551.797 -0.576445 0.598209 0.48968 0.26471 
3944 2 -871.394 2877.67 -552.913 -0.513458 0.800071 -0.275095 -0.143426 
3945 2 -871.779 2887.07 -556.014 -0.362477 0.397396 -0.608297 -0.583663 
3946 2 -871.73 2896.88 -557.067 0.28108 -0.132683 -0.707574 -0.634609 
3947 2 -873.756 2906.54 -557.593 0.639235 -0.602633 -0.414196 -0.238019 
3948 2 -876.749 2915.81 -559.781 0.477365 -0.769177 0.289676 0.31077 
3949 2 -879.258 2924.9 -562.569 0.231392 -0.186334 0.80962 0.506214 
3951 2 -877.402 2942.93 -570.539 -0.513458 0.839703 0.176799 -0.00147691 
3950 2 -877.847 2933.97 -566.375 -0.335608 0.547136 0.660182 0.390088 
3954 2 -890.017 2962.31 -586.604 0.307814 -0.637555 -0.674982 0.207781 
3952 2 -878.663 2951.74 -574.834 -0.142849 0.694243 -0.472918 -0.523421 
3953 2 -884.502 2958.27 -579.345 0.327828 0.100556 -0.894672 -0.286321 
3955 2 -896.685 2963.54 -593.793 0.0407563 -0.933831 0.00243545 0.355376 
3956 2 -902.369 2964.57 -601.769 -0.168573 -0.551882 0.778057 0.248269 
3977 2 -897.944 2957.99 -541.004 -0.729753 -0.607966 0.310599 -0.0369453 
3978 2 -902.4 2949.08 -541.114 -0.397723 -0.0925205 0.562076 -0.719255 
3979 2 -905.458 2940.27 -537.467 0.186194 0.490471 0.252349 -0.813074 
4025 2 -828.749 2930.92 -549.038 0.706482 -0.38007 0.0779454 0.591907 
4024 2 -826.854 2922.88 -554.581 0.835891 -0.411811 -0.259597 -0.25359 
4023 2 -825.059 2914.02 -558.643 0.208058 -0.0961912 -0.583528 -0.779073 
4022 2 -824.342 2905.18 -562.863 -0.616715 0.434123 -0.324435 -0.570914 
4021 2 -828.097 2896.5 -565.657 -0.732246 0.595653 0.046021 0.326947 
4020 2 -834.025 2889.08 -568.837 -0.205579 0.498839 0.321225 0.778274 
3976 2 -894.282 2966.98 -542.112 -0.449758 -0.571927 -0.358453 0.584918 
4026 2 -830.674 2938.24 -542.704 -0.00531258 -0.0667483 0.467463 0.881473 
4027 2 -831.652 2946.98 -538.22 -0.715519 0.231251 0.41231 0.51435 
3975 2 -891.126 2976.13 -544.355 0.11744 -0.129625 -0.587013 0.790456 
3957 2 -908.131 2967.28 -609.478 -0.274529 0.172067 0.91253 0.249633 
3958 2 -912.191 2972.34 -616.912 -0.303708 0.7825 0.542429 -0.035016 
3974 2 -890.671 2985.45 -548.09 0.702239 0.429846 -0.329176 0.462316 
4028 2 -834.921 2954.51 -532.519 -0.844654 0.372426 0.267806 -0.275932 
3959 2 -915.706 2977.13 -624.768 -0.321906 0.859016 -0.253588 -0.306856 
4029 2 -841.183 2958.62 -526.194 -0.199888 0.356923 -0.0629921 -0.91032 
3960 2 -919.255 2983.57 -631.155 -0.138138 0.30213 -0.844059 -0.420951 
3980 2 -911.762 2933.73 -533.478 0.714365 0.390169 -0.168298 -0.555991 
3981 2 -917.633 2930.56 -526.186 0.962657 0.0704963 -0.197935 0.170714 
3973 2 -888.361 2992.85 -554.144 0.829985 0.461937 -0.0152326 -0.312261 
3982 2 -921.851 2928.4 -517.534 0.452919 -0.412869 -0.131205 0.779223 
4030 2 -846.734 2960.79 -518.395 0.443015 0.23554 -0.398962 -0.767521 
3961 2 -918.641 2990.95 -637.789 0.0868541 -0.402082 -0.744689 -0.52557 
3863 2 -693.239 2847.37 -521.02 -0.776664 0.60544 -0.169186 -0.0401413 
3864 2 -691.06 2856.4 -517.898 -0.623472 0.324671 -0.387573 -0.596371 
3911 3 -795.698 2846.96 -645.106 0.319915 0.414063 0.0647629 0.849713 
4018 1 -801.575 2867.99 -541.816 -0.815892 0.522572 -0.0443769 -0.243453 
3907 2 -792.934 2890.39 -657.604 -0.0229722 0.98263 -0.184125 0.00286441 
3906 2 -793.376 2892.17 -647.801 0.0632656 0.721094 0.689769 -0.0154634 
3905 2 -792.903 2896 -638.715 -0.098365 -0.339815 0.924256 -0.143527 
3904 2 -791.38 2901.35 -630.493 -0.278888 -0.937546 0.207595 -0.0115339 
3903 2 -789.994 2905.19 -621.458 -0.12065 -0.654286 -0.714252 0.217247 
3902 2 -784.799 2910.62 -615.031 0.338173 0.160355 -0.89172 0.254482 
3901 2 -776.663 2913.61 -610.25 0.360481 0.779771 -0.383903 -0.338569 
3900 2 -767.344 2915.11 -607.52 -0.0935056 0.751169 0.223316 -0.614111 
3899 2 -757.584 2915.52 -609.154 -0.711728 0.192779 0.618195 -0.27224 
3898 2 -747.883 2915.42 -607.525 -0.547709 -0.36593 0.676034 0.330283 
3897 2 -738.177 2914.95 -605.895 -0.18956 -0.745787 0.271993 0.577831 
3896 2 -728.334 2913.79 -605.983 0.419688 -0.589448 -0.319843 0.611648 
3895 2 -719.483 2909.78 -603.791 0.62264 -0.348573 -0.699255 0.0431217 
3894 2 -711.8 2905.91 -598.797 0.357859 0.351336 -0.788758 -0.355473 
3893 2 -702.521 2904.64 -595.825 0.165685 0.759431 -0.273856 -0.566406 
3892 2 -694.37 2904.89 -590.272 -0.234896 0.732646 0.504405 -0.391955 
3891 2 -684.797 2903.51 -588.095 -0.635739 0.191402 0.746672 -0.0410273 
3890 2 -676.327 2900.4 -592.152 -0.50802 -0.284692 0.466171 0.665996 
4019 3 -807.004 2898.56 -525.586 -0.80121 0.547525 -0.000341004 -0.24141 
3873 2 -670.281 2927.91 -519.211 0.334723 -0.872789 0.0930086 -0.342854 
3889 2 -668.678 2897.74 -597.796 0.421299 -0.494619 -0.000635895 0.76017 
3888 2 -662.483 2893.49 -604.43 0.895335 -0.29028 -0.25469 0.221914 
3874 2 -663.736 2933.55 -524.046 0.455374 -0.406818 0.772749 -0.173182 
3875 2 -655.677 2935.45 -529.46 0.458305 0.186357 0.801794 0.335192 
3887 2 -655.348 2894.31 -611.137 0.786908 0.246978 -0.297713 -0.480775 
3886 2 -646.582 2892.33 -615.196 0.11453 0.52036 -0.174329 -0.828081 
3885 2 -638.791 2891.19 -621.126 -0.564455 0.382988 0.272948 -0.678387 
3884 3 -638 2919.39 -577.554 -0.496503 0.440365 0.263509 -0.70009 
3882 2 -597.229 2947.33 -561.421 0.629295 0.239251 0.706839 0.217083 
3883 1 -608.32 2917.22 -596.133 -0.497157 0.411266 0.26555 -0.716365 
3881 2 -607.039 2947.58 -559.876 0.548945 -0.376046 0.666495 -0.336203 
3880 2 -615.077 2947.35 -554.229 0.0128306 -0.87468 0.138085 -0.464437 
3879 2 -622.137 2944.46 -548.026 -0.280363 -0.472057 -0.722932 -0.419438 
3878 2 -630.045 2942.71 -542.387 -0.47341 0.178732 -0.861482 -0.0422721 
3877 2 -638.266 2941.54 -536.826 -0.211281 0.824136 -0.328604 0.410096 
3876 2 -647.395 2939.18 -533.454 0.126948 0.733395 0.385474 0.545368 
4047 2 -977.816 3023.84 -530.651 -0.516408 0.629667 -0.31428 0.487925 
4048 2 -968.693 3027.47 -529.338 -0.863715 0.0884235 -0.495465 0.0263109 
3972 2 -885.253 3002.09 -556.276 0.249596 0.394027 0.494993 -0.733094 
3963 2 -914.591 3007.42 -647.777 0.43083 -0.762615 0.470171 0.108367 
3971 2 -881.398 3010.9 -558.981 -0.451436 -0.0658015 0.556064 -0.694743 
3970 2 -878.742 3019.96 -561.702 -0.813399 -0.560701 0.127357 0.0881827 
3965 3 -895.179 3010.74 -599.502 0.828282 0.457577 0.0192988 -0.322799 
3969 2 -874.16 3028.25 -564.935 -0.350247 -0.493711 -0.295874 0.738942 
3962 2 -916.631 2999.82 -641.858 0.397452 -0.880878 -0.18203 -0.181523 
3968 2 -872.11 3036.74 -569.625 0.187401 -0.0297026 -0.486432 0.852867 
3967 2 -869.429 3044.5 -575.063 0.795075 0.374962 -0.321353 0.352125 
3966 2 -870.772 3052.46 -580.757 0.841201 0.366276 0.237396 -0.319165 
3964 1 -890.061 3037.76 -621.304 0.825493 0.398137 0.0675621 -0.394313 
4049 2 -960.128 3028.71 -524.46 -0.450527 -0.273944 -0.496665 -0.689423 
4050 2 -952.309 3033.24 -520.615 0.203284 -0.583952 -0.188861 -0.762894 
4051 2 -944.913 3038.68 -516.791 0.850425 -0.354407 0.20223 -0.332078 
2420 2 -34.7807 458.271 -386.129 0.592758 0.438776 0.0359748 -0.674403 
2436 2 -18.1307 525.087 -382.333 -0.415531 0.129497 0.872073 0.223725 
2419 2 -30.1906 464.719 -392.052 -0.177574 0.226602 0.376107 -0.880717 
2418 2 -22.3526 468.301 -396.799 -0.840139 -0.108488 0.496654 -0.189028 
2417 2 -13.0753 471.913 -397.041 -0.608026 -0.596895 0.35526 0.384461 
2416 2 -3.48745 473.724 -397.954 0.063322 -0.639599 -0.184393 0.743574 
2415 2 5.92649 476.403 -400.226 0.633953 -0.149655 -0.627128 0.427103 
2414 2 15.6877 478.315 -400.126 0.644782 0.387679 -0.60255 -0.26626 
2413 2 25.1773 480.914 -400.683 0.097488 0.688458 0.111868 -0.709934 
2412 2 35.0064 480.356 -399.906 -0.553816 0.423714 0.635202 -0.332073 
2411 2 44.7607 480.551 -398.076 -0.579946 -0.309333 0.713909 0.241473 
2410 2 54.5665 480.855 -398.591 -0.255278 -0.665174 0.240376 0.659239 
2409 2 64.3234 482.655 -398.525 0.263148 -0.591175 -0.415843 0.639015 
2408 2 72.911 487.352 -396.674 0.587227 0.000511602 -0.753117 0.296613 
2407 2 82.8379 486.86 -395.526 0.523572 0.47252 -0.576629 -0.412426 
2406 2 92.4241 485.414 -393.409 -0.125416 0.743677 0.00604775 -0.656642 
2437 2 -24.507 529.984 -388.088 -0.307336 0.84686 0.433939 -0.00832419 
2393 2 61.1126 522.185 -437.032 0.293037 0.850934 -0.0107371 0.435805 
2394 2 68.085 516.904 -441.673 -0.190515 0.541645 -0.756134 0.313985 
2395 2 74.4439 513.751 -448.488 -0.289128 -0.331707 -0.897031 0.0413661 
2396 2 79.7379 510.226 -455.901 -0.174038 -0.916283 -0.347823 -0.0956855 
2397 2 82.9492 508.369 -464.996 -0.0610467 -0.872184 0.438603 -0.207835 
2438 2 -27.6848 535.985 -395.256 -0.381193 0.853506 -0.283923 -0.213559 
2435 2 -10.6708 520.837 -377.245 -0.112726 -0.610665 0.631897 0.463775 
2439 2 -29.7556 543.786 -401.141 -0.172094 0.328844 -0.764243 -0.527426 
2392 2 58.2928 527.732 -429.299 0.310379 0.651389 0.671892 -0.16709 
2391 2 55.9061 532.326 -420.908 0.0498212 -0.114267 0.951725 -0.280499 
2390 2 55.1537 537.623 -412.554 -0.191223 -0.795143 0.541755 -0.194119 
2434 2 -5.41534 518.13 -369.235 0.140499 -0.939772 -0.161016 0.266764 
2389 2 54.3588 544.195 -405.288 -0.377774 -0.837008 -0.393909 0.0392549 
2388 2 54.911 550.452 -397.636 -0.00979919 -0.250064 -0.911107 0.3275 
2421 2 -39.7982 452.246 -380.086 0.867398 0.220892 -0.26543 0.358294 
2422 2 -43.2861 446.034 -373.179 0.186855 -0.0866393 -0.267177 0.941379 
2423 2 -45.8064 440.879 -365.024 -0.73219 -0.235868 -0.0864373 0.633082 
2440 2 -30.8982 552.823 -405.183 0.476243 -0.360964 -0.658341 -0.457694 
2399 3 96.6864 504.942 -415.056 -0.48617 -0.258461 0.139284 0.823066 
2405 2 102.078 486.744 -392.875 -0.557742 0.286087 0.663394 -0.408638 
2404 2 112.023 487.444 -392.814 -0.657321 -0.229632 0.683449 0.219306 
2403 2 119.468 493.694 -390.935 -0.497183 -0.734068 0.0440486 0.460449 
2398 1 122.126 507.868 -438.665 -0.474479 -0.275649 0.121366 0.827138 
2402 2 127.076 499.791 -392.187 0.148751 -0.408675 -0.552083 0.711381 
2401 2 136.33 502.686 -394.661 0.747786 -0.00606524 -0.618829 0.24048 
2400 2 145.556 503.709 -397.997 0.664823 0.428427 -0.333152 -0.513294 
2452 1 -81.8672 668.326 -418.149 0.490284 0.269369 -0.687065 0.463685 
2455 2 -123.999 654.925 -440.405 -0.514822 -0.254708 0.474313 -0.667164 
2454 2 -120.292 662.868 -445.031 -0.83967 -0.482115 0.220991 0.11697 
2453 3 -87.6908 633.712 -416.865 0.524837 0.231606 -0.652965 0.494511 
2456 2 -126.101 646.34 -435.802 0.0957467 0.353133 0.509129 -0.779049 
2457 2 -130.12 637.916 -433.05 0.648896 0.564492 0.100994 -0.500083 
2458 2 -133.634 629.481 -429.241 0.785942 0.53053 -0.204632 0.242815 
2459 2 -135.124 620.338 -425.724 0.322673 0.143018 -0.483511 0.801028 
2460 2 -135.965 611.947 -420.446 -0.413333 -0.262371 -0.358857 0.794695 
2461 2 -136.382 604.667 -413.72 -0.918575 -0.329756 -0.0250202 0.21646 
2462 2 -137.48 599.224 -405.492 -0.696456 -0.0652954 0.17316 -0.693326 
2463 2 -140.176 595.975 -396.621 0.219473 0.359739 0.0372299 -0.906109 
2464 2 -146.493 592.717 -389.612 0.825164 0.19233 -0.332047 -0.414559 
2465 2 -153.549 592.06 -382.612 0.796101 -0.0239655 -0.507711 0.328447 
2466 2 -161.712 589.456 -377.631 0.186798 -0.398621 -0.215118 0.871741 
2467 2 -170.009 588.32 -372.158 -0.55434 -0.400566 0.0719456 0.726001 
2468 2 -177.051 585.186 -365.973 -0.902282 -0.143614 0.405802 0.0242113 
2449 2 -49.8581 633.453 -389.67 0.222201 -0.0996679 0.580623 0.776897 
2448 2 -52.1583 624.078 -392.256 0.753961 -0.545412 0.278614 0.237578 
2447 2 -54.4942 615.187 -395.673 0.687674 -0.537108 -0.166795 -0.459129 
2387 2 58.2661 556.419 -390.544 0.333122 0.497266 -0.788546 0.141248 
2446 2 -51.6229 606.907 -400.252 0.31864 0.00811172 -0.442859 -0.838021 
2386 2 61.3417 557.947 -381.196 0.136056 0.932891 -0.318283 -0.0994941 
2450 2 -49.2211 643.053 -387.611 -0.418299 0.494242 0.51974 0.557333 
2385 2 66.7644 556.342 -373.088 -0.24014 0.845607 0.439104 -0.18566 
2451 2 -48.4471 652.834 -388.653 -0.686536 0.726473 -0.0086919 0.0288207 
2441 2 -33.7972 562.111 -406.126 0.612322 -0.737433 -0.100172 0.26687 
2445 2 -49.655 597.605 -402.797 -0.420611 0.509146 -0.37743 -0.649155 
2444 2 -46.4074 588.416 -403.712 -0.723584 0.623129 0.296153 -0.0207087 
2443 2 -43.1737 579.066 -403.931 -0.46578 0.248524 0.634879 0.564105 
2442 2 -38.5853 570.741 -406.442 0.17095 -0.394646 0.454185 0.780222 
2384 2 72.0449 555.589 -364.696 -0.290308 0.00406043 0.95482 0.0634394 
2786 2 -355.104 987.218 -366.74 -0.646162 -0.448231 0.101766 0.609268 
2785 2 -347.785 991.235 -372.064 -0.126288 -0.477142 -0.166322 0.853653 
2640 2 -230.119 934.855 -389.828 0.506651 -0.502367 0.547768 0.436901 
2639 2 -231.25 925.162 -388.221 0.666482 -0.734867 -0.0633967 -0.108411 
2638 2 -231.006 915.384 -386.309 0.348391 -0.434321 -0.644759 -0.523713 
2637 2 -230.162 905.855 -383.543 -0.0946812 0.280431 -0.742065 -0.601443 
2761 2 -235.648 1005.6 -407.838 -0.0844559 -0.2502 -0.126976 0.956109 
2760 2 -232.415 1006.09 -417.246 0.732419 -0.0659706 -0.163925 0.657524 
2762 2 -240.596 1002.56 -399.917 -0.725898 -0.299717 0.0440569 0.617496 
2636 2 -228.547 896.905 -379.593 -0.447938 0.783534 -0.307496 -0.30145 
2759 2 -228.539 1003.81 -426.156 0.923513 -0.0916642 -0.202797 -0.312401 
2635 2 -226.385 887.616 -377.095 -0.588696 0.717044 0.354112 0.117853 
2634 2 -225.063 878.65 -372.978 -0.209481 0.199944 0.819139 0.495127 
2763 2 -245.288 999.814 -391.589 -0.954604 -0.0627162 0.118008 -0.266218 
2764 2 -247.021 996.987 -382.242 -0.427267 0.138625 0.139344 -0.882501 
2758 2 -225.317 1000.19 -434.762 0.298095 0.113733 -0.217262 -0.922497 
2757 2 -219.683 997.398 -442.349 -0.443953 0.343193 -0.0251444 -0.82734 
2750 3 -222.254 1002.17 -486.948 -0.40852 -0.227062 0.317614 0.825031 
2765 2 -251.288 995.935 -373.406 0.413833 0.162933 -0.256731 -0.85807 
2784 2 -341.414 997.466 -376.593 0.421389 -0.11036 -0.504098 0.745746 
2633 2 -221.65 870.419 -368.947 0.0988607 -0.517854 0.63145 0.568617 
2632 2 -216.731 863.068 -364.587 0.473182 -0.838321 -0.147598 0.227005 
2783 2 -336.885 1002.55 -383.761 0.934104 0.269614 -0.230993 0.0374175 
2756 2 -213.954 994.38 -449.926 -0.937083 0.195724 0.281773 -0.0645807 
2782 2 -333.102 1008.55 -390.71 0.629484 0.378934 0.122321 -0.667231 
2766 2 -256.595 998.94 -365.586 0.900759 -0.110363 -0.370737 -0.197503 
2749 1 -203.044 988.146 -512.551 -0.407329 -0.164834 0.258169 0.860385 
2694 2 -208.923 938.784 -366.648 -0.0381276 0.615859 -0.757811 -0.2121 
2755 2 -205.679 989.984 -452.802 -0.50178 -0.265335 0.553029 0.609895 
2754 2 -196.5 986.736 -454.29 0.150226 -0.680161 0.0686304 0.714215 
2752 2 -183.177 985.354 -468.14 0.790554 0.262453 -0.301819 -0.463732 
2753 2 -190.257 983.993 -461.322 0.857276 -0.237869 -0.227939 0.395652 
2751 2 -176.396 981.352 -474.268 -0.0379514 0.397639 -0.176021 -0.899699 
2695 1 -185.864 979.518 -361.758 -0.929946 -0.106422 0.0819104 0.342294 
2781 2 -331.325 1016.37 -396.536 0.00232947 0.0937722 0.475063 -0.874938 
2780 2 -329.632 1024.58 -401.82 -0.686109 -0.33979 0.39255 -0.50961 
2778 2 -327.31 1041.12 -412.452 -0.396321 -0.289729 -0.371436 0.78805 
2779 2 -328.709 1032.8 -407.217 -0.873307 -0.471947 -0.0203132 0.119111 
2744 2 -255.92 1027.5 -509.431 0.127071 0.297611 -0.85289 0.409707 
2743 2 -256.986 1035.15 -503.104 0.382013 0.853847 -0.271932 0.225973 
2742 2 -259.367 1044.83 -503.288 0.625292 0.555512 0.453093 -0.30842 
2741 2 -260.912 1052.88 -497.626 0.109133 -0.0252364 0.900036 -0.421175 
2740 2 -261.303 1059.27 -490.119 -0.280697 -0.803655 0.494168 -0.176482 
2736 2 -265.323 1086.85 -462.402 0.385628 0.799053 -0.447046 0.11382 
2732 2 -257.22 1121.46 -448.394 -0.69813 -0.695344 0.169403 0.0203331 
2731 2 -254.187 1130.85 -449.143 -0.484911 -0.602158 -0.385995 0.503265 
2739 2 -261.991 1066.4 -483.187 -0.381459 -0.899072 -0.214843 0.00106805 
2737 2 -266.621 1079.57 -469.037 -0.0493522 0.171939 -0.900653 0.396013 
2738 2 -264.35 1072.83 -476.014 -0.265223 -0.477744 -0.815403 0.19114 
2734 2 -263.709 1103.22 -451.951 0.0944059 0.44355 0.720729 -0.52431 
2733 2 -260.875 1112.27 -449.244 -0.386297 -0.256807 0.738109 -0.489918 
2735 2 -266.035 1094.66 -456.436 0.441383 0.855423 0.268586 -0.0359654 
2730 2 -252.203 1140.48 -448.405 0.0918971 -0.0375913 -0.720871 0.68592 
2729 2 -250.966 1150.29 -448.79 0.628636 0.531233 -0.445714 0.352061 
2776 1 -306.163 1063.2 -376.493 0.285812 0.363247 -0.54554 0.699106 
2777 3 -299.055 1029.52 -370.567 0.365186 0.384952 -0.523393 0.666717 
2717 2 -284.024 1131.4 -374.839 0.531138 -0.731543 0.0544302 0.423999 
2716 2 -277.248 1124.12 -374.915 0.667006 -0.431681 -0.586939 -0.155749 
2715 2 -272.548 1116.29 -378.473 0.261775 0.0829673 -0.562176 -0.780095 
2720 2 -303.994 1152.05 -374.467 -0.781312 0.51333 0.339629 -0.103422 
2718 2 -289.719 1139.32 -376.089 0.0255984 -0.449062 0.534683 0.715404 
2719 2 -295.531 1147.29 -375.614 -0.661675 -0.000781571 0.662622 0.350881 
2714 2 -269.999 1106.88 -380.549 -0.432931 0.45511 -0.402233 -0.666074 
2713 2 -267.324 1097.5 -379.09 -0.620968 0.77358 0.0912676 -0.0874223 
2712 2 -259.914 1091.06 -380.689 -0.751043 0.341846 0.532675 0.187973 
2723 3 -272.664 1156.92 -407.692 -0.346979 -0.039293 -0.735545 0.580548 
2728 2 -253.682 1159.64 -446.616 0.575077 0.733719 0.347605 -0.100568 