ITEM: TIMESTEP
100000000
ITEM: NUMBER OF ATOMS
4067
ITEM: BOX BOUNDS pp pp pp
-4.6310929470000001e+03 4.6704658980000004e+03
-4.6310929470000001e+03 4.6704658980000004e+03
-4.6310929470000001e+03 4.6704658980000004e+03
ITEM: ATOMS id type x y z c_q[1] c_q[2] c_q[3] c_q[4] 
3127 1 -392.442 1538.99 -686.156 -0.970283 0.176368 -0.160674 0.040359 
3129 2 -402.184 1584.98 -681.699 -0.892425 0.268489 -0.360697 0.0372781 
3130 2 -395.722 1589.59 -675.894 -0.678118 -0.200236 -0.326191 -0.627424 
3131 2 -388.901 1591.56 -669.027 0.170794 -0.379125 -0.0150299 -0.909323 
3126 2 -375.346 1497.85 -670.788 0.159257 0.963352 -0.160433 -0.144401 
3396 2 -538.469 1742.79 -674.055 0.266827 0.845928 -0.134411 -0.44175 
3395 2 -530.702 1746.74 -669.463 -0.117919 0.656839 0.554309 -0.497392 
3397 1 -556.698 1786.23 -671.919 -0.840133 0.14127 -0.523566 -0.00989774 
3436 2 -527.452 2049.64 -685.024 0.124626 -0.572642 0.28757 0.757531 
3437 2 -535.306 2055.25 -682.824 -0.597727 -0.264018 0.518941 0.551106 
3438 2 -544.231 2058.25 -679.896 -0.703388 0.336798 0.594507 -0.195892 
3439 2 -553.734 2060.89 -679.255 -0.157743 0.634728 -0.0375165 -0.755533 
3440 2 -563.164 2063.92 -678.337 0.414687 0.350634 -0.604732 -0.582572 
3441 2 -572.352 2067.58 -678.455 0.687011 -0.483339 -0.536584 0.0804749 
3442 2 -580.441 2073.27 -678.77 0.394528 -0.736509 -0.00719335 0.54941 
3435 2 -519.456 2044.5 -682.494 0.450182 -0.746217 -0.287071 0.397601 
3434 2 -512.366 2038.18 -679.715 0.576992 -0.395231 -0.699524 -0.146761 
3426 2 -446.906 2032.57 -698.776 0.608881 0.604806 -0.142537 -0.49311 
3427 2 -454.385 2026.63 -696.131 0.80827 0.137463 -0.543532 0.179935 
3428 2 -462.231 2021.78 -692.358 0.30549 -0.372473 -0.224651 0.847037 
3429 2 -469.454 2020.61 -685.839 -0.473745 -0.442016 0.246674 0.720652 
3430 2 -477.566 2020.06 -680.313 -0.687179 0.209496 0.667746 0.194969 
3431 2 -485.755 2025.74 -680.283 -0.537687 0.674868 0.208478 -0.460416 
3433 2 -503.641 2033.6 -679.074 0.488847 0.240397 -0.674668 -0.498058 
3432 2 -494.21 2030.86 -680.048 0.107937 0.618531 -0.243032 -0.739395 
3443 2 -588.513 2078.96 -679.592 -0.270063 -0.46673 0.491187 0.684079 
3444 2 -597.347 2083.23 -678.379 -0.759143 -0.0498467 0.607819 0.227538 
3445 2 -606.455 2084.68 -674.754 -0.752481 0.373539 0.305845 -0.447996 
3446 2 -615.004 2087.62 -671.012 -0.102109 0.500051 -0.043888 -0.858834 
2695 1 -363.858 861.931 -528.513 -0.58997 0.295603 0.0653618 0.74852 
2697 2 -317.324 862.561 -536.018 -0.385821 0.0321422 0.00406852 -0.922004 
2698 2 -317.817 862.78 -526.297 0.541537 -0.0916429 -0.0343825 -0.834959 
2699 2 -317.228 864.68 -516.516 0.993447 -0.108404 0.0195589 -0.030476 
3125 2 -372.084 1500.51 -661.931 -0.0161527 0.682627 0.700891 -0.206183 
3132 2 -381.961 1593.61 -662.248 0.684499 -0.284391 0.413206 -0.529003 
3133 2 -373.683 1593.83 -656.934 0.862679 -0.0691869 0.473364 0.164089 
3100 1 -428.493 1572.14 -552.787 0.731452 -0.213795 0.390291 -0.516665 
3104 2 -378.797 1594.6 -559.714 0.720395 0.32752 0.552258 0.262245 
3105 2 -369.173 1592.59 -559.035 0.237543 0.678215 -0.03718 0.694418 
3128 3 -382.326 1546.22 -653.504 -0.9867 0.103255 -0.125546 7.21026e-05 
3103 2 -387.734 1596.52 -563.508 0.745854 -0.233475 0.486598 -0.390403 
3102 2 -395.094 1602.03 -567.47 0.0369666 -0.494438 0.298763 -0.815417 
3101 3 -402.843 1567.3 -529.583 0.736175 -0.252652 0.396884 -0.486515 
3099 2 -446.481 1540.3 -522.953 -0.353949 -0.0655463 0.922252 0.140979 
3124 2 -369.842 1501.87 -652.412 -0.163058 -0.309153 0.936901 0.00722444 
3134 2 -365.928 1596.64 -651.437 0.303789 0.253209 0.228452 0.889611 
3098 2 -439.391 1537.89 -516.407 -0.0779229 -0.760234 0.519616 0.382063 
3123 2 -365.99 1502.6 -643.334 -0.124348 -0.901332 0.348114 0.225731 
3106 2 -360.353 1588.52 -556.905 -0.200229 0.256087 -0.557865 0.763619 
3122 2 -359.904 1502.93 -635.457 0.155211 -0.847204 -0.397016 0.317069 
3107 2 -353.493 1581.73 -554.902 -0.725852 -0.23999 -0.54782 0.33976 
3121 2 -351.72 1503.27 -629.843 0.451481 -0.289166 -0.833322 0.134619 
3120 2 -344.814 1501.97 -622.787 0.346159 0.316948 -0.84814 -0.245716 
3108 2 -347.018 1574.89 -551.567 -0.616039 -0.681525 -0.249455 -0.306255 
3135 2 -359.605 1598.86 -644.244 -0.465002 0.536404 -0.0651122 0.701287 
3109 2 -339.881 1568.07 -551.596 -0.134453 -0.56975 0.497373 -0.640256 
3136 2 -351.524 1602.91 -640.442 -0.748725 0.467942 -0.458157 0.102628 
3118 2 -338.218 1507.87 -605.32 0.163621 0.892716 0.366473 -0.204902 
3117 2 -335.66 1511.34 -596.425 -0.0134336 0.344117 0.914309 -0.213173 
3119 2 -341.397 1503.98 -613.766 0.158504 0.875411 -0.439412 -0.124294 
3116 2 -331.426 1517.61 -589.889 -0.374864 -0.439814 0.798197 -0.170064 
3115 2 -329.369 1523.95 -582.563 -0.341605 -0.932629 0.106685 0.0461212 
3114 2 -330.155 1530.78 -575.339 -0.306452 -0.656556 -0.652605 0.221647 
3113 2 -332.308 1537.97 -568.749 0.030073 0.189358 -0.888991 0.415853 
3112 2 -328.295 1545.98 -564.641 0.508979 0.757042 -0.409548 0.00993025 
3152 2 -216.024 1600.04 -577.424 -0.0597835 -0.551127 0.269195 -0.78754 
3111 2 -328.323 1554.44 -559.508 0.391552 0.717785 0.47421 -0.326491 
3110 2 -334.245 1560.25 -553.989 0.28959 -0.0864578 0.887412 -0.348084 
3137 2 -343.684 1608.3 -637.865 -0.573446 -0.0855313 -0.581418 -0.570787 
3138 2 -335.694 1613.97 -635.344 -0.0888248 -0.520477 -0.155091 -0.834961 
3139 2 -327.126 1616.68 -631.089 0.638138 -0.40835 0.340569 -0.556815 
3140 2 -318.161 1617.34 -627.024 0.787517 0.0075842 0.588488 0.182868 
3151 2 -223.729 1605.38 -580.476 -0.68323 -0.555288 -0.143133 -0.452067 
3141 2 -309.213 1618.96 -623.303 0.397455 0.444501 0.215833 0.773217 
3142 2 -301.035 1617.63 -617.981 -0.314462 0.467031 -0.142602 0.814039 
3143 2 -292.514 1617.77 -613.049 -0.835034 0.139913 -0.488462 0.211061 
3150 2 -232.92 1609.13 -581.698 -0.734741 -0.0638428 -0.633476 0.234071 
3148 2 -247.634 1614.56 -593.53 0.427807 0.357337 0.0257043 0.829838 
3147 2 -255.601 1616.03 -599.372 0.834044 0.204731 0.481729 0.174333 
3149 2 -241.008 1611.72 -586.927 -0.311846 0.390572 -0.344948 0.794491 
3146 2 -264.952 1615.49 -602.56 0.679315 -0.35557 0.454642 -0.453213 
3144 2 -283.8 1617.97 -608.445 -0.696371 -0.382623 -0.387356 -0.467571 
3145 2 -274.667 1615.83 -604.82 -0.0621979 -0.630009 0.0239153 -0.773723 
3153 2 -207.693 1595.69 -574.391 0.656547 -0.116535 0.569371 -0.480814 
3154 1 -204.228 1594.38 -527.397 -0.115495 -0.288985 0.687281 0.656349 
3394 2 -523.153 1746.48 -663.034 -0.397235 0.00646017 0.917111 -0.0326973 
3393 2 -514.006 1747.46 -659.194 -0.366533 -0.716928 0.409174 0.429238 
3384 2 -509.883 1772.8 -579.082 -0.32879 -0.514419 -0.791846 0.0158112 
3392 2 -507.305 1748.91 -652.132 0.0239036 -0.881577 -0.232619 0.410048 
3391 2 -506.214 1751.48 -642.751 0.00210639 -0.4413 -0.88184 0.166156 
3390 2 -507.467 1753.7 -633.215 -0.0392717 0.241786 -0.956391 0.159103 
3388 2 -507.694 1758.41 -613.908 0.164069 0.74063 0.635578 -0.143486 
3389 2 -507.552 1755.5 -623.411 0.092395 0.96104 -0.258886 0.0290299 
3387 2 -505.95 1760.67 -604.332 -0.0504234 0.112236 0.983785 -0.130489 
3386 2 -505.416 1764.69 -595.28 -0.117417 -0.657945 0.73442 -0.118104 
3385 2 -504.765 1770.25 -587.164 -0.270096 -0.958566 -0.0678384 0.0599748 
3155 3 -225.039 1621.93 -533.172 -0.177416 -0.266699 0.635886 0.702171 
3383 2 -516.791 1777.53 -573.898 -0.328493 0.276464 -0.823482 0.37086 
3399 2 -555.398 1832.06 -660.859 -0.788663 0.272905 -0.492788 0.246359 
3400 2 -546.128 1833.66 -658.127 -0.597625 -0.238062 -0.604543 -0.469786 
3376 2 -571.085 1811.77 -582.723 -0.810124 -0.141359 -0.412171 0.392214 
3375 2 -575.762 1816.98 -589.745 -0.272303 0.17476 -0.337773 0.883866 
3377 2 -566.124 1806.57 -575.965 -0.759086 -0.463515 -0.280617 -0.360828 
3378 2 -559.246 1800.8 -571.583 -0.318932 -0.661225 0.225636 -0.640431 
3374 2 -579.826 1823.51 -595.924 0.490358 0.293217 -0.262062 0.777751 
3373 2 -582.379 1830.73 -602.268 0.894649 0.421663 0.038729 0.142492 
3372 2 -586.567 1838.63 -606.48 0.614619 0.193394 0.51252 -0.567596 
3370 1 -575.285 1874.64 -578.046 -0.176726 -0.480108 0.398746 -0.761095 
3371 3 -554.144 1848.84 -567.256 -0.162201 -0.4814 0.333467 -0.794194 
3379 2 -551.568 1794.55 -570.319 0.357732 -0.322822 0.692149 -0.537348 
3380 2 -543.413 1788.74 -571.044 0.743237 0.329813 0.567186 -0.130851 
3369 2 -549.754 1895.04 -544.059 -0.0154811 -0.457649 0.622016 0.635149 
3368 2 -543.569 1887.51 -542.432 0.435285 -0.782819 0.067421 0.439517 
3366 2 -528.942 1874.56 -541.756 0.469792 -0.031774 -0.701655 -0.534759 
3367 2 -535.082 1882.33 -542.312 0.70855 -0.35325 -0.607702 0.0622046 
3401 2 -537.235 1837.6 -655.895 0.116387 -0.738363 -0.00330389 -0.664276 
3381 2 -535.416 1783.12 -570.025 0.485954 0.64031 0.38042 0.457311 
3398 3 -524.908 1790.06 -657.601 -0.870436 0.0762811 -0.485466 -0.0290692 
3402 2 -527.59 1839.54 -657.129 0.633101 -0.504118 0.537118 -0.237807 
3382 2 -525.878 1780.55 -570.995 -0.0756263 0.70991 -0.35077 0.606027 
3365 2 -520.007 1870.43 -542.661 0.123218 0.525605 -0.386891 -0.747577 
3403 2 -518.637 1843.68 -658.102 0.514315 -0.11264 0.743877 0.411629 
3364 2 -511.062 1866.82 -540.358 -0.364933 0.761395 0.268189 -0.46387 
3404 2 -511.478 1850.54 -659.195 0.0478743 0.430129 0.507369 0.745167 
3405 2 -504.733 1857.54 -657.499 -0.689237 0.441254 -0.0339274 0.573669 
3406 2 -498.972 1864.2 -652.827 -0.750985 0.383758 -0.46226 -0.273984 
3408 2 -488.871 1880.67 -648.747 0.336218 -0.635463 -0.385878 -0.578137 
3409 2 -483.446 1888.79 -650.352 0.586416 -0.69616 0.39911 -0.110406 
3407 2 -494.148 1872.53 -650.361 -0.24943 -0.180713 -0.612008 -0.728405 
3363 2 -504.435 1859.7 -538.599 -0.570308 0.286725 0.711561 0.293629 
3410 2 -476.896 1895.59 -653.402 0.266834 -0.0115717 0.866684 0.421337 
3411 2 -471.641 1903.27 -656.957 -0.044425 0.65222 0.472819 0.590828 
3362 2 -496.884 1853.6 -536.743 -0.127319 -0.448103 0.644074 0.606764 
3361 2 -488.441 1852.89 -531.521 0.139239 -0.85162 -0.0622051 0.501484 
3360 2 -481.385 1852.16 -524.588 0.378627 -0.474582 -0.784109 0.12879 
3412 2 -463.84 1908.91 -659.469 -0.425249 0.791814 -0.0797312 0.431088 
3413 2 -456.486 1914.98 -662.434 -0.654283 0.340738 -0.674583 -0.0273747 
3359 2 -473.812 1849.42 -518.771 0.374122 0.240842 -0.866779 -0.225215 
3414 2 -448.02 1920.06 -663.13 -0.253736 -0.176566 -0.518409 -0.797305 
3289 1 -322.861 1871.34 -520.951 0.555696 -0.181948 -0.034188 0.810511 
3453 2 -645.459 2001.94 -645.135 0.800843 -0.156257 0.575352 0.0566025 
3451 1 -659.367 2046.43 -652.349 0.0976523 0.680045 0.280428 0.670345 
3452 3 -624.562 2048.43 -654.502 0.08915 0.67816 0.205621 0.699908 
3454 2 -636.21 2004.4 -642.332 0.464086 0.287114 0.477995 0.688267 
3459 2 -605.314 2022.19 -609.165 0.751257 -0.356625 0.268533 -0.48613 
3460 2 -597.877 2024.77 -603.283 0.875289 -0.0804705 0.306542 0.365275 
3455 2 -627.8 2007.61 -638.164 -0.337815 0.318029 0.086368 0.881634 
3458 2 -612.07 2018.59 -615.573 0.0470372 -0.440733 -0.183561 -0.87741 
3456 2 -621.922 2010.97 -630.854 -0.893468 0.337686 -0.222915 0.194913 
3457 2 -617.049 2015.86 -623.619 -0.791025 -0.0967491 -0.281602 -0.534434 
3461 2 -592.927 2027.84 -595.245 0.310819 0.0578674 0.299982 0.90003 
3462 2 -590.189 2033.8 -587.906 -0.627473 0.102772 0.304291 0.709312 
3464 2 -597.955 2044.77 -573.717 -0.371202 0.386171 -0.216662 -0.816173 
3463 2 -592.862 2039.13 -580.039 -0.885822 0.393952 0.191937 -0.152585 
3465 2 -603.308 2050.96 -567.985 0.34295 0.128943 -0.531508 -0.763713 
3466 2 -609.578 2057.64 -564.6 0.926859 -0.18482 -0.291713 -0.147237 
3467 2 -615.023 2062.87 -558.228 0.775081 -0.374352 -0.0395006 0.507494 
3468 2 -619.285 2068.62 -551.515 0.142566 -0.278593 0.215174 0.925073 
3469 2 -623.622 2072.62 -543.585 -0.667448 -0.0350591 0.194349 0.717992 
3470 2 -625.957 2075.06 -534.163 -0.928467 0.251014 0.149516 -0.229315 
3415 2 -442.097 1926.64 -658.632 0.377889 -0.588523 -0.118568 -0.704828 
3424 1 -418.942 2017.49 -663.977 0.560313 0.0666523 -0.676054 0.473876 
3425 3 -445.922 1995.12 -662.866 0.635482 0.113951 -0.648594 0.403117 
3416 2 -435.036 1932.99 -656.087 0.768506 -0.543166 0.313791 0.126116 
3417 2 -430.353 1941.7 -654.452 0.396951 -0.207272 0.554357 0.701539 
3418 2 -429.02 1950.81 -650.567 -0.120508 0.336055 0.388409 0.84952 
3419 2 -424.189 1957.89 -645.662 -0.844984 0.414824 0.0222407 0.336792 
3420 2 -421.702 1965.37 -639.655 -0.791669 0.305359 -0.343166 -0.402807 
3422 2 -412.563 1979.55 -629.231 0.425611 -0.740454 -0.115977 -0.507082 
3421 2 -417.678 1972.56 -633.998 -0.092287 -0.241645 -0.36565 -0.894087 
3423 2 -406.322 1987.02 -630.226 0.645506 -0.512882 0.559078 0.0877784 
3512 2 -691.541 2152.23 -646.698 -0.713152 -0.0797546 -0.674767 0.17246 
3510 2 -709.854 2159.3 -642.908 0.224487 0.788934 0.0648806 0.568312 
3509 2 -717.897 2165.05 -642.591 0.687134 0.480358 0.543932 0.0352323 
3511 2 -700.821 2155.69 -645.366 -0.299394 0.582035 -0.492151 0.573922 
3507 2 -734.018 2174.98 -648.252 0.0235748 -0.495758 0.352118 -0.793524 
3508 2 -726.121 2170.15 -644.614 0.619305 -0.0329121 0.622492 -0.477371 
3505 1 -751.812 2144.69 -616.716 0.634752 -0.315461 0.513822 -0.483281 
3504 2 -748.887 2117.53 -578.237 -0.629989 0.00446115 0.776528 0.00991432 
3503 2 -739.105 2117.94 -576.107 -0.459403 -0.544152 0.585903 0.386735 
3502 2 -729.875 2121.44 -576.394 -0.14892 -0.720477 -0.0703228 0.673639 
3501 2 -720.886 2124.8 -573.667 0.410999 -0.394299 -0.645102 0.509364 
3500 2 -711.443 2127.61 -572.172 0.700547 0.164764 -0.692974 0.0432833 
3506 3 -717.737 2145.08 -609.032 0.667125 -0.310984 0.453572 -0.502499 
3499 2 -701.685 2129.27 -571.099 0.457531 0.622007 -0.425882 -0.47159 
3498 2 -691.905 2130.15 -570.615 -0.196235 0.677402 0.276447 -0.652836 
3497 2 -682.272 2132.1 -571.715 -0.658604 0.219747 0.627644 -0.352158 
3513 2 -682.34 2148.67 -646.702 -0.54007 -0.572506 -0.473655 -0.395237 
3514 2 -673.26 2145.28 -648.572 0.168401 -0.605061 0.207873 -0.749888 
3496 2 -672.736 2134.51 -570.594 -0.578063 -0.492558 0.595208 0.262597 
3447 2 -623.187 2089.38 -665.853 0.590305 0.338523 -0.417081 -0.602483 
3471 2 -629.272 2078.65 -525.551 -0.413543 0.234713 -0.0761125 -0.876412 
3448 2 -632.272 2090.97 -662.304 0.821404 -0.0408216 -0.568765 0.0116065 
3449 2 -641.55 2091.36 -658.956 0.436129 -0.592512 -0.367058 0.5692 
3450 2 -651.42 2092.57 -658.293 -0.138841 -0.670541 0.214684 0.696426 
3515 2 -663.589 2143.82 -646.947 0.662427 -0.137336 0.668247 -0.309477 
3495 2 -663.221 2136.87 -568.169 -0.214145 -0.801311 0.0449347 0.556797 
3494 2 -654.22 2137.19 -564.236 0.379931 -0.618001 -0.572904 0.381456 
3516 2 -654.077 2141.9 -645.124 0.601157 0.417501 0.450359 0.511351 
3517 2 -644.488 2141.16 -643.128 -0.036256 0.580213 0.0170491 0.813479 
3518 2 -635.208 2141.53 -639.596 -0.672738 0.475229 -0.390839 0.410883 
3493 2 -645.152 2137.33 -560.323 0.554298 -0.130972 -0.815445 0.103191 
3492 2 -637.384 2138.82 -554.417 0.434189 0.584483 -0.648165 -0.223028 
3519 2 -626.471 2144.7 -636.813 -0.691898 0.0152439 -0.604412 -0.394629 
3520 2 -618.539 2149.92 -633.937 -0.284312 -0.51557 -0.318878 -0.742746 
3521 2 -609.234 2152.17 -631.872 0.270527 -0.565242 0.132528 -0.767954 
3522 2 -600.496 2153.07 -627.431 0.810135 -0.0745152 0.533969 -0.230231 
3491 2 -628.02 2140.49 -551.935 0.0980609 0.775668 0.0313447 -0.622688 
3490 2 -618.421 2139.43 -549.815 -0.454275 0.467198 0.611114 -0.449333 
3489 2 -609.618 2140.57 -545.299 -0.485462 -0.312712 0.80143 0.155714 
3488 2 -600.38 2139.66 -541.723 -0.205648 -0.701701 0.391762 0.558433 
3487 2 -591.429 2137.58 -537.947 0.299565 -0.75155 -0.344349 0.476295 
3486 2 -584.488 2135.49 -531.213 0.404499 -0.189294 -0.894626 -0.0138516 
3523 2 -591.785 2152.47 -622.846 0.662049 0.449679 0.392097 0.453586 
3524 2 -582.425 2150.43 -620.298 0.0425419 0.800518 -0.301642 0.516114 
3533 3 -547.502 2178.71 -606.955 -0.634728 -0.219418 0.713543 0.199579 
3525 2 -574.226 2147.21 -624.684 -0.42596 0.288549 -0.762043 0.393178 
3526 2 -565.253 2144 -627.82 -0.715453 -0.252051 -0.651488 -0.0126286 
3527 2 -556.224 2140.07 -629.081 -0.369959 -0.738574 -0.242902 -0.508564 
3528 2 -546.719 2137.32 -630.136 0.218959 -0.543994 0.357324 -0.726943 
3529 2 -537.408 2134.39 -628.204 0.833667 -0.214215 0.47482 -0.183461 
3530 2 -528.7 2135.59 -623.527 0.673167 0.285904 0.141628 0.667118 
3536 2 -538.504 2217.57 -604.743 0.0546712 0.840346 -0.0658479 -0.535251 
3538 2 -556.979 2217.05 -611.049 0.745769 -0.148539 -0.62774 0.166454 
3539 2 -566.828 2217.27 -609.695 0.268616 -0.305383 -0.285455 0.867814 
3540 2 -574.164 2214.45 -603.607 -0.211153 -0.430277 0.178954 0.859216 
3541 2 -582.839 2215.98 -599.041 -0.783056 -0.252673 0.355255 0.443593 
3537 2 -547.487 2216.38 -608.6 0.537119 0.374737 -0.671647 -0.346362 
3542 2 -590.34 2216.01 -592.617 -0.882768 0.244884 0.251259 -0.312445 
3543 2 -596.033 2219.04 -585.03 -0.306495 0.288463 0.039643 -0.906244 
3544 2 -600.605 2220.03 -576.261 0.60801 0.141252 -0.208887 -0.75282 
3545 2 -605.019 2220.93 -567.359 0.927694 -0.153609 -0.320167 0.115248 
3535 2 -531.432 2221.69 -599.326 -0.186211 0.624466 0.612694 -0.447184 
3531 2 -522.729 2133.81 -615.743 0.0295042 0.310483 -0.135953 0.940344 
3485 2 -577.71 2135.74 -523.978 0.265957 0.710851 -0.606775 -0.23618 
3534 2 -524.124 2222.75 -592.638 -0.457529 -0.094463 0.883961 -0.0189019 
3546 2 -611.662 2223.24 -560.48 0.376017 -0.267567 0.0380253 0.886325 
3547 2 -616.408 2225.96 -552.086 -0.484785 -0.319234 0.109839 0.806851 
3548 2 -622.356 2225.36 -544.179 -0.789282 -0.0627991 0.568675 0.222932 
3472 2 -632.94 2081.41 -516.882 0.518014 0.192925 -0.289375 -0.781475 
3484 2 -573.54 2135.86 -514.932 -0.0662205 0.940926 0.266451 -0.198181 
3550 2 -639.335 2229.56 -535.039 -0.0212694 0.532119 -0.169285 -0.829301 
3549 2 -631.35 2227.25 -540.319 -0.71075 0.388884 0.310682 -0.497071 
3532 1 -512.892 2177.87 -601.857 -0.671619 -0.175946 0.694182 0.189952 
3558 2 -703.223 2253.47 -556.46 0.111583 0.477515 -0.75948 -0.427457 
3557 2 -698.209 2247.7 -550.222 -0.313055 0.897644 -0.0757497 -0.300821 
3556 2 -692.172 2245.45 -542.721 -0.364247 0.460248 0.809089 -0.0295085 
3555 2 -684.231 2244.46 -537.032 -0.406454 -0.151182 0.88124 0.188029 
3554 2 -676.733 2239.31 -533.084 0.016091 -0.658531 0.498953 0.563138 
3559 1 -721.622 2281.93 -523.55 0.821084 0.226015 0.500969 0.154172 
3553 2 -667.831 2235.34 -531.996 0.376171 -0.773438 -0.074327 0.504742 
3552 2 -658.31 2232.65 -531.314 0.634411 -0.334368 -0.681263 0.146974 
3551 2 -648.49 2232.1 -531.934 0.576516 0.3669 -0.586392 -0.434923 
3641 3 -650.076 2340.04 -530.933 -0.996392 -0.0394526 0.074554 0.00935213 
3640 1 -644.537 2342.03 -565.446 -0.98943 -0.0382177 0.131554 0.0475517 
3639 2 -634.346 2297.07 -555.493 0.118552 0.94445 0.244717 -0.184588 
3638 2 -631.443 2299.76 -546.351 -0.084039 0.403484 0.882511 -0.226523 
3637 2 -629.184 2302.4 -537.059 -0.181201 -0.470383 0.859743 -0.0821459 
3636 2 -625.579 2304.35 -527.967 -0.134812 -0.972715 0.102855 0.158342 
3635 2 -620.307 2306.8 -520.01 0.0609545 -0.727814 -0.620623 0.285304 
3646 2 -644.326 2382.65 -517.561 0.964429 0.202196 0.0146387 0.169644 
3645 2 -647.05 2385.36 -526.773 0.762224 0.0122962 0.214778 -0.61052 
3644 2 -652.258 2384.31 -535.215 0.215187 -0.300016 0.0386766 -0.928541 
3643 2 -655.593 2384.3 -544.557 -0.699759 -0.0931447 -0.136949 -0.694914 
3642 2 -657.749 2385.86 -554.182 -0.989763 -0.0534067 -0.131462 0.0153199 
4044 2 -694.752 3179.61 -518.225 -0.275151 0.814269 0.399167 -0.319256 
2716 2 -319.113 846.538 -371.948 -0.945266 -0.253761 -0.153494 0.136078 
2717 2 -316.407 842.466 -363.313 -0.604763 -0.315516 -0.00443981 -0.731226 
2715 2 -323.207 851.828 -379.295 -0.41004 0.0821992 -0.357778 0.834928 
2714 2 -321.709 857.523 -387.26 0.513427 0.105372 -0.339023 0.781251 
2694 2 -402.724 869.289 -502.806 -0.0839472 0.106885 0.949316 -0.283421 
2693 2 -400.415 874.777 -494.905 -0.271374 -0.676233 0.67655 -0.106512 
2692 2 -393.545 878.76 -489.059 -0.157681 -0.902302 -0.0982727 0.389013 
2691 2 -386.881 883.218 -483.383 0.163497 -0.548568 -0.697605 0.430917 
2690 2 -380.07 887.521 -477.642 0.40811 0.160264 -0.878149 0.191354 
2689 2 -373.397 891.969 -471.775 0.361676 0.843386 -0.28342 -0.278501 
2688 2 -370.851 896.744 -463.484 0.128086 0.677159 0.676551 -0.259477 
2687 2 -369.414 899.397 -453.9 -0.0981175 -0.0967043 0.983535 -0.116963 
2686 2 -369.214 899.32 -444.062 -0.067756 -0.737736 0.671656 -0.00572687 
2685 2 -368.352 900.647 -434.19 -0.0448642 -0.994407 -0.0953284 0.00740617 
2684 2 -363.495 901.022 -425.564 0.196509 -0.577953 -0.764022 0.208868 
2713 2 -323.755 862.943 -395.274 0.933705 0.346791 0.0071131 0.088767 
2700 2 -315.448 866.927 -507.058 0.666598 -0.0759478 0.218621 0.708579 
2712 2 -324.114 865.855 -404.673 0.687832 0.160632 0.130163 -0.695803 
2711 2 -326.928 870.596 -412.902 -0.143108 -0.160516 0.257257 -0.942111 
2710 2 -327.729 875.699 -421.362 -0.799276 -0.280509 0.0776473 -0.525778 
2709 2 -325.391 880.973 -429.395 -0.877498 -0.271377 0.0479373 0.392496 
2708 2 -322.225 886.055 -437.141 -0.298711 -0.28033 -0.239547 0.880229 
2707 2 -317.31 887.02 -445.727 0.669776 -0.132028 -0.218516 0.697295 
2683 2 -356.635 904.295 -419.18 0.410815 0.26104 -0.869491 0.0841104 
2682 2 -350.913 909.106 -412.722 0.390739 0.832531 -0.352513 -0.173058 
2696 3 -351.152 874.906 -498.707 -0.521492 0.360002 0.0570491 0.771486 
2681 2 -345.38 914.66 -406.883 0.194304 0.779815 0.404187 -0.436769 
2701 2 -313.163 870.999 -498.305 -0.160439 0.222628 0.206919 0.939085 
2706 2 -312.647 888.191 -454.567 0.956503 0.13004 -0.197311 -0.171054 
2702 2 -310.069 876.158 -490.498 -0.864663 0.217984 0.000534522 0.452593 
2705 2 -307.855 886.561 -463.07 0.576116 0.165205 -0.238865 -0.764029 
2704 2 -306.694 883.379 -472.329 -0.269541 0.140465 -0.139626 -0.942402 
2703 2 -307.87 879.732 -481.453 -0.890803 0.0884866 -0.0939959 -0.435666 
2680 2 -338.034 920.821 -404.457 -0.289897 0.178777 0.768112 -0.542221 
2676 2 -305.317 941.906 -410.013 0.730574 0.00726404 -0.615279 0.296042 
2674 2 -289.372 942.983 -421.365 0.0389421 0.456289 -0.0649673 -0.886602 
2675 2 -297.396 943.901 -415.652 0.731702 0.357978 -0.333507 -0.474592 
2672 2 -272.8 935.809 -428.911 -0.767266 0.0219952 0.514308 0.382501 
2673 2 -280.708 940.381 -425.064 -0.684865 0.462987 0.289148 -0.482697 
2679 2 -330.258 926.787 -404.912 -0.692049 -0.484504 0.532413 0.0534806 
2678 2 -322.649 932.949 -406.451 -0.430792 -0.667804 -0.0140647 0.606843 
2677 2 -314.172 937.993 -407.611 0.081169 -0.547674 -0.451335 0.69983 
2669 3 -280.899 909.587 -392.776 -0.81369 0.35555 0.441925 -0.127259 
2668 1 -251.786 893.353 -403.212 -0.790421 0.385179 0.466742 -0.0949896 
2671 2 -266.699 928.98 -432.937 -0.108405 -0.25031 0.508214 0.816892 
2670 2 -259.949 924.013 -438.093 0.537108 -0.455717 0.0114442 0.709722 
2663 2 -287.561 900.811 -364.481 0.721353 0.123111 0.561453 -0.386347 
2661 2 -302.925 912.126 -368.983 -0.459619 -0.650722 -0.0135836 -0.604258 
2662 2 -294.353 907.141 -367.955 0.160817 -0.316713 0.484897 -0.79919 
2660 2 -309.89 917.666 -364.491 -0.58669 -0.562033 -0.5823 -0.028991 
2744 2 -98.3596 931.909 -380.367 0.426651 -0.507781 0.601992 -0.444672 
2747 2 -69.4016 935.988 -381.952 -0.178481 0.721728 -0.220609 0.631335 
2745 2 -88.6408 931.964 -382.332 0.694787 0.0581849 0.710084 0.0983157 
2746 2 -78.7425 932.834 -383.133 0.357834 0.433299 0.516086 0.646423 
2743 2 -107.376 928.129 -378.676 -0.0400664 -0.662258 -0.285756 -0.691485 
2740 2 -136.716 926.895 -375.712 -0.0892904 0.833086 -0.0402902 0.5444 
2741 2 -127.128 927.711 -378.498 -0.645487 0.344726 -0.590513 0.340301 
2742 2 -117.171 927.281 -377.621 -0.607194 -0.281 -0.696485 -0.259351 
2739 2 -144.696 923.113 -371.205 0.233732 0.508378 0.683708 0.468471 
2738 2 -151.583 917.118 -367.521 0.532678 -0.256304 0.771604 0.234924 
2749 1 -64.5542 980.596 -368.766 0.793592 0.367435 -0.470985 -0.115657 
2748 2 -59.6169 935.99 -383.31 -0.621615 0.224385 -0.719534 0.213347 
2737 2 -159.745 911.334 -366.812 0.59723 -0.668316 0.307444 -0.319606 
2736 2 -167.47 905.415 -364.849 0.18143 -0.711968 -0.335587 -0.589547 
2735 2 -175.588 899.652 -365.466 -0.496464 -0.164402 -0.675389 -0.519947 
2734 2 -182.902 893.743 -362.143 -0.57779 0.514324 -0.631113 0.0576787 
2858 3 -105.462 1121.59 -412.562 0.9139 -0.139552 0.151902 -0.349625 
2857 1 -120.607 1117.52 -443.861 0.881047 -0.172581 0.167675 -0.407256 
2856 2 -128.806 1076.27 -422.539 -0.100872 -0.565906 0.81681 0.0489582 
2855 2 -126.178 1077.18 -413.136 -0.0644368 -0.986004 0.108703 0.108758 
2854 2 -124.589 1079.92 -403.716 -0.0922152 -0.818487 -0.559811 0.090488 
2853 2 -128.101 1084.24 -395.522 -0.15218 0.0832838 -0.949803 0.260346 
2852 2 -130.118 1092.24 -390.116 0.282241 0.682189 -0.571343 0.358504 
2851 2 -132.842 1099.65 -384.327 0.401458 0.902396 0.148922 0.0483125 
2850 2 -134.521 1107.19 -378.037 0.314623 0.517197 0.754702 -0.252871 
2849 2 -138.695 1112.66 -370.755 0.121695 -0.296184 0.899904 -0.296038 
2848 2 -141.615 1119.47 -364.185 -0.260518 -0.861676 0.313845 -0.301904 
2860 2 -97.6714 1161.37 -437.631 0.955435 0.021792 0.293337 0.0249691 
2859 2 -102.991 1161.24 -446.115 0.627375 -0.192228 0.160052 -0.73745 
2861 2 -92.3743 1161.18 -429.232 0.513594 0.196878 0.229547 0.802974 
2862 2 -87.0094 1162.25 -420.852 -0.320275 0.0513376 0.273261 0.905603 
2910 2 -253.405 1224.56 -366.903 0.29838 0.4301 0.471431 -0.709743 
2911 1 -294.796 1242.52 -380.84 0.846159 -0.332994 0.380072 0.169339 
2912 3 -278.27 1270.24 -367.391 0.819555 -0.350681 0.393944 0.223965 
2909 2 -249.674 1233.62 -368.159 -0.35008 -0.0849207 0.656094 -0.663154 
2908 2 -249.04 1243.26 -370.474 -0.767936 -0.632471 0.0765056 -0.0663421 
2913 2 -327.477 1276.57 -382.685 -0.523666 0.27325 -0.748823 -0.300619 
2914 2 -321.068 1283.53 -385.829 -0.129354 -0.446373 -0.674268 -0.573917 
2915 2 -314.12 1289.92 -389.008 0.236168 -0.817289 -0.108111 -0.514369 
2916 2 -306.633 1293.6 -394.144 0.467574 -0.564212 0.680451 -0.00502035 
2917 2 -300.067 1298.56 -399.626 0.355946 0.224027 0.903919 0.0777536 
2918 2 -293.684 1299.34 -407.115 0.0183676 0.686197 0.458032 0.564803 
2907 2 -246.613 1252.8 -372.057 -0.449617 -0.483464 -0.430123 0.615712 
2906 2 -243.211 1261.94 -370.546 0.133733 -0.0899446 -0.782353 0.601622 
2905 2 -236.725 1267.41 -365.479 0.514859 0.417043 -0.74488 0.0784111 
2919 2 -285.809 1304 -410.673 -0.505457 0.739623 -0.23439 0.377534 
2920 2 -278.315 1310.27 -412.684 -0.583439 0.316897 -0.747779 -0.00127448 
2921 2 -269.709 1313.95 -415.572 -0.187603 -0.236618 -0.756662 -0.579897 
2863 2 -88.1428 1166.82 -412.068 -0.854867 0.213695 0.267531 0.389825 
2864 2 -90.352 1172.62 -404.276 -0.82792 0.331389 0.0541826 -0.449215 
2865 2 -93.4053 1177.68 -396.389 -0.227201 0.285579 -0.163325 -0.916597 
2866 2 -98.1559 1180.99 -388.228 0.699469 -0.00240738 -0.276793 -0.65888 
2867 2 -101.991 1185.65 -380.431 0.825315 -0.557865 -0.0731268 0.0479062 
2890 2 -133.675 1261.6 -402.936 0.419191 0.179108 -0.0454964 -0.888892 
2889 2 -132.093 1264.44 -412.367 -0.518476 0.00227204 0.138327 -0.843827 
2888 2 -128.727 1268.72 -420.58 -0.956954 -0.200685 0.201348 -0.0585119 
2887 2 -122.838 1274.65 -425.766 -0.640894 -0.436158 -0.0049127 0.631662 
2891 2 -137.078 1261.38 -393.625 0.97222 0.0366863 -0.15692 -0.169763 
2892 2 -139.634 1261.28 -383.985 0.707801 -0.198464 0.0813698 0.67306 
2893 2 -141.492 1264.49 -374.867 -0.0614043 -0.360225 0.236885 0.900196 
2886 2 -122.515 1282.47 -431.961 -0.0570573 -0.0329914 -0.448111 0.891545 
2885 3 -100.141 1283.15 -385.071 -0.438257 -0.0267021 0.448982 -0.778224 
2894 2 -147.887 1268.71 -368.563 -0.732794 0.0414429 0.407882 0.543073 
2895 2 -153.05 1273.64 -361.837 -0.843617 0.375308 0.296379 -0.244159 
2868 2 -103.51 1194.54 -376.46 0.590749 -0.370946 0.307088 0.647388 
2884 1 -91.9542 1308.83 -407.525 -0.482624 -0.0537426 0.416216 -0.768733 
2869 2 -103.824 1203.15 -371.513 -0.0241547 0.0499621 0.483004 0.873858 
2882 2 -69.0719 1311.62 -363.595 0.379939 -0.500642 0.712467 0.312082 
2870 2 -102.953 1210.6 -365.006 -0.811074 0.344196 0.172441 0.440401 
3038 2 -525.209 1410.95 -389.727 0.00457845 -0.160492 -0.843589 0.512424 
3039 2 -527.032 1401.89 -393.208 -0.322228 -0.703944 -0.55749 0.299728 
3037 2 -526.271 1419.67 -385.165 0.263653 0.626661 -0.607089 0.411371 
3040 2 -527.336 1393.92 -399.077 -0.480783 -0.855721 0.126832 0.143186 
3042 2 -530.183 1376.77 -407.793 0.123909 -0.0166593 0.813839 -0.567481 
3043 2 -527.888 1367.62 -410.699 0.537072 0.659539 0.507991 -0.136043 
3041 2 -529.941 1386.25 -404.741 -0.425756 -0.508942 0.613245 -0.428533 
3036 2 -526.616 1429.46 -384.826 0.707709 0.705719 0.0288584 -0.0165971 
3035 2 -526.345 1437.8 -379.833 0.272486 0.507736 0.69939 -0.422858 
3034 2 -527.952 1445.83 -374.146 -0.0441404 -0.23685 0.860209 -0.449438 
3044 2 -524.251 1359.37 -414.758 0.548629 0.738713 -0.333864 0.204561 
3033 2 -531.031 1454.76 -371.236 -0.470508 -0.809401 0.210508 -0.281385 
3045 2 -524.379 1350.02 -418.098 0.172663 0.164402 -0.802297 0.547246 
3032 2 -533.089 1462.93 -366.075 -0.465851 -0.775528 -0.396163 0.156826 
3047 3 -502.311 1395.91 -427.6 -0.748483 0.371587 0.465754 0.291153 
3046 1 -486.173 1367.21 -439.818 -0.743792 0.351067 0.46535 0.327071 
3048 2 -459.279 1402.3 -456.36 0.0670014 -0.139943 0.40829 0.89957 
3049 2 -460.586 1410.22 -450.647 -0.485795 0.370164 0.33429 0.717797 
3050 2 -458.767 1419.04 -446.555 -0.859835 0.465565 -0.0887637 0.18988 
3051 2 -454.983 1426.63 -441.433 -0.596578 0.1763 -0.455576 -0.63676 
3052 2 -451.101 1434.27 -436.454 0.143778 -0.269509 -0.560309 -0.769901 
3053 2 -447.837 1443.5 -434.309 0.590464 -0.682257 -0.189773 -0.387122 
3054 2 -444.567 1452.93 -435.091 0.588307 -0.660204 0.402237 0.237131 
3055 2 -442.322 1462.18 -437.37 0.184951 -0.0894769 0.754222 0.623647 
2996 2 -370.183 1436.83 -366.866 0.163989 0.24015 -0.723123 -0.626521 
2997 2 -375.425 1445.02 -368.627 0.649136 -0.367984 -0.574052 -0.337155 
2998 2 -380.023 1453.79 -367.727 0.731371 -0.648396 0.0232642 0.210091 
2999 2 -381.867 1463.5 -366.852 0.0681365 -0.449077 0.427973 0.781362 