ITEM: TIMESTEP
100000000
ITEM: NUMBER OF ATOMS
4067
ITEM: BOX BOUNDS pp pp pp
-4.6310929470000001e+03 4.6704658980000004e+03
-4.6310929470000001e+03 4.6704658980000004e+03
-4.6310929470000001e+03 4.6704658980000004e+03
ITEM: ATOMS id type x y z c_q[1] c_q[2] c_q[3] c_q[4] 
3613 1 -755.216 2291.49 -718.38 0.703568 -0.297442 -0.111774 -0.635631 
3616 2 -712.287 2314.28 -731.96 -0.0267117 -0.325303 -0.0687789 -0.942727 
3615 2 -718.569 2312.45 -739.409 -0.655757 -0.17798 -0.337868 -0.651269 
3617 2 -706.077 2315.49 -724.354 0.810783 -0.267941 0.153786 -0.49718 
3618 2 -701.414 2318.42 -716.118 0.857886 0.0594643 0.427847 0.278286 
3619 2 -694.29 2319.8 -709.357 0.343047 0.321263 0.238076 0.849958 
3620 2 -687.157 2321.75 -702.773 -0.54417 0.426428 -0.122402 0.712078 
3621 2 -679.814 2323.62 -696.47 -0.898429 0.164984 -0.404616 0.0434852 
3614 3 -740.636 2310.15 -692.639 0.698368 -0.379099 -0.0396431 -0.605801 
3622 2 -672.398 2326.07 -690.463 -0.552767 -0.27114 -0.368027 -0.69677 
3612 2 -784.619 2284.33 -682.2 -0.140085 0.432206 0.847277 -0.275128 
3611 2 -780.392 2288.06 -674.035 -0.311037 -0.487065 0.814046 -0.0578999 
3610 2 -772.887 2291.6 -668.669 -0.355434 -0.819821 0.318581 0.316331 
3623 2 -664.7 2328.41 -684.628 0.281794 -0.503874 -0.186682 -0.794892 
3624 2 -656.774 2333.1 -680.851 0.854708 -0.46882 0.210327 -0.0737851 
3625 2 -652.682 2340.58 -675.734 0.592111 -0.068078 0.416703 0.686388 
3626 2 -648.007 2346.87 -669.779 -0.2106 0.369752 0.424372 0.799274 
3966 2 -458.067 2800.59 -715.938 -0.219046 0.315873 0.169591 -0.907459 
3967 2 -465.053 2799.74 -708.972 0.42259 0.278517 -0.512819 -0.693442 
3964 1 -428.903 2834.75 -701.321 -0.516636 0.340536 0.188314 -0.762666 
3968 2 -473.034 2804.41 -705.145 0.785903 -0.269273 -0.556545 -0.0102709 
3969 2 -481.432 2808.76 -702.459 0.536772 -0.522699 -0.104686 0.65399 
3970 2 -489.276 2813.33 -698.513 -0.222141 -0.122428 0.420743 0.871 
3971 2 -493.497 2820.25 -692.923 -0.595518 0.351068 0.663856 0.285314 
3965 3 -453.974 2834.67 -676.957 -0.527185 0.339051 0.178253 -0.758516 
3972 2 -498.531 2828.75 -694.152 -0.557792 0.771973 0.218719 -0.212336 
3973 2 -505.022 2835.67 -697.196 -0.288852 0.433796 -0.407055 -0.750128 
4067 2 -741.129 2935.87 -746.637 0.509059 0.225016 -0.410788 0.722136 
4066 2 -740.523 2944.11 -752.047 0.878231 0.450052 -0.106333 0.121891 
4065 2 -737.438 2952.18 -756.872 0.553749 0.49452 0.168611 -0.648369 
4064 2 -735.246 2960.64 -761.696 -0.196804 0.0770107 0.542452 -0.81307 
4063 2 -731.415 2969.76 -763.736 -0.667411 -0.457634 0.455825 -0.370617 
4062 2 -724.055 2976.36 -764.935 -0.537931 -0.669131 0.119858 0.498526 
4061 2 -716.768 2982.75 -767.527 -0.0454879 -0.440677 -0.391196 0.80666 
4060 2 -709.771 2987.93 -772.085 0.655493 -0.0867751 -0.509367 0.550768 
3991 1 -594.33 2937.65 -799.765 -0.905646 0.0261002 -0.327307 0.268317 
3990 2 -599.238 2891.79 -789.917 -0.18333 -0.770318 0.58603 0.17196 
3979 2 -538.081 2876.48 -704.024 -0.208312 0.903985 -0.142459 -0.345141 
3980 2 -543.47 2881.03 -711.067 0.0878252 0.514273 -0.812486 -0.260149 
3981 2 -547.883 2884.27 -719.206 0.330608 -0.310366 -0.889006 0.063562 
3982 2 -554.213 2885.57 -726.727 0.1159 -0.921063 -0.272558 0.252829 
3983 2 -559.954 2886.18 -734.788 -0.217938 -0.751132 0.528725 0.329778 
3984 2 -567.388 2886.37 -741.373 -0.382221 -0.0121133 0.906675 0.178049 
3985 2 -574.012 2889.09 -748.158 -0.242394 0.799276 0.486494 -0.256372 
3986 2 -580.342 2891.04 -755.5 0.0581075 0.941293 -0.268619 -0.196048 
3987 2 -584.767 2891.09 -764.432 0.221617 0.323259 -0.904985 -0.165505 
3988 2 -590.176 2892.44 -772.593 0.21436 -0.543869 -0.810345 0.0399598 
3989 2 -594.974 2892.91 -781.228 0.0254774 -0.963905 -0.140749 0.224562 
3992 3 -574.374 2933.51 -771.312 -0.919476 -0.0238209 -0.314806 0.234292 
4000 2 -551.409 2959.53 -736.162 0.875359 -0.0369545 0.473682 -0.089479 
4001 2 -542.927 2959.37 -731.052 0.778574 0.22126 0.176691 0.560041 
3978 2 -534.616 2872.34 -695.701 -0.300914 0.675362 0.673273 -0.00637136 
3977 2 -528.056 2866.6 -691.029 -0.307587 -0.143967 0.846719 0.409551 
3999 2 -560.184 2961.63 -740.202 0.402796 -0.44351 0.37342 -0.708246 
4002 2 -537.769 2957.96 -722.619 0.111744 0.402618 0.123485 0.900091 
4003 2 -531.077 2959.91 -715.584 -0.672923 0.234977 -0.130649 0.689123 
4004 2 -526.326 2961.41 -707.115 -0.96692 0.098412 -0.232656 -0.0353961 
4005 2 -522.267 2963.08 -698.281 -0.53199 -0.0620957 -0.184268 -0.824121 
4006 2 -519.195 2964.85 -689.187 0.303658 -0.255422 -0.0190666 -0.917708 
3976 2 -521.791 2858.83 -691.247 0.292056 -0.607581 0.316402 0.667412 
3998 2 -566.808 2963.84 -747.113 -0.383408 -0.389268 -0.077989 -0.833898 
3975 2 -515.967 2851.31 -694.381 0.804044 -0.536887 -0.255445 0.00357836 
3997 2 -571.956 2966.13 -755.264 -0.909834 -0.164559 -0.287987 -0.249371 
4007 2 -514.787 2966.42 -680.452 0.955686 -0.100471 0.0937151 -0.26036 
4029 2 -578.894 2982.2 -688.612 0.112212 0.902265 0.0121602 -0.416148 
4030 2 -586.609 2980.7 -694.374 0.387152 0.366334 -0.806167 -0.256918 
4031 2 -594.611 2981.5 -699.976 0.571964 -0.370244 -0.726005 -0.0932354 
3996 2 -574.509 2971.09 -763.44 -0.612436 -0.100407 -0.30511 0.722321 
3995 2 -576.294 2976.62 -771.576 0.207431 0.201352 -0.227524 0.929872 
3994 2 -577.921 2979.96 -780.733 0.877747 0.158997 0.0126211 0.451798 
3993 2 -579.695 2981.47 -790.361 0.88347 0.0109442 0.109985 -0.455262 
4028 2 -571.88 2984.16 -681.865 -0.213368 0.491696 0.792495 -0.290965 
4032 2 -601.961 2986.32 -704.205 0.208581 -0.876115 -0.054027 0.431274 
4033 2 -609.412 2990.58 -709.023 -0.179484 -0.488815 0.715973 0.465003 
4027 2 -565.442 2989.93 -677.109 -0.494336 -0.378712 0.764866 -0.164891 
4008 2 -512.907 2968.34 -670.904 0.80063 0.08176 0.206023 0.556652 
3974 2 -509.184 2844.17 -694.266 0.464042 0.0184997 -0.752008 -0.467768 
3963 2 -416.683 2870.64 -673.335 0.227818 0.111332 0.956632 0.143384 
4059 2 -704.567 2994.71 -777.122 0.862536 0.432909 -0.261518 -0.0151293 
4058 2 -701.661 3003.65 -780.451 0.488635 0.462422 0.334459 -0.659953 
4057 2 -697.08 3009.8 -786.739 -0.300063 0.114772 0.434952 -0.841193 
4056 2 -692.444 3016.64 -792.112 -0.836162 -0.276477 0.388423 -0.27115 
4055 2 -688.353 3025.02 -795.413 -0.633597 -0.616949 -0.0760877 0.460586 
4054 2 -685.084 3034.36 -796.937 -0.00829461 -0.27442 -0.586585 0.761934 
4045 1 -671.101 3096.99 -747.581 0.0631323 0.260603 -0.7616 0.589971 
4053 2 -683.734 3044.27 -797.355 0.57607 0.44356 -0.507548 0.462378 
4052 2 -683.309 3054.15 -797.383 0.689965 0.702003 0.111593 -0.136704 
4051 2 -678.735 3062.29 -794.09 0.088549 0.5217 0.616143 -0.5834 
4050 2 -677.286 3071.89 -793.583 -0.351794 -0.287516 0.695089 -0.55716 
4047 2 -678.968 3101.23 -793.931 -0.126717 0.0152427 -0.773573 0.620722 
4048 2 -676.664 3091.65 -794.98 -0.622558 -0.469509 -0.381838 0.496168 
4049 2 -676.415 3081.81 -793.488 -0.690271 -0.701004 0.140868 -0.110798 
4046 3 -661.432 3065.82 -760.109 0.0686079 0.353822 -0.709455 0.605621 
4044 2 -656.398 3074.09 -709.098 0.375633 0.11377 -0.375747 -0.839506 
4034 2 -616.324 2995.92 -713.747 -0.469822 0.427278 0.726913 0.261339 
4043 2 -651.426 3068.81 -715.838 -0.392161 0.37702 -0.155193 -0.82461 
4042 2 -645.564 3063.06 -721.36 -0.818745 0.452257 0.178656 -0.305291 
4035 2 -621.219 3003.34 -718.099 -0.657596 0.713715 0.106559 -0.216387 
4036 2 -625.268 3012.35 -719.219 0.0236263 0.575562 -0.55023 -0.604497 
4041 2 -641.612 3054.22 -722.85 -0.51645 0.204557 0.609299 0.565854 
4040 2 -640.872 3045.14 -726.729 0.105822 -0.0654397 0.540556 0.832057 
4039 2 -640.057 3035.31 -727.92 0.638547 -0.569688 0.324527 0.402984 
4038 2 -638.027 3026.2 -724.959 0.551923 -0.731917 -0.37266 -0.144233 
4037 2 -632.25 3019.01 -721.393 0.325868 -0.0187967 -0.825947 -0.459639 
4026 2 -559.919 2996.48 -671.995 -0.394101 -0.875032 0.0927356 0.265336 
4025 2 -554.923 3003.63 -667.433 -0.11895 -0.539003 -0.649395 0.52308 
3376 2 -552.143 1766 -538.576 0.206711 -0.898365 -0.246873 -0.29877 
3375 2 -556.067 1763.43 -529.926 -0.131183 -0.458847 -0.847268 -0.233212 
3374 2 -556.118 1757.76 -521.865 -0.131143 0.38878 -0.862037 -0.297562 
3373 2 -550.393 1750.87 -517.687 -0.330796 0.858346 -0.0985935 -0.379599 
3377 2 -548.232 1770.91 -546.137 0.349995 -0.79579 0.464312 0.169222 
3372 2 -546.319 1742.05 -515.159 -0.603529 0.649999 0.453427 0.0875163 
3378 2 -547.599 1777.71 -553.113 0.0885633 -0.194551 0.784923 0.581552 
3380 2 -548.656 1796.53 -558.828 -0.596879 0.783128 0.0665272 0.16131 
3379 2 -548.795 1786.68 -557.083 -0.371328 0.506388 0.587462 0.510465 
3393 2 -542.555 1896.72 -608.76 -0.0961472 0.724344 0.443116 0.519355 
3392 2 -547.33 1891.45 -601.792 0.235209 0.0558322 0.917905 0.314659 
3391 2 -549.41 1886.1 -593.785 0.268049 -0.757823 0.578402 0.13894 
3387 2 -536.961 1856.08 -575.062 -0.582145 0.757281 0.0595313 -0.289981 
3388 2 -541.826 1864.57 -576.532 -0.179135 0.565514 -0.606908 -0.52893 
3390 2 -548.983 1880.25 -585.658 0.313424 -0.862278 -0.375617 -0.130969 
3389 2 -546.372 1872.77 -579.496 0.285333 -0.236979 -0.870651 -0.3231 
3381 2 -547.024 1805.74 -561.885 -0.50037 0.489998 -0.657468 -0.277969 
3382 2 -542.151 1813.64 -565.533 -0.241621 -0.363426 -0.749204 -0.498231 
3394 2 -536.562 1902.96 -613.362 -0.4164 0.796862 -0.411961 0.148016 
3386 2 -533.437 1847.1 -572.985 -0.575155 0.498124 0.562927 0.322773 
3395 2 -531.032 1908.33 -619.425 -0.353414 0.195747 -0.892469 -0.200703 
3383 2 -535.178 1819.21 -569.898 0.510584 -0.756358 -0.15381 -0.378904 
3385 2 -531.296 1837.71 -572.057 -0.0665991 -0.122446 0.741856 0.655912 
3384 2 -530.722 1827.92 -570.992 0.566876 -0.648922 0.344869 0.372313 
3396 2 -525.737 1913.41 -626.083 -0.0140865 -0.598652 -0.691354 -0.404286 
3418 2 -382.77 1905.03 -566.725 0.651315 -0.135118 0.606799 -0.435118 
3417 2 -390.6 1910.45 -563.84 0.0693721 -0.629295 0.501646 -0.589514 
3416 2 -399.273 1914.08 -560.761 -0.373027 -0.753229 -0.221759 -0.494287 
3415 2 -405.143 1920.74 -556.672 -0.466155 -0.382912 -0.779103 0.170517 
3419 2 -373.755 1901.38 -564.758 0.819908 0.387291 0.416628 0.0646322 
3420 2 -366.409 1895.71 -561.746 0.582629 0.485501 -0.0457281 0.650185 
3421 2 -360.116 1889.95 -556.622 -0.209488 0.465749 -0.38742 0.767527 
3422 2 -350.993 1886.77 -554.059 -0.835323 -0.00123686 -0.500861 0.226654 
3423 2 -342.615 1885 -549.13 -0.681885 -0.367559 -0.300656 -0.556362 
3424 1 -325.062 1924.86 -530.939 -0.553859 -0.162629 0.773746 0.260978 
3398 3 -534.705 1926.38 -576.688 0.941701 0.302954 -0.00541479 -0.146249 
3486 2 -546.719 2053.37 -587.425 -0.765304 0.602214 0.212357 -0.0809481 
3485 2 -542.543 2045.25 -591.282 -0.635241 0.203566 0.51567 0.537693 
3484 2 -536.724 2039.13 -596.337 0.0196398 -0.371915 0.287138 0.882522 
3487 2 -550.86 2062.16 -585.362 -0.40857 0.638375 -0.274013 -0.592001 
3397 1 -530.47 1952.28 -599.834 0.926761 0.354388 0.00447535 -0.124515 
3399 2 -536.573 1975.34 -559.127 0.406461 0.397227 0.00909786 0.82275 
3400 2 -530.093 1971.9 -552.399 -0.226534 0.306491 -0.414908 0.826194 
3488 2 -556.317 2070.32 -584.878 0.403851 0.172338 -0.500059 -0.746421 
3483 2 -531.145 2033.79 -602.274 0.685943 -0.466356 -0.0132527 0.558407 
3401 2 -523.447 1966.84 -547.2 -0.817737 -0.121856 -0.523328 0.206359 
3482 2 -525.324 2028.42 -608.231 0.880458 -0.23415 -0.363565 -0.194393 
3402 2 -515.691 1962.9 -542.451 -0.558059 -0.464566 -0.238676 -0.644812 
3481 2 -521.057 2021.24 -613.57 0.389568 0.0918305 -0.474559 -0.783963 
3489 2 -562.618 2076.67 -580.703 0.889764 -0.100721 -0.423288 -0.13785 
3480 2 -516.154 2013.07 -615.474 -0.232038 0.480711 -0.444935 -0.719102 
3414 2 -411.57 1925.8 -551.039 -0.152849 0.51033 -0.71508 0.452616 
3413 2 -419.251 1929.38 -545.956 0.181664 0.857943 -0.0710855 0.475268 
3412 2 -427.436 1933.21 -541.822 0.497511 0.540824 0.658527 0.162276 
3411 2 -435.164 1937.46 -537.373 0.459128 -0.100314 0.836145 -0.282843 
3410 2 -441.914 1944.82 -536.565 -0.208843 -0.589247 0.413642 -0.661871 
3403 2 -506.859 1961.18 -538.313 0.0823455 -0.553366 0.105869 -0.822069 
3409 2 -450.383 1949.75 -535.026 -0.574457 -0.65434 -0.349106 -0.346358 
3408 2 -459.467 1953.83 -535.158 -0.653959 0.0364531 -0.698343 0.288664 
3407 2 -468.767 1957.15 -534.866 -0.15732 0.541067 -0.352476 0.747166 
3404 2 -497.577 1960.47 -535.114 0.551109 -0.42528 0.49541 -0.5196 
3406 2 -477.94 1960.48 -533.488 0.407397 0.708418 0.186141 0.545457 
3478 1 -474.879 2032.33 -627.953 -0.481282 0.471932 -0.259026 -0.691775 
3405 2 -487.842 1960.6 -533.462 0.680362 0.13848 0.696647 0.180593 
3479 3 -492.477 2059.3 -614.138 -0.539973 0.456535 -0.235618 -0.6667 
3477 2 -443.611 2067.62 -629.774 0.443525 0.140437 0.844754 -0.264489 
3476 2 -450.14 2073.16 -624.77 0.108053 -0.546311 0.652564 -0.513838 
3425 3 -358.082 1933.53 -538.864 -0.567826 -0.131864 0.748806 0.315397 
3426 2 -327.471 1970.44 -519.084 0.566303 -0.613632 -0.257777 0.486114 
3427 2 -336.41 1974.27 -517.319 -0.151238 -0.536835 0.243759 0.793421 
3428 2 -345.328 1977.35 -514.252 -0.740817 0.0924561 0.594569 0.298546 
3504 2 -673 2113.82 -588.703 0.264951 -0.583024 -0.763225 0.0858585 
3505 1 -713.445 2117.28 -564.638 -0.7657 -0.200199 -0.372684 -0.48449 
3506 3 -689.081 2118.1 -539.545 -0.823027 -0.166978 -0.318461 -0.43969 
3507 2 -738.844 2122.35 -525.235 0.252927 0.43834 0.360256 0.783647 
3503 2 -668.204 2112.46 -580.118 0.218984 0.258783 -0.929565 -0.144868 
3526 2 -667.342 2223.61 -537.48 0.428118 -0.837785 0.0181177 0.338381 
3508 2 -730.382 2124.63 -520.622 -0.322046 0.477708 -0.172607 0.798929 
3509 2 -721.955 2124.68 -515.613 -0.862034 0.243331 -0.435853 0.0878634 
3502 2 -661.906 2108.23 -573.589 0.00103922 0.786532 -0.449569 -0.423384 
3490 2 -569.097 2080.59 -574.604 0.673695 -0.439137 -0.157231 0.573212 
3525 2 -662.139 2215.43 -536.746 0.624183 -0.433775 -0.600748 -0.247664 
3491 2 -576.599 2083.86 -568.894 0.0638208 -0.487355 0.201704 0.847188 
3520 2 -659.689 2169.54 -521.829 0.350029 -0.293035 0.76103 0.460915 
3524 2 -658.199 2206.55 -534.38 0.206198 0.00102254 -0.782951 -0.586914 
3521 2 -657.362 2178.49 -525.34 -0.265316 0.303071 0.705741 0.582825 
3492 2 -584.671 2087.53 -564.433 -0.676785 -0.183011 0.407533 0.585137 
3493 2 -592.23 2090.53 -558.72 -0.885097 0.202882 0.404914 0.107175 
3494 2 -599.401 2094.66 -553.098 -0.435534 0.501123 0.119674 -0.738149 
3501 2 -657.294 2105.4 -565.347 -0.213155 0.906936 0.316614 -0.17829 
3500 2 -651.5 2102.45 -558.021 -0.305262 0.158021 0.934041 0.0970163 
3499 2 -643.943 2099.52 -552.437 -0.244415 -0.532686 0.701805 0.40494 
3495 2 -607.775 2096.87 -548.394 0.424644 0.525232 -0.149123 -0.722199 
3498 2 -634.956 2097.79 -548.517 0.0880717 -0.830005 -0.0866744 0.543895 
3496 2 -616.527 2094.49 -544.366 0.661407 0.25671 -0.629487 -0.316839 
3497 2 -626.304 2095.36 -544.373 0.527718 -0.46625 -0.675273 0.219386 
3523 2 -657.841 2197.02 -531.757 -0.432963 0.596625 -0.581932 -0.343418 
3522 2 -657.25 2188.03 -527.59 -0.545725 0.795188 0.236982 0.117047 
3519 2 -661.041 2161.01 -517.128 0.498463 -0.801501 0.296864 0.144925 
3548 2 -625.098 2230.26 -625.025 -0.251485 0.487818 -0.0475719 0.834581 
3475 2 -455.304 2078.3 -618.039 -0.219701 -0.933429 0.0522951 -0.278759 
3474 2 -458.013 2084.61 -610.893 -0.324934 -0.67233 -0.658101 0.0964008 
3473 2 -461.068 2089.29 -602.714 -0.0941354 0.0894154 -0.964984 0.227924 
3472 2 -463.074 2093.52 -593.952 0.109074 0.797178 -0.565673 0.180621 
3471 2 -462.963 2095.44 -584.397 0.111559 0.967441 0.225937 -0.0237671 
3470 2 -464.845 2097.76 -574.951 0.148773 0.37074 0.912028 -0.0928622 
3469 2 -466.279 2099.04 -565.244 0.0243705 -0.499823 0.859561 -0.103622 
3468 2 -467.333 2098.58 -555.44 0.0568678 -0.976141 0.208108 -0.0246077 
3467 2 -468.571 2100.06 -545.729 -0.0738879 -0.809444 -0.582521 0.00313287 
3466 2 -473.435 2100.67 -537.146 -0.262148 0.128768 -0.955258 0.0466739 
3465 2 -477.048 2099.55 -527.98 -0.141942 0.803513 -0.575947 0.0500494 
3464 2 -481.661 2099.07 -519.275 0.0852601 0.929858 0.208486 0.290909 
3527 2 -672.933 2230.86 -541.347 -0.0260938 -0.498773 0.628425 0.596344 
3609 2 -768.831 2297.08 -661.379 -0.199818 -0.825263 -0.412291 0.330197 
3536 2 -710.524 2281.9 -640.146 -0.20522 -0.894916 -0.153446 -0.365329 
3535 2 -718.034 2284.63 -634.457 -0.456103 -0.345608 -0.818432 -0.051903 
3537 2 -703.246 2280.25 -646.783 0.174231 -0.688843 0.559516 -0.426709 
3608 2 -769.357 2299.7 -651.741 -0.0431263 -0.0270397 -0.985542 0.161602 
3534 2 -725.66 2288.4 -628.98 -0.273236 0.453574 -0.732175 0.428408 
3538 2 -695.175 2278.43 -652.242 0.537803 0.13048 0.801994 -0.224828 
3533 3 -691.78 2267.83 -595.364 -0.363946 0.568371 -0.621503 0.397783 
3539 2 -687.815 2273.49 -656.397 0.482297 0.741841 0.375863 0.275299 
3540 2 -679.838 2268.41 -659.234 0.254068 0.603839 -0.3456 0.671855 
3532 1 -724.62 2273.23 -584.357 -0.365801 0.576391 -0.613587 0.39683 
3607 2 -768.281 2298.85 -641.904 0.0199256 0.720718 -0.689178 -0.0721295 
3606 2 -764.291 2301.36 -633.153 0.130194 0.927575 0.272478 -0.22002 
3605 2 -761.883 2299.71 -623.707 -0.147181 0.412077 0.899041 0.0159638 
3604 2 -760.115 2297.71 -614.203 -0.0106115 -0.333366 0.933481 0.131785 
3603 2 -758.718 2299.45 -604.508 -0.0882998 -0.944426 0.311864 0.0548052 
3531 2 -703.449 2254.15 -546.692 0.384497 0.301541 -0.65152 -0.580308 
3530 2 -695.099 2248.89 -546.747 -0.236973 0.674263 -0.198168 -0.670778 
3602 2 -756.453 2302.56 -595.43 -0.0874692 -0.894846 -0.398544 0.181002 
3601 2 -752.251 2305.68 -587.012 0.115285 -0.142897 -0.954829 0.233649 
3600 2 -750.589 2312.24 -579.931 0.383094 0.651477 -0.62841 0.184169 
3599 2 -748.931 2315.75 -570.897 0.163322 0.968351 0.150305 -0.114153 
3598 2 -747.393 2318.4 -561.365 0.00218727 0.520461 0.823864 -0.224421 
3597 2 -746.655 2321.81 -552.182 -0.0649736 -0.293352 0.941735 -0.151192 
3596 2 -744.654 2328.15 -544.956 -0.336165 -0.860152 0.383245 -0.0159863 
3595 2 -740.202 2335.5 -540.019 -0.276192 -0.779204 -0.370412 0.423503 
3594 2 -733.575 2341.8 -535.893 0.105204 -0.352818 -0.743587 0.558149 
3593 2 -728.435 2349.71 -532.965 0.525443 0.356863 -0.730945 0.249555 
3587 3 -683.117 2344.05 -540.096 -0.396636 -0.57005 0.715286 0.0780245 
3592 2 -724.18 2356.68 -527.476 0.458038 0.858879 -0.0720075 -0.217582 
3591 2 -721.548 2363.4 -520.841 0.202737 0.683759 0.596548 -0.368107 
3529 2 -687.277 2243.33 -545.341 -0.606502 0.651264 0.383624 -0.246663 
3541 2 -673.341 2260.82 -658.616 -0.377842 0.0852217 -0.598778 0.701026 
3528 2 -679.163 2237.74 -544.697 -0.622315 0.0726902 0.719341 0.299981 
3590 2 -716.155 2369.6 -515.356 -0.269842 0.061722 0.877597 -0.391406 
3542 2 -667.878 2253.24 -655.56 -0.858094 -0.318287 -0.342602 0.212113 
3627 2 -643.976 2354.74 -665.068 -0.827237 0.418194 0.117585 0.356323 
3547 2 -632.235 2230.72 -631.729 0.497494 0.36199 0.160336 0.771852 
3546 2 -640.499 2234.26 -635.953 0.804758 0.359341 0.382594 0.277236 
3549 2 -617.234 2231.25 -619.024 -0.853092 0.273878 -0.250928 0.366416 
3545 2 -647.425 2237.94 -641.843 0.791517 0.0162844 0.453234 -0.409652 
3543 2 -662.994 2246.44 -650.278 -0.577339 -0.577181 -0.137895 -0.560827 
3544 2 -655.222 2241.31 -647.013 -0.00171562 -0.422675 0.224447 -0.878047 
3582 2 -650.998 2320.77 -563.697 0.968511 -0.118744 0.204199 0.0786771 
3581 2 -653.521 2323.22 -573.081 0.737576 0.0238527 0.19305 -0.646641 
3580 2 -659.239 2326.42 -580.54 -0.0749296 -0.318037 0.110864 -0.938588 
3563 2 -555.605 2292.36 -655.593 0.036326 -0.703758 0.39061 0.592308 
3562 2 -546.499 2288.98 -653.832 0.448102 -0.705236 -0.348333 0.424866 
3564 2 -564.138 2296.81 -658.112 -0.351496 -0.154793 0.8482 0.364755 
3579 2 -659.474 2329.6 -589.853 -0.886428 -0.156946 0.0612711 -0.431114 
3550 2 -611.651 2234.15 -611.533 -0.769594 -0.0484978 -0.324996 -0.547496 
3578 2 -660.151 2332.39 -599.457 -0.877409 -0.120387 -0.0509427 0.461589 
3551 2 -606.173 2235.94 -603.548 -0.00791085 -0.306402 -0.118705 -0.944439 
3552 2 -599.962 2237.83 -596.033 0.706381 -0.425081 0.212103 -0.524733 
3553 2 -592.849 2241.03 -590.061 0.935507 -0.125022 0.306584 0.123297 
3565 2 -571.331 2301.72 -662.405 -0.620134 0.499402 0.604728 -0.0183225 
3566 2 -578.87 2308.01 -664.447 -0.326614 0.524987 0.00768671 -0.785909 
3567 2 -586.159 2312.2 -659.129 0.344272 0.220911 -0.509758 -0.75685 
3568 2 -593.281 2318.01 -655.545 0.81363 -0.351048 -0.43847 -0.15005 
3628 2 -642.662 2362.1 -658.601 -0.809857 0.372685 -0.283716 -0.35319 
3569 2 -599.154 2325.06 -652.055 0.590593 -0.492717 -0.0256784 0.638569 
3629 2 -640.644 2369.93 -652.961 -0.354541 0.130956 -0.367909 -0.849585 
3554 2 -588.485 2244.81 -582.001 0.553724 0.048651 0.409152 0.723614 
3555 2 -583.08 2248.87 -574.896 -0.166906 0.441009 -0.0289542 0.881371 
3556 2 -575.059 2249.19 -568.91 -0.786913 0.358167 -0.463107 0.194978 
3557 2 -566.302 2253.04 -566.469 -0.613992 -0.121084 -0.591855 -0.507997 
3558 2 -557.844 2257.19 -563.476 -0.0104934 -0.52321 -0.278086 -0.805487 
3577 2 -657.146 2336.83 -607.71 -0.251522 -0.230652 -0.19877 0.918709 
3576 2 -651.047 2340.5 -614.677 0.529797 -0.183482 -0.382426 0.734438 
3575 2 -643.827 2343.99 -620.629 0.902091 0.17084 -0.390674 0.0664825 
3574 2 -637.777 2342.32 -628.22 0.621238 0.216514 -0.325706 -0.679044 
3573 2 -629.712 2339.08 -632.895 -0.28198 0.555106 -0.056606 -0.780474 
3572 2 -620.681 2336.02 -635.719 -0.710984 0.382508 0.52064 -0.277711 
3560 3 -571.87 2271.53 -611.189 0.578165 -0.295461 -0.702584 0.29121 
3570 2 -606.381 2330.34 -647.789 -0.184978 -0.322294 0.352505 0.858866 
3571 2 -613.039 2334.22 -641.569 -0.856152 -0.0906398 0.422626 0.283154 
3583 2 -647.871 2323.69 -554.663 0.606622 0.221183 0.297664 0.703195 
3584 2 -641.701 2325.44 -547.058 -0.0956168 0.441742 0.0387933 0.891188 
3585 2 -634.299 2326.3 -540.694 -0.843857 0.247943 -0.343602 0.329192 
3559 1 -537.593 2270.3 -604.001 0.566494 -0.302391 -0.748694 0.164627 
3561 2 -538.696 2285.88 -648.606 0.518178 -0.280657 -0.807586 -0.0229725 
3656 2 -621.054 2355.82 -528.264 0.429027 0.0580121 0.493389 -0.754412 
3655 2 -625.755 2364.13 -530.983 -0.230268 -0.44466 0.436593 -0.747423 
3654 2 -629.236 2372.14 -535.563 -0.791596 -0.559981 -0.0990657 -0.223568 
3653 2 -633.58 2380.91 -535.323 -0.547949 -0.317049 -0.6489 0.422091 
3630 2 -640.322 2377.37 -646.191 0.584974 -0.126604 -0.25038 -0.760978 
3657 2 -617.678 2348.26 -522.805 0.91601 0.185588 0.313484 -0.167962 
3658 2 -611.807 2342.99 -516.852 0.719051 0.46517 -0.073346 0.51108 
3586 1 -660.916 2356.5 -516.046 -0.4064 -0.631362 0.659687 0.0321574 
3631 2 -641.207 2382.86 -637.924 0.886631 -0.461514 0.0281988 -0.00977671 
3642 2 -677.193 2473.67 -564.822 0.515283 0.226164 0.599233 -0.569433 
3643 2 -674.442 2464.36 -563.507 0.711226 0.652534 0.247365 -0.084657 
3644 2 -671.306 2454.98 -563.673 0.501938 0.512125 -0.327361 0.615323 
3645 2 -668.47 2445.9 -560.332 -0.299128 0.0364778 -0.580286 0.756611 
3652 2 -639.443 2388.84 -535.25 0.0255062 0.491735 -0.545653 0.678092 
3646 2 -664.836 2437.19 -557.091 -0.697897 -0.449809 -0.399802 0.388291 
3647 2 -662.379 2427.92 -554.231 -0.790909 -0.519104 0.0359183 -0.322031 
3648 2 -658.389 2419.54 -550.739 -0.197132 -0.288815 0.398337 -0.84797 
3649 2 -654.73 2411.58 -545.982 0.515926 0.0392361 0.547649 -0.657542 
3641 3 -651.082 2441.68 -596.256 -0.789226 -0.60472 0.102933 -0.0290127 
3650 2 -649.825 2403.5 -543.07 0.81428 0.42777 0.358332 -0.15987 
3632 2 -641.328 2390.87 -632.288 0.386142 -0.276496 0.584756 0.657651 
3640 1 -650.863 2475.77 -603.949 -0.760215 -0.633623 0.0900441 -0.111743 
3633 2 -641.095 2400.72 -630.723 -0.26944 0.334583 0.651922 0.624863 
3635 2 -640.296 2420.43 -632.545 -0.656808 0.539982 -0.489763 -0.192757 
3636 2 -636.984 2429.61 -633.838 -0.356986 0.179663 -0.736707 -0.545477 
3634 2 -640.094 2410.62 -630.656 -0.640007 0.737025 0.179595 0.122188 
3639 2 -625.67 2456.75 -638.955 0.606811 -0.612255 0.448744 0.235698 
3638 2 -629.043 2447.44 -637.494 0.582215 -0.743256 -0.123218 -0.305637 
3637 2 -633.374 2438.7 -635.478 0.0887937 -0.429081 -0.660987 -0.60918 
3651 2 -646.091 2395.24 -538.93 0.588707 0.51435 -0.0186344 0.623314 
3855 2 -721.192 2562.14 -574.663 -0.371604 -0.77792 0.332192 0.382621 
3854 2 -713.071 2565.3 -569.886 0.154541 -0.674951 -0.522806 0.497225 
3853 2 -704.819 2567.55 -564.722 0.469862 -0.0288268 -0.866818 0.164394 
3856 1 -714.302 2582.46 -616.605 0.801015 -0.46236 0.0259213 -0.379376 
3852 2 -699.188 2572.99 -558.743 0.432279 0.799443 -0.374901 -0.182963 
3857 3 -699.644 2605.12 -594.334 0.747249 -0.495209 0.0393405 -0.441406 
3851 2 -693.137 2576.24 -551.716 0.0650721 0.890394 0.306068 -0.330584 
3850 2 -687.102 2577.59 -543.995 -0.19342 0.388495 0.872377 -0.224985 
3849 2 -680.756 2574.98 -536.794 -0.245979 -0.369156 0.85617 0.264936 
3848 2 -674.535 2572.34 -529.447 -0.0363634 -0.841064 0.412404 0.348157 
3858 2 -697.549 2616.07 -645 0.790258 -0.286643 0.466008 -0.27598 
3859 2 -688.529 2618.24 -641.413 0.726415 0.215114 0.375948 0.533582 
3860 2 -680.723 2619.25 -635.362 -0.0298908 0.400332 0.0484186 0.914602 
3861 2 -673.658 2620.61 -628.5 -0.802678 0.303531 -0.129057 0.496912 
3862 2 -668.677 2624.49 -620.648 -0.925406 0.0370874 -0.221974 -0.30492 
3847 2 -668.597 2571.49 -521.485 0.171233 -0.832692 -0.496798 0.174629 
3863 2 -664.844 2626.21 -611.685 -0.420609 -0.086026 -0.20734 -0.879032 
3846 2 -660.366 2570.64 -515.872 0.509319 -0.0392746 -0.859486 -0.0183437 
3864 2 -661.542 2629.34 -602.957 0.29255 -0.189509 -0.0333352 -0.936691 
3866 2 -650.474 2635.94 -588.534 0.778639 0.0173258 0.471974 0.413112 
3865 2 -657.435 2631.73 -594.174 0.807099 -0.383775 0.216537 -0.392963 
3867 2 -643.348 2639.11 -582.596 0.167005 0.396435 0.354757 0.830118 
3868 2 -635.78 2643.45 -578.047 -0.685014 0.519413 -0.0922081 0.502457 
3869 2 -629.636 2649.7 -573.423 -0.794385 0.313717 -0.320894 -0.409342 
3870 2 -626.933 2656.96 -567.255 -0.155899 -0.178906 -0.246731 -0.939581 
3871 2 -622.424 2660.85 -559.438 0.738431 -0.221005 -0.104105 -0.628521 
3872 2 -621.105 2665.42 -550.914 0.958642 -0.273565 0.0358372 0.0698859 
3873 2 -620.95 2670.32 -542.266 0.557988 -0.207951 0.225681 0.771022 
3874 2 -621.032 2675.42 -533.782 -0.28478 0.160691 0.18936 0.925862 
3875 2 -619.29 2679.98 -525.198 -0.861418 0.337175 0.088031 0.369489 
3876 2 -617.698 2686.4 -517.775 -0.806859 0.146469 -0.371533 -0.435302 
3889 2 -527.577 2700.72 -529.759 0.0545019 0.685807 -0.665753 -0.288916 
3890 2 -532.271 2704.29 -537.695 0.216905 -0.0628252 -0.968181 -0.107847 
3891 2 -536.65 2706.05 -546.432 0.173389 -0.768148 -0.586551 0.189324 
3909 2 -622.318 2816.16 -592.226 -0.016898 0.831707 -0.346994 -0.433096 
3892 2 -541.356 2707.03 -554.976 -0.0832616 -0.832898 0.358996 0.412881 
3893 2 -548.17 2708.18 -562.105 -0.4255 0.0342473 0.898615 0.10133 
3894 2 -556.233 2710.47 -567.301 -0.393053 0.592366 0.624892 -0.32268 
3895 2 -565.27 2712.25 -571.195 -0.110627 0.823562 -0.130298 -0.540861 
3908 2 -615.156 2813.29 -585.995 -0.350697 0.735726 0.534098 -0.224629 
3907 2 -607.901 2808.14 -581.695 -0.486464 0.186225 0.821891 0.23058 
3906 2 -603.424 2800.41 -577.194 0.00556685 -0.468964 0.688512 0.553167 
3905 2 -601.451 2790.66 -576.772 0.561032 -0.709727 0.216723 0.366828 
3903 2 -602.097 2771.12 -576.839 0.0744259 -0.111751 -0.732738 -0.667134 
3904 2 -602.238 2780.96 -578.122 0.702881 -0.591629 -0.234103 -0.318007 
3902 2 -601.708 2761.51 -579.127 -0.423784 0.303834 -0.512366 -0.682329 
3901 2 -601.586 2752.36 -582.76 -0.848856 0.501843 -0.0625445 -0.153898 
3900 2 -597.88 2743.25 -584.258 -0.559441 0.249254 0.620482 0.489797 
3899 2 -592.734 2735.03 -582.398 0.138156 -0.517625 0.570043 0.622919 
3898 2 -588.667 2725.97 -581.126 0.562657 -0.781635 0.105693 0.247575 
3897 2 -580.862 2719.97 -580.11 0.627106 -0.231947 -0.708589 -0.225478 
3896 2 -573.814 2715.04 -575.301 0.281982 0.379325 -0.761269 -0.443923 
3922 2 -526.182 2838.35 -586.881 0.367943 0.0266179 0.81539 -0.446148 
3936 2 -525.224 2720.49 -618.888 -0.137662 -0.0525919 0.759057 -0.634126 
3937 1 -514.229 2712.66 -573.727 -0.11929 -0.193594 -0.818338 -0.527839 
3923 2 -521.154 2830.86 -590.927 0.676892 0.662831 0.319944 -0.0104017 
3935 2 -524.046 2730.02 -616.747 -0.581085 -0.64898 0.432812 -0.232032 
3934 2 -519.23 2738.79 -616.646 -0.519333 -0.676369 -0.188884 0.486971 
3888 2 -524.214 2697.43 -521.142 -0.170084 0.968587 0.13267 -0.123731 
3924 2 -515.421 2822.85 -591.943 0.371601 0.689898 -0.388814 0.484539 
3933 2 -513.245 2746.52 -614.89 0.110562 -0.354268 -0.649637 0.663508 
3925 2 -511.044 2814.45 -594.858 -0.0964798 0.204509 -0.90004 0.372554 
3926 2 -508.267 2808.43 -602.146 -0.190335 -0.710513 -0.648384 0.196321 
3932 2 -513.882 2756.53 -615.171 0.368033 0.377468 -0.579309 0.621668 
3927 2 -508.272 2803.1 -610.451 -0.512152 -0.853118 0.0992917 0.00557953 
3928 2 -509.942 2795 -615.964 -0.518231 -0.346244 0.572691 -0.532519 
3929 2 -512.03 2785.42 -615.522 0.20253 0.184835 0.729402 -0.62673 
3931 2 -510.044 2765.79 -615.564 0.70478 0.582362 -0.377868 0.146135 
3938 3 -495.193 2740.93 -581.652 -0.109167 -0.241145 -0.820649 -0.506425 
3942 2 -481.74 2748.77 -540.141 0.127639 -0.137166 0.820194 0.540533 
3941 2 -483.766 2739.77 -536.837 0.520065 -0.658182 0.479502 0.257694 
3930 2 -511.437 2775.57 -616.708 0.673765 0.549979 0.416945 -0.264046 
3939 2 -490.922 2721.68 -533.758 -0.0568402 -0.29245 -0.645167 -0.703564 
3940 2 -486.844 2730.69 -534.145 0.513605 -0.741764 -0.242999 -0.356296 
3943 2 -482.76 2757.53 -544.356 -0.392297 0.509838 0.630529 0.434283 
3944 2 -484.161 2766.58 -548.193 -0.427482 0.903518 -0.0128442 -0.0273858 
3945 2 -484.147 2774.22 -554.451 -0.239088 0.502905 -0.755099 -0.346049 
3946 2 -485.045 2781.3 -561.373 0.00493543 -0.20614 -0.921354 -0.329528 
3947 2 -484.659 2787.39 -569.215 0.00786072 -0.898262 -0.341013 -0.27708 
3948 2 -480.076 2789.78 -577.56 0.380262 -0.77968 0.407557 -0.285301 
3949 2 -473.313 2794.71 -582.945 0.143201 -0.204669 0.945433 0.209189 
3950 2 -470.947 2798.51 -591.752 -0.0745338 0.598969 0.678519 0.41868 
3951 2 -467.443 2804.55 -598.688 -0.353274 0.924121 0.00186716 0.145585 
3952 2 -465.146 2811.04 -605.747 -0.363899 0.528978 -0.742167 -0.192221 