ITEM: TIMESTEP
100000000
ITEM: NUMBER OF ATOMS
4067
ITEM: BOX BOUNDS pp pp pp
-4.6310929470000001e+03 4.6704658980000004e+03
-4.6310929470000001e+03 4.6704658980000004e+03
-4.6310929470000001e+03 4.6704658980000004e+03
ITEM: ATOMS id type x y z c_q[1] c_q[2] c_q[3] c_q[4] 
3342 2 -250.099 1940.54 -514.209 -0.160053 0.310087 0.928672 0.125688 
3779 2 -600.292 2682.79 -539.098 -0.814025 0.00306732 -0.423797 -0.397177 
3777 2 -609.705 2667.33 -547.114 -0.312464 0.426383 0.284146 0.799891 
3778 2 -604.722 2674.48 -542.339 -0.803389 0.549084 -0.13984 0.18308 
3780 2 -593.462 2686.87 -533.047 -0.317416 -0.363164 -0.157794 -0.861661 
3775 1 -643.439 2648.76 -519.748 0.736152 -0.427113 0.0250328 -0.524432 
3781 2 -586.651 2687.35 -525.769 0.424213 -0.198779 0.327511 -0.820528 
3782 2 -580.608 2684.45 -518.42 0.938171 0.0916573 0.317932 -0.101754 
4067 2 -802.552 3124.56 -586.466 0.181596 0.927078 -0.327898 0.00560121 
4066 2 -801.614 3127.25 -577.043 0.0766102 0.789685 0.597428 -0.116653 
4065 2 -799.447 3130.84 -568.163 -0.152962 -0.125653 0.963266 -0.181476 
4064 2 -794.889 3136.38 -561.197 -0.422453 -0.771736 0.469889 0.0718429 
4063 2 -793.291 3141.7 -553.041 -0.248601 -0.927028 -0.223079 0.170449 
4062 2 -790.393 3146.7 -545.016 0.0266267 -0.405349 -0.834147 0.373072 
4061 2 -787.483 3152.36 -537.485 0.277689 0.366286 -0.849205 0.259952 
4060 2 -785.782 3156.42 -528.749 0.197974 0.931414 -0.300458 -0.0547694 
4059 2 -783.534 3162.8 -521.46 0.211064 0.825642 0.462821 -0.244056 
4058 2 -780.123 3169.79 -515.295 -0.163818 0.138941 0.869806 -0.444181 
2535 2 -113.15 494.39 -397.811 0.707301 -0.591397 0.137296 0.362111 
2536 2 -115.26 503.766 -395.62 0.0923595 -0.0678319 0.601855 0.790341 
2537 2 -115.586 513.523 -393.789 -0.495937 0.332632 0.502483 0.625231 
2538 2 -116.866 522.932 -391.166 -0.908963 0.383011 0.141245 -0.0844941 
2539 2 -120.458 530.13 -385.491 -0.457114 0.344641 -0.294621 -0.765158 
2540 2 -122.674 537.732 -379.473 0.167974 0.0133617 -0.331727 -0.928204 
2541 2 -123.21 544.601 -372.232 0.777823 -0.334243 -0.292733 -0.4445 
2542 2 -124.675 552.031 -365.852 0.791423 -0.555901 0.0764308 0.242451 
2587 1 -223.127 597.83 -389.476 0.732217 -0.353914 0.501917 0.294419 
2594 2 -219.432 668.44 -377.379 -0.278072 0.745489 0.0296017 0.605017 
2593 2 -228.15 663.916 -378.338 0.267438 0.448398 0.505338 0.687059 
2590 2 -245.867 641.548 -382.257 0.195834 -0.428456 -0.409897 -0.781062 
2592 2 -235.985 657.976 -379.762 0.628316 -0.0758483 0.664509 0.397358 
2591 2 -240.646 649.222 -378.928 0.601288 -0.742715 0.0186664 -0.294072 
2589 2 -252.557 634.398 -384.787 -0.462709 -0.043288 -0.569996 -0.677592 
2595 2 -210.963 673.43 -377.633 -0.775038 0.363442 -0.481394 0.188377 
2596 2 -202.35 677.857 -375.487 -0.699036 -0.081221 -0.524179 -0.47957 
2588 3 -201.478 624.364 -382.52 0.707299 -0.355128 0.481854 0.37607 
2597 2 -194.061 681.809 -371.691 0.0539191 -0.391762 -0.237816 -0.887163 
2586 2 -180.183 578.564 -393.285 0.0880211 0.47573 0.614845 -0.622816 
2585 2 -175.119 586.8 -391.725 -0.463338 -0.165664 0.742248 -0.454908 
2584 2 -168.794 594.46 -392.219 -0.718992 -0.589576 0.335722 0.150802 
2598 2 -186.965 686.219 -366.403 0.68489 -0.549641 0.296428 -0.375435 
2583 2 -164.897 603.142 -389.515 -0.369444 -0.731075 -0.344119 0.458937 
2582 2 -160.338 611.487 -386.559 -0.00674906 -0.377588 -0.742989 0.552584 
2581 2 -157.14 619.076 -381.273 0.27334 0.283926 -0.846307 0.358378 
2599 2 -179.204 692.406 -364.585 0.723302 -0.151487 0.547009 0.393277 
2580 2 -155.152 628.576 -379.224 0.647614 0.708719 -0.266087 0.086662 
2579 2 -152.577 638.14 -379.707 0.571248 0.654174 0.245483 -0.430662 
2578 2 -149.507 647.484 -378.907 0.128481 0.2933 0.665098 -0.67462 
2577 2 -143.557 655.285 -379.711 -0.603177 -0.262745 0.671727 -0.340478 
2576 2 -135.529 660.628 -377.782 -0.513449 -0.740371 0.236408 0.363774 
2575 2 -127.202 663.504 -373.194 0.00228314 -0.748872 -0.346924 0.56465 
2574 2 -118.407 665.138 -368.972 0.499716 -0.288717 -0.761969 0.293819 
2572 2 -100.104 671.612 -366.028 0.27517 0.717851 -0.209444 -0.604239 
2573 2 -109.713 669.601 -367.571 0.626458 0.496742 -0.568097 -0.195101 
2571 2 -90.4917 673.09 -364.011 -0.301291 0.638193 0.450235 -0.547012 
2570 2 -81.1491 675.851 -362.943 -0.693367 -0.0150912 0.705792 -0.144472 
2751 2 -253.569 905.842 -443.965 0.688195 -0.419652 0.0105752 0.591749 
2752 2 -257.928 911.304 -437.145 0.0795859 -0.342407 0.266884 0.897327 
2753 2 -264.06 916.362 -431.282 -0.647102 0.0343827 0.351204 0.675819 
2754 2 -268.508 921.854 -424.256 -0.878456 0.443732 0.158785 0.0787684 
2755 2 -270.946 929.266 -418.166 -0.702487 0.562298 -0.0672993 -0.43105 
2756 2 -274.772 937.608 -414.53 -0.174643 0.214967 -0.600636 -0.750017 
2757 2 -276.516 947.046 -411.488 0.437361 -0.336385 -0.460091 -0.695613 
2750 3 -233.706 951.572 -429.543 0.397065 -0.381724 0.145937 0.821784 
2758 2 -275.375 956.501 -409.135 0.786431 -0.610023 -0.0937587 0.0246376 
2759 2 -276.537 966.163 -407.287 0.334412 -0.493769 0.520493 0.611104 
2760 2 -278.668 975.776 -407.329 -0.326338 0.118256 0.684212 0.641383 
2761 2 -281.732 985.229 -407.574 -0.60135 0.6918 0.376007 0.135683 
2762 2 -283.811 994.365 -410.638 -0.485645 0.67523 -0.444692 -0.332359 
2743 2 -216.833 990.677 -413.824 -0.0100373 -0.755429 0.50306 -0.419712 
2763 2 -283.994 1003.94 -412.976 0.144194 0.121772 -0.840414 -0.508019 
2749 1 -214.711 931.64 -451.24 0.464929 -0.420501 0.14238 0.765995 
2742 2 -221.19 995.413 -406.39 -0.333725 -0.8716 -0.33924 -0.117719 
2741 2 -223.891 999.885 -398.054 -0.136526 -0.257393 -0.942838 0.161756 
2740 2 -227.151 1006.29 -391.341 0.113708 0.555417 -0.724032 0.392888 
2739 2 -228.461 1010.79 -382.619 0.197795 0.97944 0.000162362 0.0396871 
2744 2 -209.766 987.152 -419.8 0.483147 0.022256 0.81272 -0.324899 
2745 2 -201.796 982.378 -423.531 0.357911 0.816316 0.446209 0.0801589 
2746 2 -197.572 977.693 -431.272 0.0228446 0.907337 -0.353218 0.226837 
2747 2 -193.044 974.834 -439.534 -0.12069 0.321529 -0.908641 0.237539 
2748 2 -189.133 971.19 -447.93 -0.269779 -0.517784 -0.810829 0.0409313 
2737 2 -229.609 1013.82 -363.376 0.0154945 -0.213632 0.976758 -0.0080276 
2738 2 -229.68 1013.65 -373.289 0.126618 0.585284 0.799761 -0.0423411 
2764 2 -287.698 1012.13 -417.185 0.415103 -0.574222 -0.636954 -0.303724 
2765 2 -289.056 1020.9 -421.418 0.586815 -0.784054 -0.0701718 0.189694 
2773 2 -301.497 1096.29 -435.569 0.342606 -0.474327 0.596817 0.54904 
2772 2 -300.917 1086.47 -434.333 0.693943 -0.706414 0.108695 0.0872233 
2774 2 -302.843 1105.95 -436.665 -0.127982 0.350331 0.687114 0.623509 
2775 2 -300.761 1115.53 -438.816 -0.58645 0.773663 0.114789 0.210585 
2777 3 -332.819 1089.92 -407.016 0.552047 0.791216 -0.219159 -0.145569 
2771 2 -300.16 1076.53 -433.96 0.531676 -0.565772 -0.473378 -0.416096 
2770 2 -301.552 1066.79 -433.39 -0.000101451 -0.0968844 -0.743279 -0.661929 
2769 2 -301.119 1057.26 -430.958 -0.490098 0.615266 -0.468786 -0.401861 
2768 2 -299.14 1047.61 -429.448 -0.654986 0.703921 0.262956 0.0796458 
2767 2 -295.269 1038.88 -426.82 -0.30898 0.0922437 0.796087 0.51212 
2766 2 -292.785 1029.85 -423.467 0.1753 -0.520236 0.654786 0.5195 
2776 1 -319.449 1120.24 -395.732 0.584362 0.76868 -0.226504 -0.12786 
3073 1 -289.074 1289.67 -369.454 -0.648086 0.113214 0.388211 0.645336 
3075 2 -249.429 1314.92 -364.763 0.378341 -0.351957 0.164941 0.840106 
3136 2 -373.564 1568.6 -456.39 0.79045 -0.385896 -0.45941 0.12335 
3135 2 -365.439 1564.23 -459.98 0.637411 0.14505 -0.474614 -0.589415 
3137 2 -381.815 1573.4 -454.23 0.564614 -0.398441 0.0795686 0.718418 
3138 2 -387.175 1579.46 -448.654 -0.00736008 -0.191989 0.486579 0.852248 
3139 2 -390.83 1587.61 -444.561 -0.802756 0.113908 0.443206 0.382329 
3140 2 -396.582 1592.94 -438.604 -0.796118 0.428404 0.0721275 -0.421264 
3141 2 -400.958 1598.45 -431.738 -0.227855 0.309207 -0.108413 -0.916908 
3142 2 -405.792 1602.41 -423.932 0.507193 0.130267 -0.331495 -0.784791 
3143 2 -411.235 1606.69 -416.811 0.96722 -0.0504742 -0.245766 -0.0392105 
3144 2 -415.821 1607.58 -408.221 0.702695 -0.146991 -0.0872155 0.690656 
3165 2 -494.835 1610.1 -382.885 -0.169105 0.758783 0.458089 0.431053 
3164 2 -497.24 1605.2 -374.642 0.186735 0.0603447 0.943136 0.268296 
3145 2 -418.406 1609.69 -398.9 0.0856643 -0.165242 -0.0290359 0.982096 
3166 2 -489.64 1616.84 -387.977 -0.668974 0.716393 -0.149208 -0.130353 
3146 2 -420.964 1608.78 -389.282 -0.635293 0.110244 0.192686 0.739676 
3147 2 -421.43 1612.46 -380.034 -0.942749 0.332207 -0.00952948 0.0277687 
3148 2 -421.165 1618.14 -371.91 -0.603196 0.185207 -0.417223 -0.654047 
3163 2 -498.091 1601.18 -365.55 0.221847 -0.795675 0.54661 0.137488 
3134 2 -358.649 1558.19 -463.973 0.0625291 0.385521 -0.395989 -0.831057 
3133 2 -351.453 1555.07 -469.988 -0.600343 0.407763 0.124905 -0.676547 
3132 2 -345.298 1549.65 -475.524 -0.877068 0.295892 0.373346 0.0617436 
3131 2 -338.273 1545.6 -481.176 -0.504447 -0.186541 0.407257 0.738158 
3130 2 -333.052 1540.37 -487.842 0.393142 -0.397034 0.155862 0.814561 
3118 2 -301.07 1534.63 -390.08 -0.0199896 -0.128614 0.873317 0.469443 
3117 2 -301.095 1526.34 -384.802 0.409875 -0.735504 0.483375 0.239552 
3128 3 -316.389 1556.42 -446.598 -0.56788 0.213174 0.334091 -0.721424 
3120 2 -302.435 1550.6 -401.68 -0.569911 0.798363 0.0745102 0.179628 
3121 2 -300.238 1559.61 -404.869 -0.517295 0.545166 -0.605182 -0.262593 
3122 2 -296.587 1568.31 -407.757 -0.0513376 -0.354917 -0.828229 -0.430622 
3119 2 -302.717 1542.78 -395.449 -0.291101 0.596215 0.677296 0.317897 
3129 2 -325.994 1538.76 -494.525 0.863152 -0.207377 -0.34266 0.307487 
3127 1 -294.707 1566.09 -472.182 -0.484232 0.20637 0.318124 -0.788497 
3123 2 -292.686 1574.92 -414.052 0.263676 -0.868388 -0.218696 -0.358537 
3124 2 -288.28 1580.94 -420.554 0.389571 -0.623682 0.677665 0.0050165 
3125 2 -283.745 1586.12 -427.55 0.205514 0.162875 0.925199 0.274302 
3126 2 -279.327 1590.81 -435.003 -0.132116 0.829635 0.43343 0.326175 
3116 2 -300.438 1518.06 -379.368 0.435876 -0.826947 -0.310611 -0.172313 
3115 2 -299.926 1509.75 -374.087 0.125933 -0.27247 -0.833959 -0.463047 
3114 2 -299.957 1501.05 -369.208 -0.303458 0.455049 -0.710484 -0.442782 
3113 2 -297.63 1493.48 -363.355 -0.443266 0.861742 -0.181298 -0.167474 
3228 2 -556.517 1741.02 -382.908 0.791902 -0.15026 -0.408803 0.428012 
3227 2 -546.79 1742.93 -382.8 0.638764 0.459076 -0.529383 -0.31778 
3229 2 -564.292 1738.69 -377.227 -0.0228284 -0.435857 -0.165089 0.884451 
3230 2 -571.371 1736.08 -370.745 -0.703174 -0.309328 0.187438 0.612151 
3231 2 -577.532 1734.38 -363.191 -0.899563 -0.0199523 0.366119 -0.237369 
3226 2 -536.97 1742.42 -384.216 0.00954596 0.658299 -0.0684194 -0.74958 
3225 2 -527.441 1742.45 -386.979 -0.556915 0.402372 0.423125 -0.590684 
3224 2 -518.003 1740.77 -389.282 -0.783618 0.136299 0.60572 0.0216471 
3167 2 -488.925 1626.78 -388.821 -0.404145 0.4882 -0.581964 -0.509554 
3168 2 -489.151 1636.51 -390.162 0.185114 -0.211398 -0.671587 -0.685576 
3149 2 -418.779 1625.29 -365.558 0.162758 -0.104616 -0.593853 -0.780963 
3169 2 -488.675 1646.35 -389.082 0.703506 -0.544769 -0.12961 -0.437616 
3170 2 -485.1 1654.85 -385.467 0.81631 -0.226904 0.438183 0.300247 
3200 2 -396.148 1714.15 -450.455 -0.0962503 0.503232 -0.276482 0.81305 
3217 2 -457.364 1739.56 -367.68 -0.437336 -0.379649 0.814903 0.0231862 
3218 2 -464.536 1736.36 -373.752 -0.337424 0.465763 0.775339 -0.260883 
3219 2 -472.822 1735.35 -378.967 -0.00851116 0.854516 0.0679982 -0.514885 
3223 2 -508.109 1740.87 -391.054 -0.521002 -0.46849 0.442469 0.559727 
3222 2 -498.316 1740.02 -391.468 0.175417 -0.697339 -0.0848073 0.68975 
3221 2 -490.472 1735.39 -387.459 0.507423 -0.369353 -0.778062 -0.0268236 
3220 2 -481.313 1734.63 -383.988 0.413206 0.529716 -0.616047 -0.411276 
3201 2 -387.745 1710.64 -446.796 -0.808615 0.111303 -0.39392 0.422588 
3209 3 -391.573 1713.25 -393.13 -0.165705 -0.616236 0.685944 0.349679 
3199 2 -404.685 1717.41 -454.253 0.492219 0.52162 0.177163 0.673978 
3202 2 -380.054 1709.28 -440.696 -0.855536 -0.176692 -0.404623 -0.270406 
3171 2 -479.977 1661.69 -380.719 0.163968 -0.0539326 0.651552 0.738706 
3172 2 -478.12 1671.24 -379.116 -0.515146 0.351784 0.502531 0.598611 
3173 2 -478.468 1680.92 -377.257 -0.846038 0.493959 0.180963 0.0864699 
3198 2 -413.054 1719.99 -458.812 0.822059 0.215484 0.488783 0.197172 
3197 2 -422.013 1723.84 -457.772 0.391166 -0.375448 0.609059 -0.578857 
3196 2 -429.59 1729.21 -454.197 -0.235494 -0.824914 0.16873 -0.485375 
3195 2 -436.77 1735.35 -451.549 -0.588248 -0.607736 -0.519581 -0.121065 
3194 2 -444.674 1740.11 -447.889 -0.450099 -0.0043291 -0.832996 0.32173 
3193 2 -450.865 1745.96 -442.809 0.130452 0.742273 -0.41925 0.506204 
3192 2 -454.776 1750.52 -434.911 0.341307 0.817609 0.456372 0.0821565 
3203 2 -372.299 1707.39 -434.756 -0.453052 -0.308295 -0.0661014 -0.833864 
3204 2 -367.195 1704.38 -426.881 0.387179 -0.19372 0.321699 -0.842066 
3182 3 -474.208 1744.74 -365.076 -0.0973704 -0.215544 -0.928457 0.286404 
3191 2 -456.569 1754.08 -425.89 0.139255 0.291096 0.936535 -0.137018 
3190 2 -457.744 1758.4 -416.981 -0.138589 -0.685962 0.688843 -0.18906 
3189 2 -457.908 1762.2 -407.817 -0.188135 -0.978973 -0.0754728 0.0228299 
3174 2 -481.137 1689.7 -373.489 -0.604275 0.469095 -0.183772 -0.617276 
3175 2 -484.745 1697.19 -368.091 0.227812 0.17728 -0.337691 -0.895901 
3150 2 -417.965 1634.71 -362.754 0.783182 -0.530568 -0.0787148 -0.314528 
3208 1 -369.58 1699.29 -369.634 -0.144999 -0.695184 0.604279 0.361305 
3188 2 -455.933 1767.12 -399.528 -0.0714617 -0.517496 -0.814776 0.251459 
3187 2 -454.489 1771.37 -390.528 0.119487 0.27191 -0.934367 0.196842 
3216 2 -448.88 1739.87 -362.482 -0.242263 -0.769269 0.363181 0.466513 
3215 2 -439.215 1738.35 -361.534 0.363996 -0.658121 -0.242049 0.613022 
3205 2 -360.956 1700.85 -419.996 0.902522 -0.052782 0.420978 -0.073797 
3206 2 -353.453 1701.1 -413.505 0.597194 0.475445 0.272211 0.585843 
3207 2 -344.646 1698.74 -409.664 -0.00328817 0.538214 -0.147757 0.829748 
3186 2 -455.392 1775.72 -381.719 0.185456 0.923413 -0.316209 0.113692 
3246 2 -492.398 1792.03 -377.465 -0.204207 -0.546057 -0.784556 -0.211171 
3261 2 -450.401 1881.62 -467.746 0.443874 -0.808426 -0.290635 -0.254862 
3258 2 -457.955 1854.88 -458.547 -0.502403 0.85002 -0.12211 0.100729 
3260 2 -452.393 1872.82 -463.713 0.00717886 -0.251322 -0.801354 -0.542786 
3259 2 -454.334 1863.14 -462.502 -0.491014 0.390518 -0.581483 -0.517956 
3257 2 -464.918 1848.26 -456.135 -0.10757 0.658441 0.445059 0.597333 
3256 2 -470.464 1845.18 -448.367 0.324464 0.0931629 0.926067 0.168651 
3255 2 -473.354 1840.16 -440.298 0.289046 -0.737358 0.610034 0.0247717 
3251 2 -473.064 1811.46 -414.382 -0.309606 0.924066 -0.106136 -0.197438 
3249 2 -473.929 1800.63 -398.572 0.0996733 0.135398 0.953626 0.249659 
3250 2 -471.332 1805.09 -407.078 -0.382728 0.702008 0.590735 0.108334 
3248 2 -479.94 1796.9 -391.711 0.357696 -0.610182 0.693558 -0.136782 
3254 2 -472.596 1832.91 -433.484 0.402269 -0.876247 -0.259002 -0.0573461 
3253 2 -475.156 1824.47 -428.844 0.0833247 -0.352961 -0.771595 -0.522606 
3252 2 -475.528 1817.92 -421.5 -0.194956 0.468724 -0.814919 -0.279638 
3263 3 -419.283 1852.44 -438.187 0.589226 0.650493 0.460053 -0.134249 
3269 2 -381.342 1837.85 -424.687 0.435851 0.219458 0.818686 -0.302698 
3268 2 -386.896 1841.15 -417.03 0.109615 -0.49846 0.807394 -0.296036 
3267 2 -393.193 1846.61 -411.699 -0.322279 -0.87071 -0.116384 -0.352783 
3266 2 -397.617 1853.26 -405.859 -0.380968 -0.587552 -0.6943 0.166111 
3270 2 -375.497 1831.07 -428.867 0.546751 0.746359 0.343242 0.161857 
3247 2 -486.687 1793.27 -385.462 0.119509 -0.896047 -0.0572772 -0.423718 
3262 1 -428.598 1883.86 -425.941 0.602099 0.636277 0.470436 -0.106386 
3265 2 -399.183 1859.3 -398.041 -0.00324036 0.152109 -0.945544 0.287748 
3264 2 -401.076 1866.78 -391.706 0.327041 0.834694 -0.353048 0.267743 
3185 2 -456.493 1782.18 -374.353 0.321982 0.767739 0.538429 -0.130382 
3245 2 -498.086 1790.87 -369.6 -0.289029 0.41137 -0.862505 0.057645 
3184 2 -454.221 1788.87 -367.408 -0.150184 0.0126064 0.908002 -0.390919 
3271 2 -369.254 1824.27 -432.459 0.265728 0.714895 -0.279887 0.583076 
3272 2 -361.966 1818.13 -435.098 -0.273794 0.393046 -0.691128 0.541196 
3244 2 -505.366 1789.92 -363.321 -0.183895 0.863303 -0.264874 0.388243 
3273 2 -354.013 1812.96 -437.821 -0.631898 -0.209709 -0.738065 -0.109485 
3291 2 -277.433 1814.8 -506.292 0.839009 0.233883 -0.0405329 0.489612 
3292 2 -276.706 1810.53 -497.364 0.0514239 -0.0261082 -0.192882 0.979526 
3274 2 -344.188 1811.55 -439.12 -0.311793 -0.633618 -0.324367 -0.629365 
3275 2 -334.161 1812.4 -439.509 0.521195 -0.634268 0.101583 -0.561908 
3276 2 -325.554 1816.83 -437.93 0.787228 -0.358219 0.500127 -0.0427131 
3277 2 -317.072 1821.67 -435.883 0.322914 0.205673 0.663359 0.642946 
3289 1 -260.322 1855.86 -490.499 0.323547 -0.0398814 -0.357427 0.875199 
3293 2 -277.822 1807.02 -488.149 -0.71926 -0.298752 -0.171735 0.603258 
3295 2 -280.68 1798.44 -470.546 -0.359876 -0.234833 0.239762 -0.87055 
3296 2 -278.82 1792.36 -462.937 0.335335 0.0510797 0.174912 -0.924309 
3297 2 -277.833 1788.52 -453.911 0.90867 -0.0105354 0.0444406 -0.415009 
3294 2 -278.51 1802.32 -479.453 -0.959768 -0.211373 0.111092 -0.147731 
3298 2 -276.329 1787.32 -444.177 0.809863 -0.130155 0.190224 0.539442 
3299 2 -274.74 1790.71 -435.045 -0.107504 0.185649 0.317142 0.923796 
3300 2 -272.409 1796.81 -427.594 -0.713861 0.335532 0.245266 0.563618 
3301 2 -272.211 1804.84 -421.906 -0.919531 0.257049 -0.268386 -0.127897 
3302 2 -268.651 1810.84 -414.679 -0.372098 -0.00956968 -0.292896 -0.880718 
3303 2 -266.629 1817.05 -407.317 0.298457 -0.47002 -0.0868062 -0.826117 
3304 2 -259.301 1821.45 -402.401 0.929849 -0.146916 0.14406 -0.305031 
3278 2 -310.374 1828.96 -435.148 -0.113557 0.569283 0.178184 0.794526 
3279 2 -301.848 1833.05 -432.141 -0.561261 0.570466 -0.415406 0.432426 
3280 2 -292.334 1835.68 -431.186 -0.618652 -0.020198 -0.730838 -0.287642 
3281 2 -283.545 1840.12 -431.108 0.0918296 -0.531898 -0.435419 -0.72046 
3282 2 -276.933 1847.47 -431.288 0.676609 -0.665664 -0.0238423 -0.313883 
3283 2 -273.486 1856.7 -430.672 0.521406 -0.500395 0.631914 0.280043 
3284 2 -269.359 1865.18 -433.608 0.0272501 0.178521 0.805525 0.564373 
3285 2 -265.756 1873.86 -436.686 -0.186334 0.84461 0.244394 0.438389 
3286 2 -259.109 1879.23 -441.595 -0.31626 0.747855 -0.575837 0.0954159 
3287 2 -254.211 1883.65 -449.003 -0.277466 -0.125823 -0.939987 -0.153639 
3288 2 -248.483 1886.44 -456.641 -0.0583078 -0.812691 -0.488583 -0.312123 
3290 3 -268.081 1838.28 -461.146 0.375677 -0.0173548 -0.275681 0.884628 
3332 2 -274.982 1902.74 -431.824 0.223437 -0.812101 -0.391503 -0.370531 
3331 2 -278.104 1900.65 -422.695 -0.134977 -0.356468 -0.896019 -0.227734 
3330 2 -281.148 1899.66 -413.305 -0.197843 0.355425 -0.912775 -0.0370646 
3329 2 -283.375 1898.47 -403.599 -0.12837 0.919288 -0.36689 0.0618271 
3328 2 -285.422 1896.75 -394.073 -0.0957383 0.856063 0.493654 0.119571 
3333 2 -270.744 1908.32 -438.846 0.359604 -0.829455 0.384399 -0.186889 
3327 2 -287.406 1895.06 -384.502 0.12284 0.15648 0.969927 0.140235 
3326 2 -290.821 1891.71 -375.93 0.243378 -0.680595 0.691014 0.00758896 
3325 2 -295.98 1888.03 -368.23 0.183632 -0.950277 0.0294699 -0.249769 
3305 2 -256.18 1823.93 -393.361 0.845967 -0.0725443 0.0891389 0.520704 
3306 2 -255.842 1825.99 -383.666 0.029934 0.168139 0.0684739 0.982927 
3334 2 -265.111 1912.32 -445.877 0.330458 -0.421516 0.834363 0.130234 
3335 2 -260.594 1917.11 -453.43 0.24077 0.476646 0.809418 0.244296 
3336 2 -254.832 1918.97 -461.18 -0.0445597 0.928238 0.27851 0.242532 
3307 2 -254.067 1826.94 -374.091 -0.663264 -0.0617499 0.0582433 0.743556 
3337 2 -250.718 1920.46 -470.012 -0.289274 0.827203 -0.475571 0.0767378 
3338 2 -247.334 1924.36 -478.595 -0.0653596 0.0292188 -0.969737 -0.233418 
3308 2 -255.534 1827.14 -364.317 -0.979555 -0.0472569 0.193309 0.0294898 
3339 2 -246.29 1928.83 -487.372 0.171325 -0.688798 -0.692651 -0.128217 
3340 2 -246.269 1932.78 -496.464 0.184862 -0.963031 0.168409 0.100176 
3343 1 -296.238 1950.23 -511.709 0.829852 0.222527 -0.0611013 0.508029 
3341 2 -247.341 1936.68 -505.528 -0.0250486 -0.441791 0.872324 0.207952 
3344 3 -288.73 1938.54 -479.552 0.845769 0.2102 -0.0524591 0.487585 
3345 2 -338.156 1949.94 -489.992 -0.196926 0.0132494 -0.0078017 -0.980298 
3346 2 -338.897 1950.25 -480.069 0.702725 0.044622 0.105386 -0.702196 
3347 2 -338.834 1948.37 -470.468 0.99887 0.00422506 0.0409079 0.0238004 
3350 2 -329.31 1945.82 -443.642 -0.819424 -0.0127707 -0.507233 0.266639 
3352 2 -313.871 1945.48 -431.449 -0.05847 -0.448305 -0.331103 -0.828236 
3351 2 -321.562 1943.96 -437.552 -0.771428 -0.185009 -0.38614 -0.470708 
3349 2 -335.541 1946.17 -451.322 -0.36264 0.324748 -0.0784714 0.869985 
3348 2 -338.975 1947.5 -460.496 0.585094 0.160233 -0.0118775 0.79489 
3357 2 -270.241 1961.06 -416.19 -0.747585 0.296448 -0.349737 0.480541 
3358 2 -262.337 1961.86 -410.388 -0.868767 -0.201367 -0.384393 -0.238617 
3356 2 -279.059 1958.37 -419.898 -0.221704 0.575366 -0.0210141 0.786994 
3355 2 -288.414 1956.93 -422.895 0.460706 0.40673 0.477581 0.627883 
3360 2 -245.757 1959.71 -399.724 0.455924 -0.182103 0.214127 -0.844465 
3359 2 -254.376 1961.67 -404.294 -0.411121 -0.545824 -0.0900775 -0.724529 
3361 2 -240.477 1957.71 -391.493 0.96049 -0.0327853 0.177891 -0.211517 
3354 2 -297.422 1954.91 -426.625 0.854035 -0.0538835 0.512255 0.072909 
3353 2 -305.72 1949.79 -428.067 0.58741 -0.620828 0.217418 -0.471436 
3390 2 -296.311 2048.52 -406.663 -0.304987 0.92211 0.236845 -0.0244978 
3389 2 -300.175 2043.06 -399.351 0.033749 0.37041 0.865734 0.334907 
3388 2 -303.13 2037.12 -391.963 0.292661 -0.445558 0.825172 0.186867 
3391 2 -298.287 2054.67 -414.257 -0.192058 0.773271 -0.496496 -0.344468 
3387 2 -302.398 2030.54 -384.557 0.356677 -0.897088 0.213465 0.149826 
3386 2 -299.672 2025.65 -376.329 0.280657 -0.706855 -0.648048 -0.0402691 
3392 2 -301.618 2060.88 -421.202 0.177381 0.115205 -0.901156 -0.378393 
3393 2 -306.45 2066.62 -427.663 0.282181 -0.605135 -0.732455 -0.133023 
3394 2 -309.181 2071.9 -435.613 0.0956352 -0.971358 -0.154392 0.153234 
3395 2 -312.66 2074.09 -444.606 -0.0955363 -0.734 0.640276 0.205339 
3362 2 -235.674 1957.14 -382.88 0.731768 0.122622 -0.134833 0.656734 
3363 2 -236.628 1953.96 -373.691 0.0336908 -0.0363702 -0.135097 0.989591 
3385 2 -294.459 2022.24 -368.609 0.244781 0.0978455 -0.934627 -0.238707 
3364 2 -237.627 1951.5 -364.259 -0.732767 -0.180722 -0.107471 0.64718 
3396 2 -316.814 2076.02 -453.461 -0.215164 0.146371 0.964845 0.0367994 
3398 3 -339.915 2071.65 -407.258 -0.815696 -0.264114 -0.214645 -0.467773 
3384 2 -288.402 2018.56 -361.693 0.0303266 0.783293 -0.472526 -0.402805 
3399 2 -390.521 2079.87 -398.748 0.259613 -0.409289 -0.0864531 -0.870408 
3400 2 -383.28 2083.92 -393.154 0.817341 -0.324006 0.180553 -0.440879 
3401 2 -377.413 2088.03 -386.336 0.885872 0.090022 0.3808 0.249236 
3402 2 -370.429 2088.78 -379.368 0.322852 0.458445 0.0222016 0.827709 
3403 2 -362.96 2086.26 -373.413 -0.365461 0.328043 -0.319492 0.810402 
3404 2 -355.338 2083.67 -367.607 -0.83543 -0.0365535 -0.543073 0.0761045 
3397 1 -359.95 2079.68 -434.7 -0.806755 -0.256549 -0.212218 -0.488152 
3405 2 -346.249 2082.39 -364.055 -0.569602 -0.351096 -0.293218 -0.682868 
3639 2 -658.83 2298.69 -388.819 -0.0125347 0.415981 0.405564 -0.813831 
3638 2 -651.895 2305.54 -391.097 -0.653451 -0.0845843 0.589972 -0.466669 
3628 2 -567.19 2332.19 -380.911 0.696777 -0.061869 -0.714013 -0.0293312 
3627 2 -558.013 2332.12 -384.741 0.59859 0.387455 -0.42434 -0.558125 
3626 2 -549.26 2331.37 -389.418 -0.122368 0.499683 -0.0102775 -0.85746 
3625 2 -540.056 2331.74 -393.057 -0.644664 0.351011 0.389361 -0.556416 
3624 2 -531.166 2332.94 -397.388 -0.844803 -0.169069 0.479134 0.167789 
3629 2 -577.113 2333.21 -381.111 0.52606 -0.558621 -0.448501 0.458313 
3630 2 -586.568 2335.94 -381.717 -0.0570386 -0.711401 0.144057 0.685494 
3631 2 -596.25 2337.83 -381.349 -0.587398 -0.384985 0.690768 0.172017 
3632 2 -605.769 2335.89 -383.844 -0.447012 0.4002 0.688637 -0.407184 
3623 2 -524.094 2335.16 -404.087 -0.402472 -0.389524 0.0950691 0.822951 
3633 2 -614.912 2333.13 -386.568 0.258782 0.813879 0.119647 -0.506279 
3634 2 -622.82 2328.1 -389.788 0.495377 0.512013 -0.694608 -0.0998131 
3635 2 -630.55 2324.41 -394.71 0.500366 -0.195058 -0.707351 0.459609 
3637 2 -645.39 2312.36 -394.036 -0.786523 -0.49773 0.204839 0.302799 
3636 2 -639.232 2319.9 -395.944 -0.275317 -0.500459 -0.323537 0.754364 
3640 1 -629.736 2264.49 -374.487 0.113117 -0.444686 -0.498734 -0.735339 
3641 3 -611.752 2293.65 -367.198 0.0834133 -0.430349 -0.499051 -0.747523 
3622 2 -516.691 2338.21 -409.863 0.475715 -0.305147 -0.367627 0.738533 
3621 2 -508.409 2337.51 -415.222 0.901194 -0.0642161 -0.426464 -0.043071 
3620 2 -502.428 2333.85 -422.402 0.495657 0.167161 -0.335383 -0.783518 
3619 2 -496.419 2327.83 -427.168 -0.328515 0.46464 -0.16526 -0.805528 
3618 2 -492.435 2320.12 -432.012 -0.8467 0.500883 0.130416 -0.123321 
3617 2 -489.261 2313.09 -438.156 -0.711466 0.159714 0.376362 0.571541 
3616 2 -483.474 2307.2 -443.693 -0.0950514 -0.275162 0.392179 0.872609 
3615 2 -477.906 2302.69 -450.527 0.660645 -0.426241 -0.0555801 0.615449 
3614 3 -483.28 2354.28 -446.495 0.293257 -0.717097 0.00918112 0.632209 
3613 1 -450.887 2341.34 -449.015 0.261926 -0.701426 0.0419183 0.661543 
3694 1 -530.172 2530.88 -419.753 -0.743017 0.206468 -0.62317 0.130215 
3693 2 -509.62 2488.35 -418.114 0.524084 -0.0659162 -0.747873 0.402091 
3603 2 -474.071 2390.13 -372.052 0.0236566 0.626873 -0.772005 0.102371 
3604 2 -473.246 2387.52 -381.561 0.000249007 -0.096368 -0.990797 -0.0950502 
3602 2 -471.956 2390.23 -362.492 -0.0497605 0.991219 -0.0476965 -0.112842 
3605 2 -472.962 2389.94 -391.167 0.0869116 -0.677743 -0.703763 -0.194496 
3606 2 -472.273 2393.93 -400.209 0.0507435 -0.998554 0.0174957 0.00282918 
3611 2 -451.342 2389.83 -440.895 -0.403521 0.121255 -0.888843 0.180074 
3612 2 -443.877 2387.91 -447.116 -0.396039 -0.554165 -0.701145 -0.210832 
3610 2 -458.419 2392.83 -434.629 0.0155831 0.807894 -0.405207 0.427636 
3607 2 -472.589 2395.31 -409.965 0.153318 -0.617837 0.771041 0.0163315 
3692 2 -501.278 2493.6 -417.429 0.683785 0.444636 -0.572566 -0.0830987 
3609 2 -464.281 2395.96 -427.346 0.313615 0.810502 0.439194 0.227684 
3608 2 -469.783 2397.4 -419.249 0.335066 0.103036 0.936161 -0.0267538 
3691 2 -492.206 2495.46 -413.848 0.155334 0.788747 -0.105736 -0.585294 
3690 2 -483.875 2496.82 -408.898 -0.321838 0.478722 0.733165 -0.360159 
3689 2 -474.722 2495.48 -405.602 -0.559664 -0.206201 0.76591 0.240081 
3688 2 -469.745 2492.77 -397.443 0.0143239 -0.842126 0.471203 0.261891 
3687 2 -465.11 2491.85 -388.838 0.118932 -0.9209 -0.298111 0.221195 
3686 2 -463.31 2491.23 -379.023 0.146831 -0.407783 -0.900278 -0.0406508 
3685 2 -460.148 2491.55 -369.518 0.173352 0.557029 -0.808817 -0.0740451 
3882 2 -732.85 2644.87 -432.446 0.495544 0.711561 -0.414339 0.276478 
3881 2 -733.017 2654.03 -428.389 0.48231 0.785316 0.31861 -0.221682 
3880 2 -734.94 2662.15 -423.141 0.25267 0.349692 0.794955 -0.42652 
3879 2 -736.416 2671.27 -419.799 -0.222064 -0.368391 0.742281 -0.513805 
3883 1 -754.584 2661.33 -470.957 -0.825159 0.549678 -0.130231 0.00248317 
3878 2 -736.845 2679.66 -414.538 -0.480934 -0.849839 0.170932 -0.131376 
3774 2 -665.552 2642.22 -478.522 0.512365 0.0837108 -0.821101 0.237208 
3773 2 -657.669 2646.77 -474.374 0.467236 0.733858 -0.362988 -0.33374 
3772 2 -651.031 2652.19 -469.451 0.138071 0.797587 0.323563 -0.489999 
3771 2 -648.169 2659.32 -463.21 -0.0223691 0.238613 0.867943 -0.435016 
3770 2 -644.377 2666.55 -457.344 -0.426622 -0.331068 0.798719 -0.265396 
3769 2 -639.996 2674.46 -453.355 -0.583574 -0.764159 0.259464 0.0904478 
3768 2 -636.286 2683.38 -455.347 -0.403865 -0.521942 -0.389716 0.642332 
3784 2 -568.18 2680.62 -504.049 -0.408484 0.189832 -0.0802085 0.889197 
3785 2 -564.56 2680.77 -494.808 -0.949547 -0.11539 -0.244127 0.159522 
3791 2 -534.076 2658.34 -450.519 -0.759673 -0.0185356 -0.506593 0.40733 
3790 2 -540.756 2661.31 -457.258 -0.100117 0.329844 -0.204276 0.916215 
3789 2 -546.528 2665.17 -464.282 0.766106 0.354598 0.160468 0.51146 
3788 2 -551.237 2669.33 -472.098 0.856487 0.0625305 0.313138 -0.405542 
3787 2 -557.301 2674.62 -477.733 0.0796059 -0.326553 0.29246 -0.895261 
3786 2 -560.109 2678.83 -486.221 -0.715767 -0.272682 0.0186607 -0.642631 
3792 2 -526.635 2654.26 -445.497 -0.693637 -0.296277 -0.477745 -0.450386 
3746 2 -523.752 2664.66 -363.994 0.933625 -0.115906 -0.338283 0.0217965 
3783 2 -575.524 2681.59 -510.525 0.507508 0.388554 0.106783 0.761616 
3776 3 -626.999 2671.17 -498.372 0.745201 -0.433105 0.0178906 -0.50673 
3696 2 -529.274 2577.93 -421.852 -0.337791 -0.47135 -0.0345601 -0.813961 
3697 2 -521.158 2574.98 -417.269 0.446952 -0.388423 0.365681 -0.71808 
3745 2 -520.2 2663.72 -373.106 0.657028 0.100551 -0.116261 -0.738029 
3793 2 -517.728 2654.06 -441.16 -0.0850859 -0.382522 0.040882 -0.919112 
3803 3 -530.276 2643 -365.344 0.0506202 0.662696 -0.632796 -0.397293 
3695 3 -496.356 2538.62 -414.751 -0.753297 0.247296 -0.603518 0.0845849 
3698 2 -512.45 2572.85 -413.444 0.723871 0.0251738 0.656238 -0.21149 
3744 2 -512.614 2664.73 -379.594 -0.071569 0.413512 0.0711227 -0.904891 
3743 2 -505.232 2663.82 -386.004 -0.811969 0.264172 0.334456 -0.398822 
3794 2 -510.7 2653.2 -434.177 0.729977 -0.126564 0.353461 -0.571122 
3795 2 -504.245 2652.34 -426.678 0.953577 0.114715 0.156019 0.230627 
3796 2 -500.528 2651.13 -417.657 0.4209 0.234878 -0.0185682 0.875974 
3797 2 -496.687 2648.55 -408.911 -0.321242 0.0399215 -0.329181 0.887046 
3699 2 -503.024 2570.26 -411.501 0.687382 0.491956 0.362953 0.392109 
3798 2 -494.437 2643.41 -400.802 -0.882629 -0.272402 -0.337531 0.181206 
3799 2 -490.087 2637.67 -394.025 -0.747275 -0.34819 0.094342 -0.558071 
3800 2 -487.826 2631.73 -386.209 0.0212868 -0.297303 0.166172 -0.939971 
3801 2 -482.237 2628.89 -378.678 0.608585 -0.127932 0.256863 -0.739783 
3733 2 -444.373 2675.8 -454.988 0.766973 -0.405703 -0.108282 0.485213 