ITEM: TIMESTEP
100000000
ITEM: NUMBER OF ATOMS
4067
ITEM: BOX BOUNDS pp pp pp
-4.6310929470000001e+03 4.6704658980000004e+03
-4.6310929470000001e+03 4.6704658980000004e+03
-4.6310929470000001e+03 4.6704658980000004e+03
ITEM: ATOMS id type x y z c_q[1] c_q[2] c_q[3] c_q[4] 
2884 1 -398.551 1267.33 -539.297 -0.53308 0.0641568 -0.179291 0.824357 
2888 2 -352.141 1249.3 -527.503 -0.819877 0.154021 -0.191925 0.516957 
2887 2 -351.448 1253.7 -536.365 0.00478758 -0.00811523 -0.231449 0.972801 
2886 2 -352.694 1257.95 -545.208 0.776575 0.194843 -0.0676484 0.595308 
2889 2 -347.677 1249.02 -518.729 -0.895517 -0.13236 -0.145917 -0.399048 
3424 1 -547.344 2026.48 -522.359 -0.521983 0.466086 -0.661223 -0.270336 
3425 3 -527.855 2054.85 -529.135 -0.536581 0.450182 -0.67186 -0.240874 
3427 2 -573.121 2067.02 -522.771 0.332867 -0.274889 0.857914 0.278603 
3428 2 -568.957 2073.9 -528.379 0.126906 0.465742 0.753813 0.445808 
3426 2 -577.306 2062.21 -515.129 0.303952 -0.870399 0.38473 -0.0447459 
3419 2 -485.003 2040.43 -533.79 0.664641 0.565058 0.226503 -0.433195 
3420 2 -487.771 2031.8 -529.784 0.741623 0.495999 -0.415002 0.178196 
3423 2 -504.919 2008.39 -532.643 -0.518426 -0.752192 0.307556 0.266179 
3422 2 -497.774 2014.82 -529.761 -0.140022 -0.722868 -0.346174 0.581394 
3421 2 -492.286 2022.93 -529.134 0.338592 -0.0808457 -0.709248 0.613014 
3418 2 -482.099 2049.84 -534.561 -0.0147883 0.20823 0.638239 -0.740995 
3417 2 -477.697 2058.24 -531.755 -0.568086 -0.441708 0.64057 -0.268034 
3416 2 -471.382 2065.89 -530.852 -0.625445 -0.70108 0.176833 0.293319 
3415 2 -465.412 2073.55 -528.413 -0.124227 -0.575782 -0.555285 0.587113 
3429 2 -563.671 2079.3 -534.758 -0.211292 0.904905 0.178117 0.323694 
3430 2 -558.346 2083.92 -541.753 -0.354025 0.649678 -0.660979 0.125263 
3431 2 -552.038 2086.87 -548.969 -0.152559 -0.117968 -0.878436 -0.437218 
3434 2 -543.306 2111.32 -562.973 0.388745 -0.382182 0.732978 0.406887 
3435 2 -541.076 2120.05 -567.345 0.227183 0.508959 0.614067 0.558811 
3436 2 -532.841 2123.86 -571.336 -0.173372 0.791393 -0.168784 0.561383 
3437 2 -523.415 2124.92 -574.341 -0.605258 0.420204 -0.648578 0.190891 
3474 2 -622.957 2196.42 -544.784 -0.745834 0.364611 0.311115 -0.462599 
3432 2 -547.796 2094.05 -554.566 0.333359 -0.675085 -0.526836 -0.394431 
3433 2 -546.036 2102.44 -559.457 0.574437 -0.806931 0.124033 -0.0591603 
3473 2 -615.847 2193.9 -551.142 -0.83544 0.0287515 0.447296 0.318024 
3472 2 -607.509 2191.38 -555.881 -0.172049 -0.417664 0.28733 0.844628 
3471 2 -598.254 2189.73 -558.821 0.583665 -0.507452 -0.278312 0.569535 
3470 2 -588.714 2189.52 -561.805 0.819067 0.0520399 -0.56817 -0.0600408 
3469 2 -581.269 2190.63 -568.314 0.554285 0.348373 -0.259491 -0.709978 
3475 2 -630.279 2199.08 -538.799 -0.136203 0.424041 -0.124705 -0.886615 
3468 2 -576.792 2194.73 -576.105 -0.13566 0.218948 0.284153 -0.923534 
3467 2 -570.803 2197.68 -583.448 -0.812768 0.0172467 0.375974 -0.444696 
3466 2 -563.083 2198.12 -589.724 -0.801535 -0.23721 0.358204 0.415889 
3465 2 -554.587 2201.73 -593.231 -0.272978 -0.571933 -0.0779656 0.769609 
3476 2 -636.39 2202.05 -531.532 0.567568 0.207327 -0.306179 -0.73562 
3464 2 -546.42 2204.13 -598.343 0.523729 -0.323116 -0.369582 0.696214 
3477 2 -643.2 2204.17 -524.49 0.930363 -0.0829143 -0.352576 -0.056927 
3463 2 -536.664 2203.64 -599.01 0.708739 0.0833051 -0.692911 -0.103072 
3462 2 -527.779 2205.29 -603.228 0.48172 0.51501 -0.18854 -0.683494 
3461 2 -520.879 2209.42 -608.989 -0.0955319 0.353397 0.295551 -0.882402 
3486 2 -553.842 2226.59 -516.721 -0.195958 0.419016 0.733599 0.497854 
3479 3 -592.236 2206.71 -515.034 0.211276 0.475194 0.810284 0.270172 
3438 2 -513.844 2126.52 -576.406 -0.417771 -0.243135 -0.741627 -0.465127 
3460 2 -513.984 2215.95 -611.698 -0.721165 -0.297242 0.562329 -0.274509 
3439 2 -505.066 2130.94 -577.621 0.103057 -0.71196 -0.277117 -0.636944 
3440 2 -496.856 2135.96 -579.877 0.53358 -0.726137 0.348583 -0.257892 
3441 2 -489.376 2142.08 -582.154 0.576638 -0.155129 0.762073 0.250337 
3442 2 -481.926 2148.3 -584.247 0.0116768 0.444115 0.705493 0.552182 
3443 2 -475.552 2155.37 -587.083 -0.382192 0.704501 -0.0577886 0.595204 
3414 2 -461.851 2082.49 -526.681 0.276034 0.0158253 -0.722636 0.633523 
3444 2 -466.341 2158.81 -587.853 -0.722301 0.219826 -0.61663 0.22299 
3445 2 -456.515 2160.13 -588.088 -0.458566 -0.346384 -0.72765 -0.374513 
3446 2 -447.311 2162.02 -590.972 0.0451812 -0.824598 -0.229688 -0.515015 
3447 2 -439.005 2165.03 -595.354 0.400973 -0.719829 0.501568 -0.263623 
3448 2 -431.119 2168.02 -600.59 0.539438 -0.0328548 0.832382 0.12275 
3449 2 -422.257 2169.51 -604.776 0.203147 0.727749 0.57598 0.312025 
3450 2 -415.257 2170.25 -611.844 -0.0865286 0.891697 -0.174485 0.408588 
3451 1 -436.583 2196.51 -644.746 0.866602 -0.115506 -0.397723 0.278344 
3452 3 -461.001 2192.92 -620.077 0.874632 -0.0121269 -0.353389 0.331644 
3413 2 -461.763 2090.7 -521.112 0.339669 0.770158 -0.460117 0.282443 
3412 2 -464.643 2099.4 -517.252 0.557088 0.719696 0.403544 -0.0940379 
3459 2 -506.539 2219.38 -617.216 -0.560091 -0.476384 0.167934 0.656623 
3458 2 -498.43 2222.72 -621.859 0.164715 -0.442934 -0.312869 0.823888 
3457 2 -490.198 2223.76 -627.29 0.761963 -0.109578 -0.480767 0.419844 
3453 2 -472.757 2221.37 -661.988 -0.93387 0.0356471 0.246689 0.256438 
3454 2 -476.481 2223.04 -653.022 -0.786668 0.123716 0.0603074 -0.60184 
3455 2 -479.608 2224.4 -643.699 0.150697 0.195996 -0.0524277 -0.967537 
3456 2 -483.977 2225.17 -634.735 0.834686 0.262172 -0.226689 -0.427992 
3411 2 -469.385 2107.93 -515.659 0.370139 0.0686064 0.727756 -0.57329 
3410 2 -474.494 2116.42 -515.55 -0.274265 -0.542341 0.445349 -0.657502 
3409 2 -479.211 2125.07 -514.937 -0.641496 -0.728566 -0.129582 -0.202195 
3488 2 -550.796 2245.22 -520.419 -0.508713 0.574952 -0.354848 -0.533595 
3487 2 -552.317 2235.45 -520.64 -0.685935 0.683056 0.12028 0.220135 
3489 2 -553.103 2254.8 -520.166 0.0921805 0.0318014 -0.585875 -0.804513 
3490 2 -555.205 2264.03 -517.022 0.753841 -0.383549 -0.345361 -0.40662 
3512 2 -503.258 2377.4 -547.187 0.516294 -0.101458 0.719332 -0.453551 
3513 2 -495.387 2371.33 -547.739 0.718143 0.41304 0.559108 0.032647 
3514 2 -486.797 2366.24 -547.926 0.184241 0.776748 0.0627982 0.598978 
3515 2 -477.525 2363.34 -549.333 -0.216912 0.5221 -0.528689 0.633126 
3516 2 -468.959 2359.22 -551.854 -0.597699 -0.201056 -0.741427 0.229387 
3517 2 -460.671 2353.95 -552.987 -0.595624 -0.657353 -0.119552 -0.4459 
3518 2 -453.415 2347.25 -552.425 -0.078198 -0.473984 0.495964 -0.723357 
3540 2 -386.61 2370.63 -544.86 0.310559 0.647324 -0.32937 -0.613222 
3539 2 -376.768 2370.42 -543.087 -0.250714 0.665967 0.313711 -0.628661 
3538 2 -367.357 2371.61 -540.293 -0.57344 0.144736 0.784021 -0.188491 
3533 3 -371.281 2339.32 -514.813 0.56615 -0.0434133 -0.823081 -0.0112639 
3519 2 -446.555 2340.02 -553.226 0.618984 -0.0661472 0.689468 -0.370293 
3520 2 -438.396 2334.67 -552.024 0.720868 0.404481 0.510002 0.237996 
3521 2 -429.604 2330.84 -549.999 0.0481695 0.613358 -0.0865162 0.783573 
3522 2 -420.5 2328.67 -546.681 -0.613909 0.201589 -0.530767 0.54842 
3523 2 -412.375 2325.25 -542.225 -0.879257 -0.31508 -0.32392 -0.150688 
3524 2 -405.543 2320.89 -536.521 -0.397266 -0.505428 0.0266849 -0.765513 
3541 2 -396.561 2370.94 -544.743 0.758709 -0.0471545 -0.633538 -0.144107 
3525 2 -398.228 2316.37 -531.491 0.240128 -0.359461 0.495235 -0.75357 
3542 2 -406.136 2372.92 -544.142 0.599974 -0.455918 -0.445377 0.483538 
3543 2 -415.426 2374.99 -542.089 0.100399 -0.579307 0.266951 0.763584 
3544 2 -423.306 2380.12 -539.004 -0.530832 -0.211383 0.564052 0.596138 
3526 2 -390.368 2311.04 -528.721 0.796836 0.0975184 0.507955 -0.31229 
3527 2 -383.178 2306.63 -523.488 0.691316 0.456151 0.279518 0.485672 
3528 2 -375.503 2302.58 -518.977 -0.027326 0.461105 -0.213708 0.860793 
3537 2 -359.291 2372.62 -534.687 -0.401886 -0.519917 0.709325 0.255013 
3536 2 -353.985 2376.87 -527.444 -0.142994 -0.927482 -0.110658 0.327237 
3535 2 -348.108 2379.64 -519.902 0.157682 -0.562296 -0.750915 0.308362 
3858 2 -786.572 2527.86 -530.219 -0.813592 0.378786 -0.00519671 0.441092 
3859 2 -783.03 2533.93 -523.3 -0.869943 0.109469 -0.265089 -0.401178 
3510 2 -519.786 2386.68 -543.761 -0.452 -0.637404 -0.324587 -0.532968 
3509 2 -529.438 2388.38 -542.157 -0.630985 -0.185141 -0.751769 -0.0492412 
3508 2 -539.323 2388.6 -540.639 -0.540872 0.413756 -0.604229 0.413727 
3507 2 -549.281 2389.17 -539.617 0.0282714 0.752734 -0.0796281 0.652879 
3545 2 -432.264 2383.55 -536.654 -0.823098 0.208367 0.525702 -0.0522575 
3511 2 -510.359 2383.68 -544.51 -0.0909037 -0.63464 0.451137 -0.620842 
3546 2 -441.312 2385.94 -533.48 -0.420494 0.395402 0.109029 -0.809293 
3547 2 -448.274 2387.95 -526.773 0.286152 0.285648 -0.340072 -0.849042 
3548 2 -455.487 2391.62 -520.936 0.899465 -0.0569203 -0.290598 -0.321365 
3856 1 -794.318 2561.32 -562.556 0.199567 0.210224 0.282282 0.914492 
3857 3 -779.076 2578.94 -536.424 0.128903 0.290357 0.243147 0.916492 
3855 2 -790.639 2605.17 -579.593 0.310675 0.846298 -0.301426 -0.310487 
3854 2 -783.684 2608.76 -573.555 -0.113629 0.734087 0.51518 -0.427545 
3853 2 -777.181 2611.66 -566.735 -0.36021 0.0452201 0.914037 -0.180942 
3852 2 -769.481 2615.64 -561.965 -0.413625 -0.734291 0.453276 0.290295 
3851 2 -761.227 2619.99 -558.467 -0.0767015 -0.787452 -0.251681 0.557399 
3850 2 -753.542 2625.94 -557.305 0.304452 -0.309593 -0.700648 0.566174 
3849 2 -745.369 2631.37 -558.457 0.734046 0.313779 -0.600425 0.0470046 
3848 2 -737.029 2636.36 -557.433 0.501836 0.725587 -0.195079 -0.428518 
3847 2 -728.178 2640.66 -555.903 -0.108931 0.53758 0.536921 -0.640982 
3846 2 -719.2 2644.74 -556.071 -0.60521 0.0971534 0.675069 -0.410564 
3845 2 -709.888 2647 -558.065 -0.765456 -0.280882 0.541498 0.204847 
3844 2 -701.033 2650.6 -560.788 -0.274958 -0.589279 -0.0178192 0.759494 
3843 2 -692.309 2654.71 -563.201 0.357731 -0.303697 -0.5136 0.71834 
3842 2 -683.575 2659.13 -564.796 0.749137 0.175948 -0.623664 0.137406 
3841 2 -675.573 2664.86 -566.479 0.545507 0.618505 -0.0843968 -0.559242 
3840 2 -666.839 2669.41 -568.152 -0.172735 0.486759 0.455587 -0.72503 
3860 2 -778.638 2538.71 -515.64 -0.0359017 -0.123276 -0.274978 -0.952839 
3839 2 -659.83 2676.15 -569.793 -0.693969 -0.196872 0.624309 -0.299809 
3819 2 -595.875 2666.14 -572.686 -0.197256 0.66776 0.702735 0.146118 
3821 2 -596.379 2674.91 -590.313 0.0370211 0.579769 -0.809047 -0.0891047 
3820 2 -595.862 2670.75 -581.356 -0.202196 0.977351 -0.0292364 -0.0551992 
3818 2 -596.787 2662.18 -563.507 0.0693946 0.0666724 0.980152 0.173323 
3817 2 -598.704 2658.73 -554.344 0.184165 -0.79971 0.57124 0.0152527 
3816 2 -603.035 2657.46 -545.609 0.0327629 -0.952572 -0.224498 -0.202815 
3822 2 -598.873 2676.49 -599.776 0.117414 -0.125201 -0.976933 0.127047 
3823 2 -601.329 2674.3 -609.228 -0.0373709 -0.86515 -0.498164 0.0441689 
3815 2 -605.272 2655.86 -536.142 -0.0816272 -0.433117 -0.889115 -0.123373 
3838 2 -651.281 2680.89 -568.463 -0.496616 -0.741869 0.207208 0.400086 
3824 2 -602.146 2673.16 -618.881 0.00798509 -0.946376 0.31392 -0.0759082 
3825 2 -601.554 2672.14 -628.798 0.210979 -0.44294 0.867522 0.0818382 
3814 2 -604.995 2652.61 -526.816 0.00120354 0.365889 -0.918361 -0.150787 
3813 2 -604.346 2648.41 -517.927 -0.217731 0.940247 -0.251405 -0.0729712 
3826 2 -598.485 2675.9 -637.415 0.0705266 0.383955 0.827608 0.403324 
3827 2 -594.263 2681.66 -644.381 -0.258365 0.876619 0.190344 0.358548 
3828 2 -588.797 2687.77 -649.782 -0.461653 0.76697 -0.441434 0.0613968 
3837 2 -642.532 2685.58 -567.928 0.0205863 -0.637762 -0.37095 0.674709 
3898 2 -692.099 2733.53 -577.793 -0.294752 0.784083 -0.440716 0.322652 
3897 2 -699.722 2732.83 -571.542 0.0698415 0.848869 0.283689 0.440527 
3896 2 -704.59 2736.28 -563.789 0.294366 0.432606 0.852168 -0.00324394 
3899 2 -684.41 2735.37 -583.694 -0.511851 -0.0161685 -0.855784 0.0733532 
3900 2 -676.041 2735 -589.015 -0.383325 -0.7462 -0.511551 -0.185915 
3895 2 -710.181 2737.26 -555.704 0.246935 -0.481932 0.810713 -0.222508 
3894 2 -711.91 2737.03 -545.843 0.0660125 -0.981816 0.174306 -0.036014 
3893 2 -710.506 2741.02 -536.873 -0.0606097 -0.671971 -0.710397 0.200292 
3892 2 -709.955 2742.3 -527.14 0.0553656 0.413096 -0.908142 0.0395605 
3891 2 -709.713 2741.17 -517.253 -0.0745313 0.974746 -0.210373 0.00771204 
3901 2 -669.256 2732.28 -595.809 -0.091569 -0.896107 0.0754031 -0.427694 
3836 2 -635.444 2692.02 -565.492 0.5198 0.0539091 -0.747309 0.410404 
3912 2 -622.623 2803.28 -658.82 0.884956 0.00800537 -0.325131 -0.333286 
3902 2 -661.787 2730.64 -602.303 0.252185 -0.531507 0.613944 -0.526285 
3903 2 -653.356 2726.74 -605.702 0.301428 0.144777 0.932117 -0.139061 
3835 2 -628.684 2699.11 -565.985 0.71945 0.577913 -0.363636 -0.127187 
3834 2 -620.927 2705 -565.296 0.215884 0.698267 0.200245 -0.652471 
3833 2 -612.139 2709.3 -564.929 -0.345012 0.369897 0.658919 -0.556748 
3832 2 -602.606 2711.09 -562.966 -0.630777 -0.0913333 0.770565 -0.00283556 
3831 2 -593.03 2713.62 -561.726 -0.429997 -0.670686 0.316992 0.514586 
3830 3 -615.109 2700.15 -606.851 0.525534 0.520686 -0.452561 -0.497884 
3829 1 -580.168 2700.35 -605.05 0.450305 0.568015 -0.462975 -0.510136 
3904 2 -647.894 2723.57 -613.293 0.437896 0.713011 0.503305 0.215748 
3913 2 -627.713 2805.6 -650.759 0.926653 0.0289034 -0.151885 0.342651 
3918 2 -641.679 2824.34 -610.435 0.0560314 0.146211 -0.253277 -0.954638 
3905 2 -640.182 2719.02 -617.597 0.0755658 0.873015 0.0133516 0.481619 
3906 2 -631.762 2718.53 -622.697 -0.373852 0.436719 -0.73664 0.356193 
3917 2 -639.594 2818.06 -617.827 -0.694955 0.334856 -0.137921 -0.621197 
3916 2 -638.265 2811.3 -624.918 -0.904304 0.293495 0.228185 0.209825 
3914 2 -631.166 2804.2 -641.593 0.398569 -0.236021 0.000214933 0.886249 
3910 1 -608.873 2758.16 -658.203 -0.931382 0.0751 0.352173 0.0534993 
3911 3 -628.307 2761.06 -629.252 -0.946249 0.0775971 0.294623 0.108575 
3915 2 -635.173 2806.31 -632.88 -0.385975 -0.00241725 0.31104 0.868488 
3907 2 -623.629 2715.99 -627.724 -0.368789 -0.156173 -0.913738 -0.0684696 
3908 2 -616.643 2715.41 -634.716 -0.25209 -0.813796 -0.387017 -0.35271 
3909 2 -609.038 2714.25 -640.991 0.0502076 -0.882851 0.246286 -0.396731 
3919 2 -644.307 2829.15 -602.245 0.640379 -0.0550796 -0.371133 -0.67018 
3920 2 -647.756 2835.4 -595.201 0.880708 -0.339304 -0.325984 0.0544133 
3921 2 -653.919 2840.43 -589.396 0.525725 -0.343312 0.00582668 0.778278 
3724 2 -455.482 2783.17 -520.348 -0.455943 -0.536688 -0.183107 0.68597 
3723 2 -448.817 2789.71 -523.844 0.236601 -0.337358 -0.479553 0.774751 
3725 2 -462.054 2776.55 -516.954 -0.783552 -0.419964 0.430164 0.156957 
3726 2 -469.927 2771.24 -514.319 -0.604954 0.276619 0.51681 -0.538907 
3928 2 -679.008 2854.17 -527.633 0.232477 -0.220326 -0.0887989 0.943147 
3929 2 -683.084 2853.38 -518.717 -0.633081 -0.222178 0.052332 0.739667 
3927 2 -674.79 2855.51 -536.442 0.839692 -0.0305179 -0.193916 0.506343 
3926 2 -672.105 2853.63 -545.839 0.894357 -0.0199241 -0.161717 -0.416626 
3925 2 -669.532 2851.23 -555.217 0.132205 0.108487 -0.166507 -0.971096 
3924 2 -664.474 2849.22 -563.498 -0.693384 0.30568 0.163741 -0.631639 
3922 2 -658.847 2844.41 -581.778 -0.402625 -0.0547887 0.209735 0.889327 
3923 2 -661.515 2846.96 -572.624 -0.982068 0.0640481 0.141389 0.107005 
3957 2 -584.852 2919.89 -548.635 -0.773782 -0.0427327 -0.591782 0.221877 
3956 2 -592.264 2924.42 -553.373 -0.357076 0.266391 -0.385366 0.8081 
3952 2 -629.447 2928.47 -548.583 -0.056586 -0.797645 0.23957 -0.550605 
3953 2 -621.019 2925.63 -552.797 0.536994 -0.430682 0.687389 -0.23162 
3954 2 -611.568 2926.28 -555.846 0.627188 0.370638 0.610748 0.310241 
3955 2 -601.697 2925.54 -556.254 0.276333 0.564281 0.130139 0.767001 
3958 2 -575.922 2916.95 -545.527 -0.63121 -0.482992 -0.352001 -0.494356 
3959 2 -566.969 2913.74 -542.542 -0.0189009 -0.516567 -0.0192906 -0.855821 
3960 2 -558.065 2914.08 -538.185 0.634081 -0.333548 0.470193 -0.51537 
3961 2 -548.928 2912.44 -534.996 0.733488 0.128738 0.627183 0.228173 
3962 2 -539.347 2913.36 -533.468 0.302635 0.52447 0.420836 0.675456 
3963 2 -529.828 2915.69 -532.618 -0.169067 0.693221 0.031754 0.699895 
3951 2 -637.505 2927.67 -542.871 -0.311722 -0.633215 -0.590214 -0.391811 
3950 2 -644.533 2926.51 -535.891 -0.425036 0.0822284 -0.901378 0.0100385 
3949 2 -651.465 2926.82 -528.785 -0.1887 0.76533 -0.512991 0.339856 
3948 2 -655.743 2930.83 -520.806 0.254988 0.904669 0.310632 0.14164 
2832 2 -260.181 1055.67 -375.584 -0.633598 0.520087 -0.164873 -0.548525 
2833 2 -263.566 1063.78 -371.136 0.148062 0.136904 -0.4517 -0.869081 
2834 2 -268.061 1071 -366.26 0.639893 -0.423994 -0.403916 -0.497612 
2830 1 -214.516 1061.76 -365.066 -0.730379 0.409176 -0.0304216 -0.546072 
2835 2 -269.243 1080.36 -363.294 0.768349 -0.622592 0.0417367 0.142395 
2883 2 -438.153 1270.35 -513.755 0.206854 -0.808157 -0.551425 0.00483859 
2885 3 -388.213 1258 -507.141 -0.537846 0.0822792 -0.220056 0.809647 
2882 2 -436.116 1267.33 -504.556 0.141016 -0.142375 -0.968177 -0.149923 
2881 2 -434.154 1266.41 -494.956 -0.0149713 0.666972 -0.735591 -0.117603 
2880 2 -429.755 1265.89 -486.014 -0.0979246 0.931564 0.251593 -0.243518 
2879 2 -421.693 1267.61 -480.315 -0.385734 0.308922 0.844148 -0.207824 
2873 2 -385.485 1263.48 -438.736 -0.356005 0.927197 0.0698871 -0.0931725 
2878 2 -414.871 1267.81 -473.123 -0.289221 -0.490383 0.805643 0.16375 
2877 2 -407.823 1269.1 -466.211 -0.031115 -0.912139 -0.0554146 0.404924 
2876 2 -402.441 1271.15 -458.11 0.141969 -0.640991 -0.706979 0.262976 
2874 2 -387.796 1270.11 -445.643 0.155016 0.683058 -0.490804 -0.518182 
2875 2 -395.803 1272.35 -450.952 0.383607 0.0993639 -0.917704 -0.028146 
2872 2 -382.719 1257.05 -431.882 -0.334126 0.447625 0.803648 0.205284 
2871 2 -383.724 1248.54 -426.76 0.137229 -0.182943 0.858266 0.459434 
2869 2 -386.24 1231.13 -417.989 0.43328 -0.777222 -0.364635 -0.274291 
2868 2 -387.327 1225.12 -410.132 0.00209178 -0.228249 -0.917289 -0.326312 
2870 2 -386.308 1239.88 -422.802 0.526585 -0.694754 0.475009 0.119968 
2864 2 -385.559 1197.07 -383.017 0.128558 -0.0189638 0.930448 0.342607 
2865 2 -383.411 1203.98 -389.746 -0.34176 0.701897 0.600857 0.171787 
2867 2 -385.807 1218.89 -402.505 -0.177158 0.612665 -0.717286 -0.280639 
2866 2 -385.142 1211.57 -395.962 -0.424498 0.891523 -0.139442 -0.0744628 
2863 2 -386.347 1194.01 -373.556 0.187574 -0.823273 0.535599 -0.0130604 
2862 2 -388.202 1190.36 -364.454 0.0953572 -0.857772 -0.474887 -0.172093 
2890 2 -345.353 1248.06 -509.125 -0.303132 0.0470138 0.0879614 -0.947715 
2892 2 -346.414 1248.46 -489.458 0.9986 0.034876 0.0365453 0.0156606 
2893 2 -347.059 1247.97 -479.604 0.590859 0.137365 -0.00723482 0.794962 
2891 2 -346.155 1247.15 -499.282 0.652223 -0.0673334 -0.00176702 -0.755028 
2895 2 -342.215 1244.97 -460.663 -0.901039 0.164897 0.0189238 0.400725 
2896 2 -340.463 1247.02 -451.158 -0.787298 0.044335 -0.265067 -0.554919 
2897 2 -336.75 1250.36 -442.686 -0.130283 -0.163024 -0.131003 -0.969169 
2894 2 -345.12 1246.59 -469.964 -0.22974 0.104091 -0.0999099 0.962498 
2898 2 -333.024 1252.89 -433.871 0.771422 -0.111599 0.0526393 -0.624246 
2904 2 -302.312 1267.61 -388.103 0.068858 -0.30798 -0.236228 -0.919023 
2905 2 -297.221 1272.73 -381.352 0.671925 -0.328835 0.209828 -0.629568 
2906 2 -290.095 1274.39 -374.726 0.87161 0.151023 0.445162 0.13899 
2903 2 -306.064 1264.13 -396.487 -0.584737 0.0154703 -0.294358 -0.755775 
2902 2 -313.535 1260.32 -401.687 -0.871243 0.255995 -0.404185 0.109713 
2911 1 -236.412 1304.47 -387.916 -0.804713 0.101298 0.584415 0.0252058 
2901 2 -320.487 1256.85 -407.785 -0.356323 0.447227 -0.0257645 0.819975 
2900 2 -325.468 1253.72 -415.797 0.426106 0.203673 0.27607 0.8371 
2899 2 -330.17 1253.83 -424.491 0.972766 0.00517217 0.177878 0.148521 
2907 2 -282.406 1272.93 -368.738 0.447521 0.579255 0.170835 0.659548 
2908 2 -273.037 1270.32 -366.306 -0.266208 0.586487 -0.249831 0.723015 
2909 2 -263.559 1269.11 -364.287 -0.704754 0.0751209 -0.686415 0.162829 
2910 2 -253.55 1267.98 -363.394 -0.564375 -0.493026 -0.486593 -0.449037 
2912 3 -267.506 1316.12 -376.747 -0.8066 0.0857698 0.573946 0.112364 
2915 2 -245.103 1355.34 -387.939 0.606874 0.0838443 -0.134198 -0.778887 
2914 2 -242.588 1351.57 -396.66 -0.205772 0.168235 -0.120661 -0.956449 
2913 2 -237.903 1348.48 -404.798 -0.876252 0.238082 0.162368 -0.386182 
2916 2 -247.976 1357.66 -378.845 0.964816 -0.243225 -0.0937883 0.0342863 
2917 2 -249.495 1361.9 -369.994 0.602565 -0.0432626 0.180086 0.776282 
3186 2 -494.515 1613.82 -456.65 0.805867 -0.556861 -0.015015 0.200646 
3185 2 -490.22 1605.44 -459.377 0.641854 -0.249657 -0.54728 -0.475583 
3182 3 -475.741 1607.09 -415.717 -0.698889 0.598366 0.263507 -0.289958 
3184 2 -483.511 1598.38 -461.845 0.0470371 0.401076 -0.463229 -0.788888 
3183 2 -477.922 1590.89 -465.126 -0.61772 0.551879 0.0214717 -0.559813 
3181 1 -454.262 1581.21 -425.382 -0.679754 0.646617 0.232305 -0.256623 
3180 2 -441.11 1590.41 -381.012 0.61642 0.629314 0.438499 0.17807 
3177 2 -462.66 1608.61 -372.537 -0.443937 -0.812335 -0.19601 -0.323438 
3179 2 -448.685 1596.57 -379.553 0.528426 -0.0165335 0.758637 -0.38074 
3178 2 -455.91 1602.41 -376.144 -0.0558649 -0.646165 0.547105 -0.529175 
3176 2 -471.518 1613.09 -372.838 -0.728676 -0.238875 -0.635922 0.0870285 
3175 2 -479.806 1618.45 -372.309 -0.276189 0.338425 -0.654214 0.617407 
3208 1 -681.48 1645.87 -393.618 0.435313 0.344563 0.557805 0.616955 
3207 2 -661.785 1659.3 -434.298 0.19451 -0.669722 -0.48893 0.524009 
3192 2 -523.981 1656.1 -431.224 0.787674 -0.0697895 -0.540771 -0.286822 
3193 2 -532.218 1660.02 -427.558 0.663093 -0.49854 -0.438842 0.345229 
3194 2 -541.488 1663.5 -426.566 0.177863 -0.614877 0.0389463 0.767316 
3195 2 -550.623 1666.45 -424.063 -0.485702 -0.457795 0.450436 0.592979 
3196 2 -560.317 1666.32 -422.039 -0.853344 -0.0344713 0.517452 -0.053464 
3197 2 -569.335 1664.91 -418.042 -0.269968 0.511474 0.30546 -0.756443 
3198 2 -578.918 1663.62 -415.474 0.494988 0.538276 -0.34202 -0.590143 
3199 2 -588.496 1661.7 -414.064 0.838635 -0.0793984 -0.537035 0.0444939 
3200 2 -597.767 1662.01 -410.535 0.353471 -0.63397 -0.423759 0.54182 
3201 2 -607.252 1662.5 -412.785 -0.128564 -0.754728 0.264229 0.586549 
3202 2 -616.725 1663.32 -415.865 -0.532125 -0.301804 0.784184 0.103982 
3203 2 -625.549 1660.52 -419.583 -0.502178 0.421128 0.737936 -0.160994 
3204 2 -634.122 1662.31 -424.187 -0.139988 0.738069 0.212522 -0.624894 
3205 2 -643.443 1662.3 -427.679 0.515191 0.501368 -0.602039 -0.347502 
3206 2 -653.041 1661.35 -430.416 0.51672 -0.0910574 -0.834097 0.170268 
3209 3 -650.881 1659.69 -383.4 0.4899 0.305025 0.576252 0.578698 
3158 2 -539.547 1738.67 -410.007 0.406206 0.63899 0.0352825 -0.65226 
3159 2 -547.447 1733.27 -407.818 0.811495 0.535207 -0.186687 0.142046 
3160 2 -549.873 1724.08 -404.93 0.422668 0.270284 -0.574694 0.646548 
3161 2 -552.204 1714.91 -402.319 -0.223125 -0.100548 -0.593354 0.766835 
3162 2 -551.403 1705.57 -399.185 -0.760133 -0.447527 -0.31015 0.354577 
3157 2 -535.169 1747.19 -412.104 -0.203356 0.148536 0.638133 -0.727578 
3163 2 -549.067 1697.07 -394.825 -0.641134 -0.508545 0.00188858 -0.574739 
3155 3 -524.957 1722.52 -376.085 -0.555038 -0.0451707 0.723282 -0.408357 
3156 2 -531.738 1755.87 -415.331 -0.749115 -0.417725 0.396532 -0.327253 
3164 2 -544.18 1690.49 -389.39 -0.0904662 -0.375579 0.321441 -0.864541 
3165 2 -538.75 1684.51 -383.794 0.623493 0.136706 0.560201 -0.527961 
3166 2 -533.34 1677.12 -379.975 0.865004 0.457863 0.0161171 0.204623 
3167 2 -530.486 1670.07 -373.441 0.338355 0.456797 -0.300528 0.765856 
3168 2 -527.045 1661.75 -369.433 -0.350961 -0.0243899 -0.636192 0.686652 
3169 2 -523.464 1652.8 -367.343 -0.573059 -0.486149 -0.615869 0.236573 
3170 2 -519.342 1643.94 -369.183 -0.614069 -0.704152 0.0137879 -0.356228 
3191 2 -517.401 1651.75 -437.054 0.31929 0.288097 -0.27705 -0.859242 
3171 2 -514.562 1635.32 -369.571 0.0562416 -0.505583 0.544369 -0.666997 
3174 2 -488.745 1622.32 -373.692 0.280928 0.679168 -0.0295641 0.677449 
3190 2 -510.838 1646.1 -441.673 -0.49132 0.520368 -0.0920766 -0.692346 
3187 2 -496.834 1622.36 -452.305 0.270731 -0.346645 0.362426 0.821699 
3172 2 -507.141 1628.95 -370.781 0.564686 0.00929022 0.770226 -0.296302 
3188 2 -500.302 1630.26 -447.457 -0.432924 0.00748422 0.595115 0.677022 
3189 2 -504.905 1638.51 -444.533 -0.798361 0.441823 0.408341 0.0258713 
3154 1 -501.431 1748.04 -380.015 -0.60099 -0.0802967 0.673043 -0.423529 
3173 2 -498.133 1625.32 -372.694 0.569654 0.555651 0.515344 0.318067 
3261 2 -677.266 1787.13 -442.529 -0.0411443 0.463784 -0.884518 0.0289676 
3260 2 -677.844 1786.5 -432.705 -0.0169124 0.971062 -0.237944 0.0116304 
3259 2 -676.723 1785.07 -423.042 -0.137583 0.853421 0.498645 -0.064005 
3258 2 -674.699 1782.97 -413.548 -0.123426 0.15178 0.97233 0.127685 
3257 2 -674.363 1783.65 -403.682 0.0150105 -0.73357 0.678827 0.0290424 
3256 2 -670.517 1782.22 -394.591 0.0930581 -0.973999 -0.114995 0.171585 
3252 2 -638.463 1777.29 -373.563 -0.253894 0.7248 0.335101 -0.545812 
3254 2 -656.465 1778.18 -381.599 0.246055 0.357455 -0.82459 -0.362951 
3253 2 -647.868 1776.86 -376.687 -0.00963859 0.818979 -0.144152 -0.555338 
3255 2 -664.169 1781.35 -387.112 0.337363 -0.499386 -0.797413 0.0305194 
3262 1 -635.019 1806.36 -450.884 0.714849 0.102068 0.180535 -0.667817 
3263 3 -632.498 1795.41 -417.703 0.70025 0.00824172 0.22881 -0.676186 
3274 2 -624.122 1888.83 -385.089 -0.0468918 0.134123 -0.355481 -0.923821 
3273 2 -622.469 1881.22 -391.351 -0.81116 0.397642 -0.078966 -0.421502 
3264 2 -590.749 1817.73 -439.104 -0.364447 0.0453622 0.27926 0.887206 
3265 2 -592.673 1823.19 -431.177 -0.840089 0.250663 0.414105 0.244818 
3266 2 -597.899 1829.68 -425.862 -0.677361 0.498904 -0.019357 -0.54028 
3267 2 -603.609 1836.39 -421.279 0.048595 0.366834 -0.484198 -0.792858 
3268 2 -609.232 1843.99 -418.626 0.646982 -0.09403 -0.453735 -0.605555 
3269 2 -613.71 1851.09 -413.305 0.818413 -0.543342 -0.154038 0.106072 
3270 2 -618.129 1859.51 -410.717 0.413386 -0.323245 0.315242 0.790726 
3271 2 -620.499 1866.82 -404.513 -0.35148 0.0951191 0.367388 0.855828 
3272 2 -622.548 1873.6 -397.496 -0.829991 0.398012 0.154547 0.358911 
3275 2 -626.759 1895.94 -378.824 0.673067 -0.163136 -0.460919 -0.554907 
3251 2 -629.787 1778.87 -369.394 -0.497709 0.211406 0.808998 -0.230467 
3276 2 -630.407 1902.52 -372.467 0.925894 -0.272216 -0.0745765 0.251113 
3277 2 -632.845 1907.21 -364.12 0.397762 -0.15088 0.124466 0.896398 
3250 2 -621.761 1784.44 -367.684 -0.628142 -0.541651 0.546423 0.116073 
3249 2 -615.218 1791.25 -364.395 -0.401558 -0.789649 -0.0113574 0.463764 
3339 2 -451.598 1911.64 -425.954 0.444075 0.0349533 -0.882048 0.153518 
3340 2 -458.927 1907.25 -431.028 -0.0395307 -0.495887 -0.51764 0.69612 
3341 2 -465.125 1899.61 -431.936 -0.490953 -0.791336 0.0809079 0.355255 
3342 2 -471.29 1892.2 -434.333 -0.579978 -0.384485 0.689934 -0.199466 
3338 2 -444.44 1916.89 -421.538 0.450293 0.76455 -0.416608 -0.197831 
3343 1 -487.002 1922.4 -467.021 0.743001 -0.357919 0.467118 -0.318817 
3337 2 -438.428 1923.76 -417.744 0.221362 0.755947 0.371155 -0.491717 
3305 2 -533.025 1988.79 -372.152 0.208678 0.171656 0.915762 0.297268 
3306 2 -528.186 1993.82 -379.166 -0.0555777 0.75706 0.535931 0.369526 
3307 2 -523.325 1998.37 -386.549 -0.313767 0.915845 -0.209213 0.13787 
3304 2 -536.842 1981.48 -366.692 0.445383 -0.481773 0.712928 0.247514 
3303 2 -539.757 1972.15 -364.379 0.592886 -0.79483 0.0898401 -0.0930611 
3302 2 -544.151 1963.25 -364.224 0.303096 -0.585122 -0.461615 -0.593866 
3308 2 -519.794 2004.43 -393.517 -0.193048 0.368127 -0.906311 -0.0762567 
3309 2 -517.107 2007.11 -402.757 -0.0754781 -0.431754 -0.874271 -0.208668 
3301 2 -550.361 1955.44 -364.764 -0.43275 0.0141432 -0.674406 -0.598083 
3300 2 -554.508 1946.75 -362.775 -0.645507 0.611622 -0.451442 -0.0737507 
3310 2 -513.729 2010.65 -411.308 0.129271 -0.915864 -0.249815 -0.286488 
3345 2 -482.045 1958.59 -496.94 0.033491 -0.619361 -0.044517 -0.783127 
3315 2 -511.878 2031.43 -454.765 -0.161229 0.495301 -0.829271 -0.202464 
3314 2 -511.9 2026.18 -446.379 -0.264074 0.95495 -0.13478 -0.0130406 
3311 2 -510.119 2013.54 -419.934 0.146967 -0.834222 0.526066 0.0756961 
3313 2 -510.227 2021.02 -438.066 -0.245191 0.739786 0.609052 0.147152 
3312 2 -509.274 2018.05 -428.813 -0.0564553 -0.044295 0.988904 0.130076 
3344 3 -454.565 1933.89 -460.465 0.757268 -0.334442 0.474536 -0.299181 
3336 2 -434.372 1931.84 -413.531 -0.171212 0.117894 0.833123 -0.512536 
3346 2 -472.497 1960.14 -495.204 0.606928 -0.448789 0.369864 -0.541689 
3335 2 -433.779 1941.6 -412.001 -0.552237 -0.55371 0.512777 -0.354258 
3334 2 -433.26 1950.88 -408.686 -0.59545 -0.745378 -0.220099 0.203488 
3333 2 -431.446 1960.59 -408.572 -0.191076 -0.285658 -0.624087 0.701716 
3332 2 -429.095 1970.07 -410.469 0.487417 0.247994 -0.558142 0.62402 
3347 2 -462.831 1961.17 -492.842 0.75532 -0.103427 0.601207 0.239467 
3348 2 -454.358 1965.62 -489.994 0.293231 0.214614 0.35832 0.859978 
3330 2 -433.079 1989.21 -410.12 0.500009 0.37026 0.656938 -0.42583 
3331 2 -429.379 1980.03 -411.279 0.710137 0.702387 0.0393931 0.0284169 
3317 3 -480.433 2044.21 -415.416 -0.787787 -0.362676 -0.296959 0.399591 
3349 2 -448.276 1970.82 -484.082 -0.420281 0.525209 0.162553 0.72187 
3350 2 -441.564 1976.39 -479.487 -0.901057 0.307474 -0.220917 0.211548 
3351 2 -436.135 1980.71 -472.4 -0.721434 0.226873 -0.352883 -0.550939 
3352 2 -433.713 1986.61 -464.878 0.126685 -0.258465 -0.57068 -0.769071 
3353 2 -430.655 1995.76 -462.597 0.650875 -0.530013 0.0302194 -0.542711 
3354 2 -424.115 2001.59 -457.945 0.842552 -0.434972 0.271191 0.165412 
3355 2 -420.911 2009.1 -452.393 0.610918 -0.0468497 0.422993 0.667578 
3356 2 -416.35 2015.41 -446.061 -0.336164 0.465965 0.339202 0.744857 
3357 2 -411.708 2023.33 -442.575 -0.758775 0.595189 -0.206072 0.165963 
3358 2 -406.976 2031.78 -440.215 -0.71291 0.136985 -0.440338 -0.528296 
3359 2 -401.523 2037.92 -434.59 -0.0653091 -0.260788 -0.382252 -0.884086 
3360 2 -396.581 2044.34 -429.03 0.613041 -0.473692 0.00528806 -0.632273 