ITEM: TIMESTEP
100000000
ITEM: NUMBER OF ATOMS
4067
ITEM: BOX BOUNDS pp pp pp
-4.6310929470000001e+03 4.6704658980000004e+03
-4.6310929470000001e+03 4.6704658980000004e+03
-4.6310929470000001e+03 4.6704658980000004e+03
ITEM: ATOMS id type x y z c_q[1] c_q[2] c_q[3] c_q[4] 
3912 2 -681.503 2973.67 -715.6 0.973284 -0.0596292 0.214013 -0.0579691 
3913 2 -676.8 2974.48 -706.854 0.759124 0.12527 0.235495 0.593785 
3910 1 -678.376 2932.12 -737.745 -0.96861 -0.105936 -0.215762 0.0633991 
3914 2 -671.323 2975.28 -698.681 -0.0505295 0.542131 0.0935929 0.833535 
3909 2 -668.944 2885.98 -739.699 0.0295382 -0.968602 -0.101513 0.225017 
3911 3 -665.829 2925.25 -705.663 -0.976554 -0.00891292 -0.213537 0.0257715 
3915 2 -662.481 2976.68 -694.182 -0.647435 0.421504 -0.438673 0.459052 
3907 2 -662.041 2883.68 -721.697 0.121579 0.0442883 -0.974201 -0.184906 
3908 2 -664.497 2886.58 -730.841 0.146208 -0.688707 -0.690786 0.164685 
3906 2 -657.208 2880.29 -713.761 -0.0196097 0.810122 -0.46893 -0.351317 
3905 2 -654.918 2876.71 -704.778 -0.214617 0.916728 0.327233 -0.080426 
3904 2 -656.89 2873.13 -695.76 0.0665425 0.350219 0.904029 0.235903 
3903 2 -658.354 2870.24 -686.341 0.0773543 -0.642588 0.762191 0.0127036 
3902 2 -659.736 2868.12 -676.753 0.0602056 -0.996088 -0.0268193 -0.0588589 
3916 2 -653.016 2977.66 -691.325 -0.794775 -0.156976 -0.585703 0.0253415 
3917 2 -644.118 2975.19 -687.704 -0.518938 -0.557592 -0.309286 -0.56933 
3918 2 -634.604 2972.39 -687.484 0.0800004 -0.584106 0.246912 -0.769061 
3919 2 -625.356 2969.51 -685.687 0.612744 -0.123578 0.671267 -0.398338 
3920 2 -616.23 2966.25 -684.518 0.80145 0.260132 0.481328 0.241522 
3921 2 -607.427 2963.98 -680.39 0.39911 0.399417 0.13146 0.814798 
3922 2 -599.422 2962.46 -674.724 -0.438035 0.336274 -0.0425336 0.832608 
3901 2 -657.991 2870.21 -667.264 0.00239972 -0.725801 -0.67393 0.137934 
3923 2 -593.541 2964.67 -667.043 -0.901936 0.168722 -0.25791 0.302534 
2748 2 -444.86 1259.4 -524.78 0.199979 -0.825642 0.511075 0.130862 
2747 2 -444.552 1254.01 -516.436 0.26029 -0.861593 -0.415084 -0.13271 
3858 2 -805.695 2768.75 -578.029 -0.134014 0.804663 -0.123237 0.565129 
3859 2 -797.026 2770.92 -582.318 -0.572957 0.441487 -0.650024 0.232977 
3860 2 -787.983 2774 -584.71 -0.40954 -0.151677 -0.833536 -0.338362 
3861 2 -780.464 2778.23 -589.406 0.175494 -0.68616 -0.261679 -0.655675 
3856 1 -784.704 2736.79 -550.453 0.662546 -0.550982 0.504649 -0.0527344 
3862 2 -772.941 2784.26 -591.168 0.704026 -0.402925 0.489737 -0.31962 
3863 2 -763.736 2787.42 -589.958 0.611752 -0.0816975 0.63846 0.459841 
3857 3 -759.975 2761.21 -554.469 0.668491 -0.58853 0.445912 -0.0889683 
3864 2 -756.785 2793.97 -587.927 -0.180232 0.353686 0.634968 0.662751 
3865 2 -753.753 2803.33 -588.113 -0.593422 0.715027 -0.000327947 0.369575 
3866 2 -748.865 2811.89 -588.741 -0.751843 0.349361 -0.551522 -0.0922045 
3867 2 -741.138 2817.74 -587.109 -0.295097 -0.153315 -0.591609 -0.734446 
3868 2 -735.815 2825.95 -586.295 0.271277 -0.655007 -0.268521 -0.652128 
3869 2 -728.329 2832.32 -586.698 0.692725 -0.637579 0.272358 -0.198611 
3870 2 -722.123 2840.1 -586.398 0.451708 -0.295452 0.736287 0.408103 
3853 2 -742.854 2737.13 -521.182 -0.0716876 0.0269117 0.772218 -0.630727 
3854 2 -745.336 2727.72 -522.859 0.424315 0.766778 0.33971 -0.341476 
3816 2 -686.477 2824.49 -530.202 0.336698 0.239995 0.813394 0.409178 
3817 2 -679.028 2829.49 -534.376 -0.15761 0.667097 0.213532 0.696092 
3855 2 -747.828 2719.09 -526.925 0.474496 0.738574 -0.446657 0.1728 
3815 2 -693.221 2819.05 -525.585 0.543529 -0.520651 0.654411 0.0724209 
3814 2 -699.705 2815.89 -518.753 0.223778 -0.905567 0.172387 -0.316472 
3818 2 -670.156 2833.75 -533.631 -0.615956 0.590032 -0.45533 0.255216 
3852 2 -737.692 2745.02 -518.161 -0.578603 -0.57908 0.564958 -0.103482 
3819 2 -661.247 2837.64 -534.618 -0.552759 -0.0499893 -0.785707 -0.273172 
3871 2 -717.809 2848.85 -588.374 -0.130967 0.317374 0.76354 0.546925 
3872 2 -716.746 2857.88 -592.118 -0.475264 0.810773 0.246634 0.236521 
3873 2 -715.014 2866.63 -596.38 -0.303546 0.731434 -0.544978 -0.275432 
3874 2 -714.752 2873.64 -603.289 0.0549765 -0.0261618 -0.945657 -0.319414 
3875 2 -715.517 2879.82 -610.937 0.222194 -0.795599 -0.562652 -0.0327995 
3876 2 -717.032 2884.52 -619.626 0.329054 -0.910058 0.215377 0.130882 
3877 2 -718.235 2890.57 -627.4 0.100341 -0.315977 0.817379 0.47115 
3878 2 -720.268 2898.12 -633.393 -0.406157 0.489965 0.606041 0.477163 
3879 2 -720.424 2907.72 -635.991 -0.549024 0.835072 -0.034996 -0.00168967 
3880 2 -720.025 2916.66 -639.958 -0.293758 0.52213 -0.493412 -0.63058 
3881 2 -724.068 2925.7 -639.584 0.388323 -0.138126 -0.667266 -0.620389 
3882 2 -727.929 2934.78 -638.708 0.718062 -0.646322 -0.253824 -0.0472154 
3883 1 -710.082 2948.98 -597.311 -0.594107 -0.569131 -0.546785 0.155412 
3884 3 -694.174 2918.3 -602.791 -0.622329 -0.586696 -0.50201 0.128378 
3885 2 -684.956 2942.46 -557.911 0.343517 0.83149 0.196978 0.389641 
3886 2 -677.358 2938.58 -562.912 -0.0646466 0.635974 -0.507548 0.577713 
3887 2 -670.019 2933.83 -567.594 -0.41722 -0.130103 -0.834939 0.33448 
3820 2 -652.84 2841.75 -537.712 -0.281956 -0.588508 -0.407945 -0.638545 
3821 2 -643.132 2843.27 -538.548 0.393189 -0.781161 0.204176 -0.439889 
3888 2 -664.568 2927.33 -572.608 -0.555564 -0.778749 -0.283402 -0.0676846 
3889 2 -659.749 2919.69 -576.623 -0.252507 -0.697484 0.45875 -0.489188 
3890 2 -654.63 2911.78 -580.062 0.0992459 -0.124081 0.845645 -0.509548 
3891 2 -652.446 2903.5 -584.915 0.433108 0.537439 0.718558 -0.0851519 
3892 2 -647.44 2898.25 -591.725 0.44845 0.87582 -0.136094 0.115375 
3894 2 -647.713 2882.5 -603.649 0.124025 -0.442134 -0.818333 0.345639 
3893 2 -646.351 2890.61 -598.127 0.332763 0.512769 -0.714494 0.340344 
3828 2 -578.317 2859.2 -550.471 0.454474 -0.651424 0.495895 -0.350984 
3827 2 -587.363 2856.53 -547.712 0.0310923 -0.774819 -0.176925 -0.606124 
3822 2 -634.734 2847.35 -541.651 0.575199 -0.137429 0.800051 0.100883 
3823 2 -625.79 2850.24 -544.677 0.219023 0.608582 0.54815 0.530272 
3824 2 -616.744 2852.87 -547.924 -0.255621 0.720771 -0.195949 0.6138 
3826 2 -597.222 2855.65 -548.079 -0.58989 -0.296078 -0.625774 -0.415662 
3825 2 -607.098 2854.92 -548.855 -0.729616 0.232332 -0.597411 0.238291 
3895 2 -652.145 2878.52 -611.618 -0.047197 -0.963757 0.0125071 0.262276 
3896 2 -656.512 2877.88 -620.544 -0.169997 -0.627033 0.756665 0.0734048 
3900 2 -657.476 2875.71 -659.085 0.140087 0.257703 -0.906648 0.30324 
3899 2 -656.728 2878.29 -649.541 0.11115 0.883484 -0.45451 0.0228451 
3898 2 -658.457 2876.9 -639.86 -0.00993601 0.878565 0.464382 0.111244 
3897 2 -659.005 2877.29 -630.096 0.072107 0.183604 0.98017 0.0189084 
3928 2 -559.239 2966.61 -633.538 0.39043 0.397021 0.198265 0.806617 
3929 2 -550.849 2966.19 -628.203 -0.467517 0.367636 -0.156293 0.788571 
3930 2 -543.4 2966.51 -621.842 -0.882989 0.176692 -0.432791 0.0424501 
3931 2 -535.642 2969.54 -616.418 -0.634592 -0.369826 -0.39054 -0.554978 
3927 2 -567.857 2968.75 -637.941 0.820763 0.183751 0.494506 0.219199 
3926 2 -574.638 2967.8 -644.994 0.757595 -0.235358 0.252425 -0.55402 
3925 2 -582.338 2968.35 -651.256 0.0194649 -0.453586 0.0836666 -0.887063 
3924 2 -588.542 2965.76 -658.578 -0.725318 -0.103789 -0.371622 -0.570122 
3932 2 -526.432 2969 -612.453 0.169007 -0.542316 -0.00122956 -0.823 
3933 2 -517.198 2970.98 -609.49 0.775316 -0.210499 0.431733 -0.4101 
3934 2 -508.509 2971.09 -604.5 0.866223 0.231533 0.411944 0.162335 
3935 2 -500.677 2968.72 -598.807 0.323466 0.634942 0.117458 0.691681 
3936 2 -491.275 2965.98 -597.523 -0.358462 0.449931 -0.445673 0.685889 
3946 2 -528.009 3047.44 -615.03 -0.619591 -0.179937 0.36198 0.67283 
3945 2 -522.407 3049.83 -622.663 0.0525303 -0.274512 -0.182635 0.942618 
3944 2 -515.589 3051.89 -629.427 0.859193 -0.0605568 -0.392157 0.323008 
3947 2 -534.843 3050.27 -608.706 -0.934736 0.115298 0.308577 -0.133247 
3948 2 -540.923 3051.37 -600.875 -0.374448 0.363846 0.28782 -0.802848 
3949 2 -548.834 3050.15 -595.029 0.345497 0.435282 -0.172555 -0.813256 
3950 2 -556.93 3048.85 -589.338 0.890296 0.0593413 -0.444784 -0.0775798 
3951 2 -564.001 3048.33 -582.531 0.520789 -0.324329 -0.229986 0.755445 
3952 2 -570.969 3048.54 -575.526 -0.353502 -0.27331 0.0785237 0.891163 
3953 2 -577.791 3047.8 -568.402 -0.881944 -0.21573 0.405681 0.105157 
3954 2 -585.354 3045.58 -562.529 -0.675928 0.41458 0.327809 -0.513601 
3955 2 -593.522 3047.98 -557.705 -0.0418649 0.329907 -0.14377 -0.932062 
3956 2 -599.691 3050.74 -550.581 0.712852 0.122655 -0.449259 -0.524371 
3957 2 -607.49 3054.26 -545.48 0.904625 -0.212628 -0.36917 -0.0124852 
3958 2 -613.759 3058.64 -539.144 0.59503 -0.349244 -0.197943 0.696266 
3959 2 -620.789 3059.86 -532.397 -0.219546 -0.343531 0.119156 0.905311 
3960 2 -626.702 3060.79 -524.775 -0.844147 -0.117101 0.280187 0.441813 
3961 2 -632.794 3061.93 -517.032 -0.839856 0.0947497 0.231791 -0.481599 
3980 2 -552.799 3138.37 -527.246 -0.49076 0.496489 -0.715953 -0.00802198 
3979 2 -560.156 3135.45 -521.156 -0.225976 0.906768 -0.14808 0.323695 
3978 2 -567.13 3130.16 -516.89 0.117634 0.481345 0.694044 0.522276 
3981 2 -546.025 3143.95 -531.952 -0.245031 -0.48689 -0.801584 -0.245686 
3982 2 -539.711 3145.38 -539.426 0.0725726 -0.932254 0.00394359 -0.35443 
3943 2 -509.706 3050.87 -637.41 0.769056 0.126935 -0.250858 -0.57403 
3938 3 -510.331 3006.26 -624.16 0.779246 -0.216803 -0.587469 0.0255431 
3942 2 -504.154 3046.55 -644.483 0.00935707 0.293093 -0.185586 -0.937852 
3940 2 -491.085 3036.77 -655.301 -0.862392 0.227081 0.45104 0.0357359 
3939 2 -484.216 3032.12 -660.835 -0.431634 -0.266014 0.371829 0.777606 
3941 2 -498.226 3040.6 -649.61 -0.650148 0.4644 0.0105378 -0.601274 
3937 1 -478.118 2995.2 -632.161 0.75527 -0.187898 -0.626542 0.0413229 
4052 2 -713.525 3214.04 -542.851 0.526396 -0.225339 0.557274 0.601311 
4053 2 -710.669 3223.07 -540.17 0.0292237 0.319768 0.544262 0.775031 
4051 2 -715.374 3206.56 -549.122 0.892215 -0.42761 0.137252 0.0475699 
4050 2 -715.769 3200.67 -557.052 0.735409 -0.208709 -0.155904 -0.625546 
4049 2 -714.104 3196.24 -565.842 0.0310902 0.0636925 -0.267389 -0.960979 
4048 2 -713.738 3192.97 -575.253 -0.794627 0.148703 -0.0678852 -0.584677 
4047 2 -714.762 3186.81 -582.913 -0.914262 0.322551 0.0439849 0.241146 
4045 1 -681.776 3213.48 -603.493 -0.596884 -0.0215772 -0.0469206 -0.800664 
4054 2 -706.642 3231.68 -537.552 -0.395326 0.635257 0.162435 0.643258 
4055 2 -700.184 3238.7 -535.383 -0.560376 0.748718 -0.326349 0.137465 
4056 2 -694.109 3245.91 -538.174 -0.470125 0.231093 -0.755038 -0.39433 
4057 2 -688.451 3253.46 -541.035 0.0978357 -0.445979 -0.722706 -0.518871 
4058 2 -684.788 3260.54 -546.755 0.299118 -0.839011 -0.253188 -0.377472 
4059 2 -679.597 3266.9 -552.35 0.397711 -0.825816 0.395445 0.0589602 
4060 2 -676.287 3273.43 -559.258 0.313017 -0.213736 0.883451 0.275411 
4061 2 -671.152 3278.65 -566.067 0.0660805 0.548866 0.749503 0.364177 
4046 3 -676.33 3219.01 -569.434 -0.614438 0.0227997 -6.40575e-06 -0.788636 
4062 2 -665.748 3282.74 -573.25 -0.261979 0.847424 -0.173869 0.427797 
4063 2 -657.882 3285.86 -578.481 -0.446103 0.427939 -0.782628 -0.0731716 
3983 2 -532.952 3146.73 -546.544 0.361986 -0.500586 0.770994 -0.154749 
3984 2 -526.829 3148.65 -553.988 0.200463 0.0923469 0.949458 0.223197 
3985 2 -523.312 3152.23 -562.504 -0.111024 0.756798 0.634498 0.111102 
4044 2 -646.609 3244.89 -603.212 0.323137 0.820206 -0.408818 0.236033 
4043 2 -647.391 3251.88 -596.341 0.397206 0.888326 0.224086 -0.0537639 
4042 2 -643.626 3255.82 -588.068 -0.133443 0.384462 0.870718 -0.276103 
4041 2 -642.708 3260.4 -579.278 -0.150383 -0.420157 0.883776 -0.140688 
4040 2 -638.607 3265.82 -572.457 -0.380786 -0.881027 0.241972 0.142278 
4039 2 -635.473 3271.43 -564.839 -0.12113 -0.741316 -0.562627 0.345296 
4038 2 -633.172 3274.72 -555.732 0.116053 -0.0942514 -0.969649 0.193465 
4037 2 -633.146 3276.01 -545.905 0.0523317 0.721619 -0.689449 0.034471 
4036 2 -633.416 3276.25 -536.083 -0.0185409 0.961513 0.27388 -0.0117734 
4035 2 -631.898 3275.26 -526.254 -0.105172 0.464643 0.8792 0.00733854 
4034 2 -628.061 3271.93 -517.797 -0.0562044 -0.555208 0.788688 0.257985 
3997 2 -583.224 3201.32 -543.949 -0.838923 -0.529379 -0.0400135 0.119853 
3996 2 -581.342 3210.06 -548.078 -0.449044 -0.420386 -0.373565 0.694323 
3995 2 -577.78 3219.23 -549.871 0.291943 -0.039735 -0.633449 0.715495 
3994 2 -572.386 3227.36 -551.705 0.719425 0.424811 -0.491664 0.245417 
3993 2 -567.321 3235.61 -553.683 0.647196 0.603235 0.0373762 -0.464594 
4064 2 -651.187 3291.1 -583.51 -0.269213 -0.327152 -0.758236 -0.495554 
3998 2 -583.467 3192.2 -540.394 -0.587819 -0.373798 0.261064 -0.668274 
3992 3 -544.237 3189.62 -561.757 0.874479 0.341765 -0.296285 0.17521 
3999 2 -581.238 3184.51 -534.644 0.106375 -0.0783304 0.454904 -0.880688 
4000 2 -579.845 3176.43 -529.077 0.903003 0.0677344 0.133642 -0.402663 
3991 1 -533.558 3216.91 -580.872 0.883606 0.386344 -0.242938 0.104691 
4001 2 -577.74 3174.01 -519.589 0.770449 0.092029 0.126628 0.617985 
3986 2 -523.445 3156.11 -571.493 -0.388705 0.909166 -0.141526 0.047915 
3987 2 -520.832 3163.16 -577.894 -0.40422 0.48248 -0.772132 -0.0873625 
3988 2 -516.547 3168.98 -584.627 -0.163149 -0.355261 -0.842439 -0.370767 
4065 2 -644.112 3296.92 -587.563 0.285283 -0.76048 -0.363433 -0.456289 
3989 2 -511.373 3174.62 -590.867 0.326208 -0.850071 -0.23837 -0.337857 
3990 2 -506.858 3181.37 -596.575 0.475367 -0.769787 0.42511 -0.0271327 
4066 2 -639.131 3303.87 -592.336 0.460309 -0.69523 0.530036 -0.154378 
4067 2 -632.159 3308.74 -597.493 0.424849 -0.0994781 0.856939 0.274342 
2319 2 -150.227 393.67 -371.731 -0.941617 0.315531 -0.0125024 -0.116794 
2320 2 -150.843 399.237 -363.671 -0.436203 -0.0237362 -0.317037 -0.841814 
2533 1 -80.4837 959.832 -396.34 -0.960679 -0.241864 0.132982 0.0302289 
2532 2 -66.5292 914.79 -397.93 -0.224565 0.866596 -0.391272 0.21328 
2531 2 -72.2693 912.644 -390.236 -0.00663025 0.889071 0.332929 0.314113 
2530 2 -79.2046 908.992 -384.298 0.330713 0.350439 0.825579 0.293668 
2535 2 -102.306 996.62 -376.313 -0.909562 -0.228793 0.144188 0.315531 
2529 2 -83.7299 905.222 -376.385 0.365194 -0.511179 0.778021 0.0036329 
2528 2 -88.7629 904.115 -367.855 0.103508 -0.939758 0.110589 -0.30645 
2534 3 -92.2728 946.619 -366.071 -0.959094 -0.190818 0.206735 -0.0314206 
2536 2 -106.566 993.226 -368.011 -0.808015 -0.12286 0.265373 -0.511463 
2589 2 -173.387 991.861 -373.103 0.82671 0.061298 -0.12084 0.546069 
2590 2 -173.457 989.996 -363.297 0.112437 -0.045994 -0.0731628 0.989894 
2751 2 -525.885 1270.34 -482.966 0.685529 0.0226658 0.221757 -0.69308 
2752 2 -521.979 1267.4 -474.381 0.967852 0.0687492 0.241342 0.0170365 
2753 2 -517.867 1265.86 -465.449 0.585555 0.283565 0.0511691 0.757692 
2746 2 -446.814 1246.2 -510.508 -0.0200856 -0.248579 -0.839101 -0.48344 
2749 1 -489.24 1269.79 -512.626 0.801026 0.289545 0.000379475 0.523948 
2754 2 -512.198 1263.19 -457.8 -0.146938 0.289081 -0.369793 0.870686 
2745 2 -448.633 1239.1 -503.913 -0.198107 0.258842 -0.882916 -0.337955 
2744 2 -451.299 1233.31 -496.378 -0.373846 0.861484 -0.341611 0.037244 
2743 2 -453.476 1228.58 -487.985 -0.215821 0.868833 0.3905 0.214619 
2755 2 -506.802 1257.44 -451.648 -0.732406 -0.139375 -0.479168 0.4632 
2756 2 -500.377 1251.73 -446.94 -0.700611 -0.601678 -0.204559 -0.324474 
2757 2 -494.009 1244.1 -445.685 -0.0223324 -0.565457 0.31045 -0.763794 
2734 2 -446.207 1170.02 -435.903 -0.0487094 -0.897143 0.34749 0.268353 
2733 2 -440.422 1171.87 -428.172 0.119679 -0.717183 -0.635017 0.260921 
2735 2 -451.305 1171.29 -444.127 -0.197094 -0.257917 0.871019 0.368727 
2736 2 -456.919 1176.76 -450.106 -0.422572 0.649213 0.631261 0.038264 
2732 2 -434.426 1176.45 -421.913 0.355551 0.0192093 -0.900162 0.250845 
2737 2 -462.301 1181.63 -456.871 -0.428551 0.803402 -0.254506 -0.325754 
2758 2 -486.168 1238.54 -443.08 0.543968 -0.316447 0.615421 -0.47457 
2731 2 -428.91 1178.25 -413.924 0.228026 0.864974 -0.360452 -0.264384 
2738 2 -464.58 1190.44 -460.901 -0.134339 0.290975 -0.745657 -0.584194 
2739 2 -464.586 1199.38 -465.014 0.162423 -0.498672 -0.671678 -0.523253 
2730 2 -424.017 1181.86 -406.21 0.00832492 0.751975 0.523576 -0.400415 
2759 2 -477.166 1234.38 -443.31 0.666374 0.234477 0.703314 0.0794772 
2742 2 -457.521 1222.61 -481.182 0.175733 0.223734 0.872167 0.397976 
2750 3 -475.976 1256.16 -483.302 0.77013 0.3114 -0.00461973 0.556694 
2740 2 -462.374 1208.17 -468.89 0.392126 -0.905758 -0.128841 -0.0961256 
2741 2 -461.145 1216.08 -474.816 0.40514 -0.634144 0.642799 0.143295 
2766 2 -411.98 1231.43 -429.644 0.605929 0.152203 0.752287 0.20916 
2765 2 -421.096 1230.2 -433.219 0.738945 -0.306495 0.467547 -0.376061 
2764 2 -429.955 1226.01 -434.061 0.215591 -0.669607 -0.0522963 -0.70881 
2760 2 -467.433 1232.64 -444.627 0.525677 0.505675 0.187126 0.657982 
2763 2 -439.666 1227.73 -435.915 -0.596663 -0.470018 -0.478258 -0.440847 
2761 2 -458.724 1230.43 -440.438 -0.154728 0.536562 -0.227966 0.797617 
2762 2 -449.544 1228.49 -437.399 -0.67273 0.279211 -0.611335 0.309426 
2767 2 -402.234 1231.65 -430.772 0.38756 0.64448 0.283231 0.595166 
2768 2 -392.349 1231.17 -430.678 -0.188335 0.61515 -0.43685 0.628715 
2769 2 -382.889 1228.63 -432.001 -0.628186 0.114409 -0.757783 0.134383 
2729 2 -420.269 1185.12 -397.652 -0.198489 0.0447638 0.959899 -0.192851 
2728 2 -417.239 1189.6 -389.339 -0.277138 -0.749152 0.600571 -0.035782 
2784 2 -430.719 1293.91 -414.425 -0.416037 -0.52569 0.240347 0.701995 
2770 2 -373.19 1228.9 -434.191 -0.324055 -0.549198 -0.672646 -0.375389 
2777 3 -377.714 1273.42 -430.601 -0.749294 -0.308606 0.575031 -0.112521 
2783 2 -421.245 1295.65 -416.98 0.292766 -0.488512 -0.318232 0.757873 
2785 2 -440.027 1292.68 -411.191 -0.812783 -0.0130228 0.562197 0.152146 
2786 2 -449.194 1293.87 -407.796 -0.765626 0.0962621 0.465794 -0.433111 
2787 2 -457.1 1291.42 -402.53 -0.202748 0.386612 0.228912 -0.870071 
2788 2 -465.253 1289.27 -397.635 0.601777 0.245313 -0.344479 -0.677511 
2727 2 -412.986 1191.89 -380.671 0.0127948 -0.908379 -0.339498 0.243771 
2829 2 -375.587 1220.43 -369.114 -0.234909 -0.387341 0.63723 -0.623476 
2782 2 -413.255 1299.09 -421.771 0.739641 -0.0440899 -0.572074 0.351737 
2781 2 -405.612 1304.84 -424.287 0.783196 0.492979 -0.31889 -0.204657 
2789 2 -472.25 1290.79 -390.807 0.915597 -0.129965 -0.358284 0.128155 
2726 2 -406.119 1196.11 -374.933 0.364161 -0.288676 -0.811538 0.354201 
2790 2 -479.68 1292.17 -384.348 0.552769 -0.358259 -0.0501819 0.750719 
2828 2 -377.192 1230.07 -367.618 -0.589625 -0.738713 0.193726 -0.262898 
2725 2 -399.149 1201.76 -370.634 0.491503 0.514125 -0.700703 0.0558132 
2780 2 -399.01 1311.5 -427.53 0.443784 0.541534 0.188775 -0.688593 
2791 2 -486.416 1295.15 -377.72 -0.272917 -0.384799 0.288111 0.83333 
2724 2 -391.732 1205.3 -364.96 0.253903 0.869445 -0.160521 -0.392214 
2827 2 -380.554 1238.88 -364.846 -0.551619 -0.572643 -0.535353 0.284945 
2792 2 -494.356 1297.72 -372.394 -0.89525 -0.065345 0.353332 0.263466 
2826 2 -386.703 1246.48 -363.087 -0.28528 0.0550117 -0.787186 0.543992 
2793 2 -501.734 1298.87 -365.769 -0.669063 0.257532 0.25233 -0.649893 
2771 2 -364.446 1230.73 -438.437 0.206423 -0.622233 0.0844903 -0.750384 
2772 2 -354.877 1232.14 -436.515 0.742916 -0.568735 0.26005 -0.238725 
2773 2 -348.144 1239.31 -434.86 0.68856 -0.113302 0.674679 0.240531 
2774 2 -339.972 1244.94 -434.417 0.278561 0.372012 0.613586 0.638375 
2776 1 -349.553 1293.77 -435.055 -0.728386 -0.343628 0.579146 -0.126346 
2775 2 -331.466 1250.21 -434.792 -0.37113 0.741287 -0.0289197 0.558498 
2779 2 -392.038 1318.41 -429.167 -0.222402 0.304086 0.585501 -0.717814 
2778 2 -384.717 1324.85 -430.58 -0.702349 -0.294008 0.618303 -0.194848 
2918 2 -210.215 1460.54 -394.537 -0.526917 0.505319 0.607347 0.313274 
2917 2 -206.585 1451.58 -396.103 -0.1436 -0.100207 0.660234 0.730362 
2916 2 -201.5 1443.02 -396.489 0.492789 -0.662819 0.151264 0.543092 
2915 2 -195.276 1435.44 -395.812 0.682336 -0.600311 -0.416423 0.02521 
2914 2 -189.548 1427.48 -394.422 0.489044 -0.0857356 -0.699834 -0.513535 
2913 2 -182.552 1420.66 -392.796 0.145354 0.398542 -0.60429 -0.674441 
2919 2 -212.56 1469.99 -397.123 -0.619056 0.764617 -0.17906 0.00824762 
2920 2 -209.928 1478.96 -400.449 -0.383422 0.414507 -0.736112 -0.373243 
2921 2 -206.979 1487.74 -404.423 0.0501377 -0.391721 -0.834093 -0.385135 
2922 2 -204.869 1495.41 -410.349 0.364901 -0.861438 -0.285066 -0.208589 
2923 2 -202.963 1502.84 -416.544 0.537258 -0.570078 0.600367 0.161012 
2937 2 -142.831 1506.63 -501.645 -0.105948 -0.601357 0.661902 -0.434775 
2924 2 -197.758 1510.62 -419.787 0.204799 0.237485 0.762745 0.565577 
2925 2 -191.309 1517.3 -423.283 -0.33842 0.699518 0.227562 0.586824 
2926 2 -184.786 1524.77 -424.383 -0.55705 0.702383 -0.4308 0.103753 
2936 2 -146.537 1513.4 -495.243 -0.396766 -0.890217 -0.106077 -0.197076 
2932 2 -156.122 1539.96 -468.551 0.290213 0.913236 0.285785 -0.0101883 
2934 2 -153.619 1527.08 -483.408 -0.0211753 0.239893 -0.828435 0.505666 
2933 2 -154.356 1534.32 -476.563 0.345296 0.854974 -0.348961 0.16738 
2931 2 -158.169 1541.16 -458.951 0.0601074 0.316076 0.946102 0.0370656 
2930 2 -164.768 1541.36 -451.528 0.302363 -0.540369 0.751879 -0.226396 
2929 2 -167.927 1538.62 -442.538 0.158983 -0.96901 0.156185 -0.106539 
2938 1 -107.77 1486.45 -477.362 -0.372632 -0.131411 0.305569 0.866317 
2935 2 -151.2 1518.68 -488.275 -0.356437 -0.477038 -0.798198 0.0909214 
2939 3 -125.977 1503.03 -452.355 -0.376687 -0.126238 0.282091 0.873267 
2928 2 -173.168 1537.28 -434.234 -0.152948 -0.685978 -0.665119 -0.252305 
2927 2 -179.333 1532.19 -428.166 -0.345845 0.193978 -0.898994 -0.18594 
2951 2 -136.405 1554.6 -408.541 -0.680152 0.386558 0.610443 0.123792 
2952 2 -142.444 1562.43 -409.83 -0.672189 0.689328 -0.0853931 -0.256314 
2953 2 -144.463 1572.18 -409.653 -0.414555 0.36215 -0.526966 -0.647532 
2954 2 -144.965 1581.79 -407.569 0.223471 -0.297359 -0.4356 -0.819689 
2950 2 -129.942 1547.21 -406.979 -0.264511 -0.21807 0.676432 0.651858 
2949 2 -125.702 1538.71 -404.442 0.367023 -0.659289 0.406589 0.51509 
2988 2 -139.05 1589.6 -444.078 -0.519968 0.548442 0.143546 -0.638936 
2989 2 -147.147 1594.02 -440.968 0.303643 0.433369 -0.35044 -0.772777 
2990 2 -155.629 1596.93 -436.856 0.639996 -0.0708232 -0.718113 -0.264012 
2948 2 -121.979 1530.15 -401.277 0.563607 -0.733842 -0.377904 -0.0318079 
2947 2 -118.774 1520.9 -400.9 0.410323 -0.261052 -0.660986 -0.571476 
2946 2 -115.174 1512.6 -405.079 -0.0756766 0.278722 -0.447691 -0.846262 
2945 2 -110.372 1504.36 -408.069 -0.648294 0.594813 -0.0466194 -0.47301 
2944 2 -105.32 1496.91 -412.229 -0.815444 0.340857 0.405084 0.23404 
2943 2 -100.978 1490.09 -418.057 -0.305982 -0.116199 0.507344 0.797167 
2983 2 -104.149 1563.29 -431.723 0.33075 -0.00356289 -0.93854 -0.0986638 
2942 2 -96.7759 1485.27 -425.595 0.40339 -0.289933 0.119585 0.859601 
2941 2 -90.5512 1480.7 -431.853 0.885106 -0.292602 -0.295187 0.209371 
2940 2 -83.7345 1476.96 -437.95 0.784506 -0.00787209 -0.465543 -0.409583 
2955 2 -142.2 1590.06 -402.71 0.657589 -0.635648 -0.338495 -0.221244 
2956 2 -143.956 1599.7 -403.447 0.616961 -0.516725 0.346855 0.481712 
2980 2 -80.7462 1571.73 -416.357 -0.329846 0.185131 0.833753 -0.402225 
2957 2 -145.808 1609.29 -401.61 0.11196 -0.0135017 0.47601 0.872179 
2985 2 -116.541 1570.98 -443.956 0.275498 -0.765244 0.138501 0.565085 
2987 2 -131.625 1583.31 -446.378 -0.806441 0.298527 0.497512 0.114089 
2986 2 -123.959 1577.2 -446.051 -0.251115 -0.327924 0.674881 0.611508 
2979 2 -75.0244 1578.26 -411.458 -0.481315 -0.593134 0.642718 -0.0586641 
2981 2 -88.0755 1567.21 -421.183 0.0513091 0.848986 0.135604 -0.508136 
2984 2 -110.578 1564.92 -439.003 0.513235 -0.660331 -0.548157 -0.00871979 
2982 2 -96.2015 1563.89 -425.845 0.297765 0.719322 -0.494572 -0.386408 
2978 2 -69.7503 1584.73 -406.267 -0.379329 -0.862995 -0.0614902 0.327977 
2991 2 -164.408 1601.56 -437.496 0.578678 -0.63651 -0.365956 0.355053 
2977 2 -65.5645 1591.96 -400.831 -0.00213416 -0.422179 -0.790952 0.442894 
2976 2 -64.7662 1599.31 -394.133 0.138115 0.439139 -0.84456 0.273495 
2974 2 -63.2566 1613.98 -380.914 0.297597 0.74623 0.55004 -0.228109 
2975 2 -63.5732 1606.37 -387.049 0.374707 0.893219 -0.247631 0.0208326 
2973 2 -62.1703 1618.59 -372.171 -0.0615545 0.064671 0.961036 -0.261607 
2958 2 -144.728 1618.12 -397.315 -0.504047 0.470838 0.213144 0.691967 
2959 2 -141.055 1626.21 -392.836 -0.76715 0.594167 -0.232474 0.0663491 
2994 2 -113.178 1669.96 -471.214 0.578279 0.405796 0.229471 0.669527 
2995 2 -105.556 1668.04 -465.387 -0.34584 0.122683 -0.171789 0.914238 
2996 2 -102.39 1664.69 -456.671 -0.93699 -0.0895585 -0.242853 0.234629 
2997 2 -98.3917 1662.54 -447.933 -0.797309 -0.31861 -0.152133 -0.489532 
2992 1 -143.447 1634.41 -464.126 0.830744 -0.181811 0.249389 -0.463264 
2998 2 -93.1975 1659.46 -440.056 -0.0458138 -0.289634 -0.0342313 -0.955427 
2993 3 -125.347 1635.55 -434.359 0.811055 -0.204886 0.230654 -0.497001 
2963 2 -141.235 1660.71 -377.527 0.733997 -0.552093 0.114222 0.378675 
2962 2 -140.103 1652.31 -382.671 0.80487 -0.362875 -0.301137 -0.36031 
2964 2 -143.696 1669.55 -373.764 0.300192 -0.293485 0.477538 0.771822 
2961 2 -137.101 1643.55 -386.265 0.294594 -0.00189399 -0.588126 -0.753205 
2960 2 -136.593 1635.02 -391.182 -0.48725 0.341929 -0.387227 -0.704079 
2999 2 -88.1731 1660.03 -431.495 0.73066 -0.065172 0.0542514 -0.677455 
3000 2 -86.6132 1659.45 -421.728 0.983664 -0.108341 0.0926003 0.109964 
3001 2 -84.9276 1662.17 -412.292 0.436774 0.00896397 0.307177 0.845453 
3002 2 -82.093 1666.61 -403.862 -0.347446 0.287435 0.0897612 0.888034 
3003 2 -77.3767 1670.4 -395.969 -0.936313 0.184687 -0.246521 0.168629 
3004 2 -72.0023 1674.16 -388.413 -0.568517 -0.0923912 -0.480528 -0.661321 
3005 2 -66.6916 1679.74 -382.166 0.129113 -0.181745 -0.344171 -0.912055 
3006 2 -64.1872 1686.8 -375.609 0.83342 -0.381225 0.0142467 -0.399845 
3007 2 -60.5926 1693.7 -369.52 0.784139 -0.413597 0.305498 0.347469 
3008 2 -58.9115 1702.16 -364.586 0.21211 0.152297 0.411421 0.87324 
2966 3 -98.8886 1644.23 -366.405 -0.4279 -0.654226 -0.550296 0.293369 
2972 2 -58.808 1624.6 -365.144 -0.409645 -0.634495 0.638912 -0.146282 
3361 2 -663.713 1919.31 -387.712 0.254556 0.90782 0.167354 0.288195 
3362 2 -657.812 1915.39 -394.641 0.0604812 0.753423 -0.530977 0.383093 
3363 2 -652.144 1909.9 -400.573 -0.318372 0.13784 -0.808471 0.475409 
3364 2 -646.602 1902.74 -404.671 -0.471595 -0.60817 -0.631942 0.0915205 
3365 2 -642.471 1895.39 -409.809 -0.168918 -0.942286 0.198916 -0.209754 
3366 2 -638.763 1890.95 -417.944 -0.0018787 -0.490272 0.862771 -0.123512 
3367 2 -637.518 1888.61 -427.525 -0.0528621 0.35242 0.929698 -0.0931045 
3369 2 -640.717 1886.86 -446.899 0.0893186 0.862625 -0.497145 -0.0273276 
3368 2 -639.226 1888.15 -437.2 0.0312105 0.942358 0.322159 -0.0848564 
3370 1 -612.166 1922.78 -457.516 0.888185 -0.0296663 0.00803557 -0.458457 
3371 3 -614.608 1924.55 -422.682 0.904491 -0.0533864 -0.0307734 -0.422019 
3360 2 -665.416 1925.55 -380.272 0.320445 0.461585 0.787629 -0.252775 
3359 2 -670.58 1927.99 -372.094 0.151502 -0.4658 0.839711 -0.234444 
3358 2 -675.173 1931.15 -364.053 -0.150532 -0.943227 0.110506 -0.274684 
3372 2 -584.829 1959.8 -446.716 -0.811463 -0.210256 -0.0264456 0.54463 
3373 2 -586.968 1955.76 -437.901 -0.956135 0.0518362 0.0966358 -0.271627 
3377 2 -591.884 1958.07 -398.884 0.696347 -0.137005 0.0987655 0.69755 
3378 2 -592.182 1961.28 -389.597 -0.0995383 -0.0212935 0.0867096 0.99102 
3379 2 -593.12 1962.16 -379.849 -0.858373 0.178271 0.00346339 0.481043 
3376 2 -592.174 1956.27 -408.636 0.993618 -0.0903082 -0.00129571 -0.0675726 
3375 2 -590.732 1955.97 -418.53 0.45746 0.0644744 -0.0178684 -0.88671 
3374 2 -588.99 1956.15 -428.272 -0.420436 0.077482 0.0219743 -0.90374 
3380 2 -592.407 1966.31 -370.97 -0.808624 0.332268 0.0605414 -0.481726 
3381 2 -595.961 1971.61 -363.446 -0.12683 0.203665 -0.187245 -0.952562 
3477 2 -542.578 2154.73 -382.157 0.12162 -0.468727 0.635325 -0.601553 
3476 2 -549.31 2161.4 -379.793 -0.400413 -0.794904 0.0415974 -0.453945 
3475 2 -555.03 2164.49 -372.273 -0.347167 -0.586459 -0.727396 -0.080217 
3479 3 -525.232 2200.81 -365.82 0.905194 -0.00685525 -0.175605 -0.386963 
3478 1 -516.487 2190.66 -398.22 0.900502 -0.0572871 -0.185943 -0.388896 
3474 2 -558.44 2169.55 -364.552 -0.114232 0.15922 -0.922524 0.33249 
3680 2 -553.29 2310.16 -496.92 0.569722 0.2663 0.626477 0.460464 
3666 2 -609.064 2286.12 -381.556 0.137015 0.718238 0.17537 -0.659247 
3665 2 -600.145 2290.38 -381.408 -0.362364 0.385559 0.590969 -0.608927 
3667 1 -630.028 2316.36 -411.153 -0.625429 0.391562 -0.613061 0.282266 
3664 2 -592.819 2296.93 -382.251 -0.7442 -0.324697 0.578269 -0.079645 
3696 2 -543.312 2266.67 -426.477 -0.511888 0.496421 -0.579577 -0.394497 
3697 2 -542.245 2276.21 -429.302 0.0449522 -0.272098 -0.732735 -0.622127 
3698 2 -539.959 2285.48 -431.423 0.648131 -0.641488 -0.190933 -0.363269 
3699 2 -538.378 2295.28 -430.704 0.784913 -0.405812 0.424849 0.1968 
3663 2 -585.409 2302.86 -385.17 -0.660124 -0.5408 0.151012 0.498966 
3668 3 -595.998 2323.62 -415.002 -0.611173 0.370775 -0.646009 0.267703 
3679 2 -562.37 2308.76 -493.306 0.550786 -0.334411 0.750068 -0.149002 
3678 2 -570.082 2311.86 -487.937 -0.00693055 -0.788402 0.373135 -0.489024 
3677 2 -578.111 2317.24 -486.013 -0.595954 -0.676414 -0.355004 -0.247537 
3675 2 -592.194 2326.67 -476.137 -0.129615 0.549339 -0.732998 0.379659 
3676 2 -585.329 2322.79 -482.001 -0.485169 -0.192195 -0.827635 0.206624 
3674 2 -597.224 2328.41 -467.713 0.113985 0.964858 -0.0177854 0.236094 
3670 2 -620.888 2346.64 -446.207 -0.554719 -0.769909 -0.296608 -0.107471 
3673 2 -603.294 2328.36 -459.954 0.247465 0.524701 0.797462 0.165847 
3672 2 -609.321 2332.15 -453.087 0.272936 -0.204642 0.90166 -0.265777 
3671 2 -615.849 2338.51 -448.834 -0.155841 -0.744081 0.397264 -0.51404 
3669 2 -630.011 2350 -444.166 -0.600673 0.00906481 -0.774172 0.199418 
3700 2 -533.126 2303.07 -427.472 0.341797 -0.0779227 0.601163 0.718127 
3701 2 -529.889 2311.9 -424.801 -0.530148 0.396527 0.473158 0.581233 