ITEM: TIMESTEP
100000000
ITEM: NUMBER OF ATOMS
4067
ITEM: BOX BOUNDS pp pp pp
-4.6310929470000001e+03 4.6704658980000004e+03
-4.6310929470000001e+03 4.6704658980000004e+03
-4.6310929470000001e+03 4.6704658980000004e+03
ITEM: ATOMS id type x y z c_q[1] c_q[2] c_q[3] c_q[4] 
2997 2 -219.949 1444.18 -523.872 0.972702 -0.16503 -0.00882635 -0.162906 
2996 2 -220.04 1441.13 -533.336 0.640747 -0.0413212 -0.130492 -0.755452 
2995 2 -222.003 1437.2 -542.161 -0.236507 0.0234734 -0.282313 -0.929415 
2994 2 -224.099 1432.03 -550.487 -0.803327 0.172317 -0.222625 -0.524796 
2992 1 -212.819 1387.61 -539.567 0.9741 -0.20607 -0.0911254 -0.0189702 
2998 2 -220.063 1447.42 -514.593 0.77014 -0.0433939 -0.0362309 0.635365 
3046 1 -265.034 1476.32 -527.151 -0.515831 -0.269489 -0.227094 -0.780847 
3045 2 -239.294 1510.69 -546.618 0.183649 -0.867032 0.0240608 0.462547 
3044 2 -231.226 1507.6 -541.733 0.477947 -0.512298 -0.704901 0.110596 
3043 2 -223.081 1503.36 -538.092 0.452514 0.146126 -0.777965 -0.410669 
3042 2 -214.343 1499.71 -534.719 0.027277 0.739293 -0.309976 -0.597174 
3041 2 -206.853 1497.31 -528.711 -0.324686 0.804338 0.382774 -0.317967 
3040 2 -200.412 1491.58 -523.786 -0.426333 0.276044 0.842984 0.177251 
3039 2 -192.79 1485.84 -521.484 -0.122369 -0.524872 0.611496 0.579316 
3038 2 -186.704 1480.16 -516.286 0.295043 -0.910393 -0.00739197 0.289964 
3372 2 -113.82 2280.41 -519.284 -0.428125 -0.410153 -0.550529 0.587708 
3373 2 -114.436 2270.55 -518.435 -0.75745 -0.637488 -0.0749631 0.119411 
3374 2 -114.179 2260.77 -516.259 -0.606273 -0.248779 0.429414 -0.621406 
3750 2 -863.098 2629.01 -521.229 -0.731858 -0.113171 -0.316259 0.592922 
3829 1 -839.068 2840.64 -561.027 0.788633 0.303934 0.449703 0.288876 
3828 2 -816.789 2818.42 -596.192 -0.201638 0.434828 0.848578 0.224015 
3827 2 -814.868 2812.69 -588.419 0.0707568 -0.462765 0.822255 0.323634 
3826 2 -808.667 2807.01 -583.294 0.320448 -0.867645 -0.0200362 0.379609 
3823 2 -793.457 2794.02 -561.87 -0.0399701 0.795189 -0.43879 -0.416581 
3822 2 -787.909 2792.43 -553.738 -0.179882 0.848349 0.406914 -0.286998 
3821 2 -781.32 2794.55 -546.58 -0.330712 0.0859367 0.917623 -0.203009 
3820 2 -773.041 2794.74 -541.111 -0.401222 -0.550225 0.696786 0.225305 
3819 2 -765.192 2796.47 -535.355 -0.14763 -0.887678 0.108602 0.42242 
3824 2 -799.993 2797.37 -568.502 0.196328 0.180365 -0.936802 -0.226551 
3825 2 -804.11 2801.62 -576.431 0.362925 -0.568293 -0.736478 -0.054116 
3818 2 -756.634 2798.59 -531.007 0.217654 -0.611211 -0.585571 0.485956 
3855 2 -675.719 2832.93 -559.431 0.466107 0.179979 0.524535 -0.689358 
3817 2 -747.328 2800.05 -528.104 0.581143 0.120093 -0.803558 -0.046319 
3830 3 -808.165 2832.35 -547.029 0.817984 0.198496 0.493462 0.219084 
3816 2 -738.082 2800.37 -524.671 0.264709 0.76673 -0.348893 -0.469391 
3815 2 -729.398 2798.99 -520.092 -0.278191 0.820299 0.287334 -0.408851 
3813 2 -709.958 2796.03 -518.979 -0.526713 -0.382099 0.645145 0.400451 
3814 2 -719.59 2797.79 -519.81 -0.680494 0.223115 0.689903 -0.105743 
3812 2 -700.12 2797.25 -517.858 -0.109372 -0.716799 0.0338246 0.687817 
3809 2 -671.678 2805.03 -514.713 0.53379 0.530198 -0.575634 -0.320318 
3810 2 -681.188 2803.16 -516.456 0.641417 0.00196594 -0.725865 0.248397 
3811 2 -690.665 2800.14 -516.757 0.316283 -0.577023 -0.502252 0.561028 
3831 2 -843.019 2855.93 -516.549 -0.197417 -0.559633 -0.555159 -0.582783 
3832 2 -834.286 2860.08 -518.765 0.404469 -0.838575 -0.0870297 -0.354432 
3833 2 -829.535 2867.21 -523.889 0.504863 -0.456444 0.73203 0.0300703 
3834 2 -822.25 2872.1 -528.411 0.440612 0.207455 0.766701 0.418321 
3854 2 -678.314 2841.76 -563.071 -0.265732 -0.304115 0.472716 -0.783224 
3853 2 -679.458 2851.55 -564.329 -0.712773 -0.644733 0.178095 -0.211084 
3852 2 -682.319 2860.92 -565.07 -0.667298 -0.448482 -0.483256 0.346469 
3851 2 -684.031 2870.32 -567.7 -0.174887 0.0313416 -0.584448 0.79174 
3847 2 -709.818 2899.25 -567.129 0.0412172 -0.528858 0.582278 -0.616087 
3848 2 -702.894 2892.31 -568.546 0.578583 0.0310927 0.719161 -0.383514 
3849 2 -695.398 2886.11 -568.424 0.716481 0.571687 0.352434 0.188731 
3850 2 -688.173 2879.43 -567.723 0.368639 0.607387 -0.359607 0.604872 
3840 2 -771.313 2899.04 -540.617 0.472181 -0.643296 0.43257 -0.419641 
3841 2 -761.828 2900.96 -542.551 0.570995 -0.163607 0.795805 0.117865 
3843 2 -744.095 2905.06 -549.279 -0.0124435 0.815383 -0.126216 0.564859 
3842 2 -752.52 2904.07 -544.141 0.274347 0.673612 0.528309 0.438031 
3844 2 -735.212 2904.39 -553.7 -0.490343 0.419505 -0.725608 0.238899 
3845 2 -726.309 2904.62 -557.971 -0.527816 -0.340741 -0.762142 -0.156352 
3846 2 -717.593 2903.22 -562.611 -0.308353 -0.828609 -0.122747 -0.450843 
3835 2 -814.107 2876.81 -531.447 0.016623 0.668033 0.340724 0.661334 
3839 2 -780.572 2896.14 -538.776 0.0167086 -0.746913 -0.285651 -0.600204 
3836 2 -805.435 2881.64 -532.476 -0.467086 0.684121 -0.329828 0.452793 
3837 2 -796.145 2884.75 -533.981 -0.605481 0.443039 -0.658212 -0.0621833 
3838 2 -788.331 2890.26 -536.596 -0.478119 -0.0859945 -0.772653 -0.408674 
3856 1 -632.429 2845.97 -572.754 -0.558682 0.35149 0.657455 0.363431 
3857 3 -651.147 2875.38 -575.925 -0.576758 0.409547 0.650855 0.275697 
3858 2 -599.793 2878.29 -584.098 0.0608855 0.446259 -0.530549 -0.718097 
3859 2 -607.401 2884.72 -583.767 0.543993 -0.160591 -0.638083 -0.520704 
3860 2 -611.325 2893.61 -582.158 0.736737 -0.620516 -0.268021 0.0185188 
3861 2 -616.323 2902.12 -582.75 0.425046 -0.595885 0.172813 0.659084 
3862 2 -622.236 2909.63 -580.348 -0.362768 -0.0849143 0.324765 0.86932 
3863 2 -626.084 2914.66 -572.874 -0.888619 0.103779 0.34928 0.27855 
3864 2 -631.111 2919.2 -565.682 -0.788787 0.280928 -0.04904 -0.544508 
3865 2 -634.364 2924.21 -557.772 -0.021515 -0.0540734 -0.345147 -0.936743 
3866 2 -634.461 2930.54 -550.028 0.47687 -0.308641 -0.0542396 -0.821215 
3867 2 -629.778 2935.04 -542.535 0.891007 -0.404222 0.19188 -0.076767 
3868 2 -625.687 2942.47 -537.236 0.695366 -0.0628381 0.324044 0.638367 
3869 2 -621.751 2946.93 -529.403 -0.0271066 0.308313 0.155788 0.93805 
3870 2 -615.384 2950.47 -522.665 -0.744014 0.410719 -0.203482 0.486157 
3871 2 -609.205 2954.4 -516.025 -0.81586 0.0981959 -0.384832 -0.420279 
3937 1 -851.818 3104.36 -654.233 0.816002 0.197083 -0.211406 0.500605 
3938 3 -856.721 3084.67 -625.692 0.809541 0.198018 -0.21656 0.508462 
3939 2 -897.02 3112.39 -643.149 -0.477204 0.0071826 -0.295081 0.827739 
3940 2 -894.401 3108.17 -634.582 -0.953779 -0.259187 0.0108993 0.151684 
3941 2 -895.966 3103.69 -625.946 -0.688111 0.0682486 0.153371 -0.70592 
3942 2 -900.198 3102.31 -616.91 0.16488 0.250283 -0.145911 -0.942806 
3943 2 -905.032 3104.75 -608.708 0.768736 0.065547 -0.322306 -0.548514 
3944 2 -910.419 3106.41 -600.72 0.94399 -0.235495 0.00345281 0.231115 
3945 2 -911.719 3111.26 -592.233 0.243817 -0.123253 0.188982 0.943212 
3946 2 -912.906 3114.96 -583.116 -0.57478 0.220862 0.313577 0.722853 
3947 2 -914.109 3121.03 -575.458 -0.873831 0.462622 0.126236 0.0804065 
3948 2 -915.881 3128.95 -569.918 -0.509167 0.555919 -0.244946 -0.609676 
3949 2 -920.214 3137.42 -567.145 -0.0644144 0.186095 -0.495572 -0.845948 
3950 2 -923.625 3145.02 -561.597 0.630011 -0.184395 -0.447828 -0.607071 
3936 2 -809.375 3085.12 -646.886 -0.117091 0.470987 -0.873811 -0.0302572 
3935 2 -811.556 3083.56 -637.459 -0.114735 0.962193 -0.229315 0.091841 
3934 2 -812.189 3078.3 -629.094 -0.164176 0.687692 0.675462 0.209467 
3933 2 -813.919 3071.58 -622.004 0.122065 -0.111893 0.919284 0.357068 
3932 2 -815.343 3066.72 -613.485 0.229319 -0.820836 0.513284 0.100899 
3931 2 -811.326 3065.11 -604.562 0.125826 -0.90152 -0.355423 0.212376 
3930 2 -807.856 3061.3 -596.05 0.238649 -0.368802 -0.880838 -0.17651 
3929 2 -801.942 3057.99 -588.815 0.143269 0.545084 -0.744425 -0.358036 
3928 2 -797.303 3051.02 -583.626 -0.377382 0.855047 -0.160679 -0.31727 
3927 2 -791.203 3046.19 -577.46 -0.429555 0.595864 0.670452 -0.104508 
3926 2 -784.466 3041.69 -571.712 -0.315897 -0.0811524 0.886894 0.327173 
3925 2 -777.781 3036.3 -566.55 -0.0684911 -0.601934 0.600048 0.522425 
3924 2 -771.618 3032.6 -559.568 0.255342 -0.909358 -0.158819 0.287481 
3923 2 -767.802 3031.24 -550.576 0.153031 -0.623065 -0.766307 0.0338295 
3922 2 -763.988 3033.21 -541.653 0.198461 0.234458 -0.950251 0.0516336 
3921 2 -759.323 3035.67 -533.38 0.275554 0.806096 -0.517381 -0.0812113 
3920 2 -755.504 3035.47 -524.295 -0.0631497 0.956255 0.21202 -0.191407 
3919 2 -752.147 3034.49 -514.972 -0.157108 0.393717 0.905633 0.0115369 
4066 2 -1192.1 3149.48 -543.356 -0.0930104 0.681443 0.704645 -0.174527 
4067 2 -1195.74 3148.3 -552.319 0.0972142 0.977117 -0.0605267 -0.179242 
4065 2 -1188.79 3150.32 -534.13 -0.162331 0.0254209 0.984987 -0.0529341 
4064 2 -1184.23 3152.09 -525.409 -0.200033 -0.706063 0.662299 0.151066 
4058 2 -1175.79 3200.57 -532.166 -0.229319 -0.075086 0.552887 -0.797553 
4057 2 -1170.69 3207.63 -536.976 -0.802883 -0.401821 0.363665 -0.248328 
4056 2 -1165.06 3214.38 -541.458 -0.644449 -0.561143 -0.0434281 0.517609 
4055 2 -1158.99 3220.55 -546.211 -0.0110115 -0.33118 -0.362239 0.871195 
4051 2 -1134.92 3249.78 -539.949 -0.300468 0.172284 0.780262 -0.520796 
4050 2 -1129.17 3256.93 -536.018 -0.580962 -0.591998 0.557712 -0.0312826 
4054 2 -1152.4 3227.72 -547.8 0.604564 0.160638 -0.635592 0.45246 
4052 2 -1141.65 3242.76 -542.235 0.278851 0.774834 0.384213 -0.417439 
4053 2 -1147.08 3235.86 -546.657 0.700962 0.650759 -0.241375 -0.164021 
4063 2 -1181.9 3159.05 -518.772 -0.365035 -0.873783 -0.1457 0.286399 
4059 2 -1176.82 3192.07 -527.11 0.580446 0.238531 0.395582 -0.670597 
4060 2 -1176.04 3184.17 -521.359 0.905943 0.404059 0.0910954 -0.0877862 
4062 2 -1177.72 3167 -514.703 -0.0174758 -0.314425 -0.73737 0.597593 
4061 2 -1174.77 3176.41 -515.315 0.622632 0.356357 -0.522575 0.460711 
4049 2 -1124.71 3265.67 -535.032 -0.548713 -0.736419 -0.118581 0.377544 
4048 2 -1119.27 3273.57 -532.127 0.134473 -0.348409 -0.728287 0.574566 
4047 2 -1113.57 3281.48 -529.906 0.504674 0.282919 -0.775078 0.253998 
4018 1 -1085.04 3220.62 -566.956 -0.974184 0.0519092 -0.217224 -0.0329397 
4020 2 -1098.79 3264.33 -555.59 -0.433116 -0.313688 -0.459184 -0.709338 
4021 2 -1090.24 3267.67 -551.663 0.129914 -0.473089 0.038494 -0.870533 
4017 2 -1066.31 3178.41 -557.36 -0.10489 0.561474 0.816398 0.0850781 
4016 2 -1066.62 3175.56 -547.987 0.0392666 -0.281531 0.953 0.104831 
4015 2 -1066.06 3172.82 -538.453 0.0909519 -0.945076 0.28656 0.12823 
4022 2 -1081.71 3268.2 -546.636 0.701265 -0.192478 0.304376 -0.615252 
4019 3 -1073.56 3224.17 -534.179 -0.982087 0.0391856 -0.181563 -0.0316772 
4023 2 -1075.76 3267.31 -538.749 0.920271 0.158497 0.209826 0.289747 
4024 2 -1071.55 3265.4 -530.015 0.427157 0.187514 0.00481657 0.884507 
4014 2 -1068.04 3168.99 -529.539 0.10394 -0.821335 -0.537956 -0.158773 
4013 2 -1067.64 3165.37 -520.29 0.037819 0.0310637 -0.981349 -0.185903 
4025 2 -1068.05 3264.11 -520.907 -0.447269 0.0850205 0.02201 0.890077 
3951 2 -926.83 3153.02 -556.514 0.868756 -0.454743 -0.15633 0.118462 
3952 2 -931.187 3160.38 -551.504 0.344652 -0.385581 0.302576 0.800618 
3953 2 -935.098 3167.72 -546.225 -0.291933 0.0482251 0.456304 0.839188 
3954 2 -936.247 3175.36 -539.942 -0.878012 0.400245 0.0940776 0.245048 
3955 2 -935.626 3183.1 -533.724 -0.559084 0.317899 -0.288002 -0.709521 
3956 2 -937.041 3190.24 -526.942 0.0569641 -0.2871 -0.435247 -0.851404 
3957 2 -933.624 3198.48 -522.853 0.883188 -0.409874 -0.088262 -0.210218 
3958 2 -933.176 3206.56 -517.033 0.67354 -0.53015 0.304614 0.415325 
2688 2 -273.871 800.102 -371.153 0.47741 -0.221055 -0.794541 0.303183 
2684 2 -235.235 803.984 -374.619 -0.69002 -0.218766 0.636015 0.267392 
2685 2 -245.043 804.107 -373.433 -0.674867 0.343541 0.502655 -0.41698 
2686 2 -254.736 804.029 -371.258 0.0489419 0.683148 0.0420166 -0.727426 
2683 2 -225.817 801.674 -376.714 -0.242532 -0.569191 0.24492 0.746468 
2694 2 -328.637 787.091 -379.841 0.724491 0.448958 -0.434472 -0.291177 
2693 2 -319.628 790.555 -381.671 0.301361 0.635862 -0.0357165 -0.709638 
2689 2 -282.499 796.752 -374.563 -0.051533 -0.59819 -0.305444 0.739065 
2687 2 -264.309 802.256 -369.781 0.532763 0.528074 -0.575273 -0.326133 
2692 2 -309.878 791.386 -379.872 -0.391312 0.578435 0.489925 -0.521787 
2690 2 -291.279 792.291 -374.224 -0.278425 -0.743212 0.451043 0.408258 
2691 2 -300.069 791.377 -378.675 -0.623315 -0.0282028 0.780819 -0.0317018 
2682 2 -216.139 800.125 -378.251 0.48749 -0.539074 -0.378571 0.573094 
2709 2 -224.497 852.353 -365.022 0.779511 0.117081 0.584683 0.191834 
2708 2 -234.129 854.121 -366.022 0.528085 -0.371395 0.592873 -0.481346 
2710 2 -214.866 852.238 -362.826 0.291207 0.614663 0.369078 0.633379 
2707 2 -243.901 855.783 -366.001 -0.0603232 -0.708145 0.00541746 -0.703464 
2681 2 -206.773 799.348 -375.466 0.59734 -0.184399 -0.779995 0.0280963 
2711 2 -205.162 854.37 -363.72 -0.267247 0.770506 -0.176791 0.551039 
2680 2 -197.315 799.27 -372.509 0.439566 0.520398 -0.634443 -0.365307 
2679 2 -188.034 798.38 -369.122 -0.0954469 0.805511 0.026435 -0.584245 
2678 2 -179.528 793.927 -366.421 -0.599116 0.503185 0.60677 -0.14034 
2677 2 -171.09 789.613 -363.466 -0.505413 -0.0706453 0.792562 0.333784 
2676 2 -162.683 784.375 -362.968 0.0685545 -0.650128 0.297709 0.695703 
2712 2 -195.806 856.876 -366.21 -0.57577 0.455726 -0.671058 0.102388 
2675 2 -153.147 781.874 -362.501 0.486333 -0.582405 -0.471071 0.449863 
2748 2 -343.655 951.77 -405.406 -0.0786491 -0.517738 0.232606 0.819546 
2741 2 -287.112 914.815 -414.226 -0.192977 -0.439894 0.499523 0.720923 
2743 2 -303.225 925.923 -413.683 -0.624632 0.603751 0.331264 -0.368216 
2742 2 -294.642 921.028 -412.93 -0.660058 0.164402 0.698797 0.221309 
2744 2 -311.356 931.441 -412.79 -0.22012 0.604226 -0.195191 -0.740512 
2740 2 -278.752 909.456 -414.451 0.418396 -0.71472 -0.0543685 0.55782 
2739 2 -272.032 902.366 -412.542 0.608175 -0.520299 -0.598848 -0.0281525 
2738 2 -264.793 899.105 -406.619 0.365882 0.257836 -0.846701 -0.28766 
2737 2 -257.322 898.503 -400.224 0.0392479 0.868868 -0.218471 -0.442491 
2736 2 -248.79 899.963 -395.208 -0.238226 0.738151 0.425068 -0.466582 
2735 2 -240.651 903.398 -390.735 -0.466105 -0.0193178 0.861648 -0.199837 
2734 2 -232.227 905.085 -385.64 -0.399319 -0.595951 0.627273 0.303175 
2733 2 -224.636 907.241 -379.617 -0.0641331 -0.886919 -0.0761956 0.451062 
2745 2 -318.964 937.413 -410.779 0.429761 0.179305 -0.563864 -0.682065 
2746 2 -326.501 943.459 -408.885 0.64906 -0.362563 -0.662108 -0.0942454 
2747 2 -334.778 948.941 -408.896 0.527672 -0.527653 -0.240373 0.620778 
2750 3 -306.803 988.202 -408.128 0.795385 0.0115322 0.583074 -0.16509 
2749 1 -340.072 998.22 -412.614 0.773832 -0.046267 0.603752 -0.185813 
2732 2 -216.69 911.812 -376.084 0.179373 -0.527343 -0.648808 0.518442 
2731 2 -209.856 918.925 -376.949 0.611821 0.217784 -0.655995 0.384597 
2706 2 -253.469 858.43 -364.465 -0.535152 -0.611356 -0.530526 -0.241659 
2705 2 -262.893 860.919 -363.1 -0.620328 0.0788949 -0.748538 0.22059 
2713 2 -187.65 861.163 -369.562 -0.355889 -0.421991 -0.700745 -0.451909 
2714 2 -179.075 865.022 -372.68 0.15856 -0.723742 -0.185928 -0.645358 
2730 2 -207.683 928.388 -378.92 0.762028 0.633913 -0.121409 -0.0522282 
2729 2 -206.334 936.507 -384.343 0.455325 0.310341 0.312872 -0.773614 
2728 2 -200.491 940.709 -391.116 -0.400003 0.21447 0.363276 -0.813653 
2720 2 -126.35 890.056 -373.028 -0.44497 -0.173936 -0.775627 -0.412492 
2721 2 -117.677 894.329 -375.243 0.0254092 -0.733624 -0.334923 -0.590742 
2722 1 -136.221 932.679 -395.612 0.71283 0.124157 -0.627999 0.28649 
2724 2 -172.122 959.983 -409.37 0.75056 0.116859 -0.582683 0.288937 
2778 2 -105.803 981.529 -382.315 -0.568151 -0.623309 0.259368 0.470551 
2779 2 -114.319 976.501 -381.219 -0.709944 -0.205964 0.569028 -0.36023 
2780 2 -120.112 968.977 -378.384 -0.168246 0.282861 0.218376 -0.918692 
2781 2 -125.59 964.39 -371.364 0.46775 0.420763 -0.161723 -0.760272 
2782 2 -133.045 963.154 -364.996 0.860368 0.251616 -0.427613 -0.116636 
2725 2 -179.993 954.89 -406.001 0.0350854 -0.370493 -0.442322 0.815999 
2726 2 -186.789 948.475 -402.615 -0.632604 -0.495706 0.17427 0.568962 
2727 2 -194.581 944.075 -398.244 -0.927239 -0.142854 0.343794 -0.0403267 
2723 3 -164.458 914.693 -385.114 0.73714 0.141009 -0.600268 0.27644 
2719 2 -133.784 883.707 -371.815 -0.675338 0.491096 -0.549788 0.0218378 
2718 2 -143.096 880.274 -370.634 -0.324034 0.719576 -0.112737 0.603741 
2717 2 -151.862 875.667 -370.893 0.32702 0.398495 0.537343 0.667474 
2716 2 -160.759 871.73 -372.509 0.750591 -0.0970069 0.617983 0.212838 
2715 2 -170.229 869.376 -374.084 0.607518 -0.501437 0.448269 -0.422537 
2757 2 -269.85 1016 -399.011 -0.393658 -0.223988 -0.123138 -0.883006 
2758 2 -264.593 1016.84 -390.8 0.413643 -0.463121 0.174673 -0.764139 
2756 2 -274.667 1016.86 -407.568 -0.911279 -0.116821 -0.186937 -0.347818 
2755 2 -280.684 1022.15 -413.326 -0.705565 -0.0592666 -0.445826 0.547635 
2754 2 -288.931 1027.56 -413.128 -0.0490297 0.602793 -0.403865 0.686389 
2753 2 -297.862 1031.38 -414.912 0.487069 0.596013 0.271714 0.577671 
2759 2 -256.483 1019.37 -385.571 0.87794 -0.0904987 0.469933 0.013933 
2760 2 -248.331 1021.49 -380.41 0.243094 0.40436 0.497517 0.727925 
2761 2 -239.873 1025.94 -377.582 -0.399703 0.563446 -0.14945 0.707412 
2762 2 -230.672 1028.57 -374.533 -0.616555 0.177906 -0.725656 0.248259 
2751 2 -316.123 1038.81 -415.19 0.459312 -0.31992 0.605974 -0.565225 
2752 2 -307.334 1034.33 -415.245 0.711883 0.190446 0.675122 0.034097 
2763 2 -220.749 1028.44 -374.956 -0.573537 -0.288143 -0.556468 -0.527611 
2764 2 -211.2 1030.43 -373.002 0.170177 -0.665775 -0.268812 -0.674925 
2765 2 -202.923 1035.73 -373.29 0.530493 -0.676708 0.45177 -0.237798 
2776 1 -102.432 1026.65 -395.696 0.015938 -0.634187 -0.0794567 0.768921 
2777 3 -136.504 1022.56 -389.464 -0.0473413 -0.660033 -0.0315811 0.749078 
2766 2 -195.308 1040.97 -376.708 0.548003 -0.0366124 0.716797 0.429598 
2767 2 -188.023 1047.43 -376.46 0.0337059 0.624557 0.40518 0.6668 
2768 2 -179.315 1051.94 -377.648 -0.340386 0.755229 -0.293079 0.477359 
2771 2 -153.685 1061.82 -389.008 -0.0653353 -0.944044 0.0455433 -0.320059 
2769 2 -170.507 1054.99 -380.958 -0.580139 0.230095 -0.780035 -0.0451855 
2770 2 -161.859 1058.25 -384.668 -0.312258 -0.445156 -0.689684 -0.478191 
2772 2 -147.01 1061.07 -396.077 0.469728 -0.524706 0.677282 -0.212903 
2773 2 -138.319 1063.01 -400.496 0.565723 0.165333 0.746531 0.308731 
2774 2 -129.179 1065.94 -402.631 0.0963481 0.712881 0.347018 0.601744 
2775 2 -120.291 1069.26 -405.147 -0.413293 0.740524 -0.281305 0.449088 
2993 3 -217.476 1402.64 -508.198 0.971277 -0.183433 -0.149697 0.0237699 
2999 2 -221.606 1447.65 -504.755 0.0144375 -0.153323 0.0652797 0.985912 
3048 2 -276.819 1447.23 -491.89 0.879966 -0.26634 0.368633 -0.137233 
3049 2 -270.452 1451.58 -485.767 0.646981 -0.00996117 0.490168 0.583996 
3050 2 -264.653 1456.51 -479.345 -0.13694 0.250985 0.321039 0.902878 
3000 2 -224.135 1449.02 -495.239 -0.882041 0.08698 0.0684291 0.457991 
2982 2 -214.85 1415.69 -450.487 -0.164383 -0.813486 0.446979 -0.333809 
2983 2 -211.213 1409.83 -457.77 0.00874827 -0.0257771 0.93645 -0.349744 
3001 2 -222.896 1451.53 -485.827 -0.922239 0.107282 -0.25401 -0.271008 
2984 2 -210.816 1402.28 -464.356 0.297624 0.796067 0.45872 -0.259369 
2986 2 -212.631 1389.94 -479.996 0.0585258 0.154014 -0.927342 0.335994 
2987 2 -211.897 1383.93 -487.775 -0.413385 -0.601963 -0.662775 0.165781 
2985 2 -211.414 1395.64 -471.797 0.260652 0.851041 -0.442896 0.107858 
2980 2 -217.883 1429.57 -437.381 -0.331252 -0.429622 -0.744199 0.389699 
2979 2 -217.325 1438.79 -433.884 0.185932 0.247673 -0.806551 0.50355 
2978 2 -215.917 1447.39 -428.92 0.499993 0.814855 -0.275953 0.099337 
2981 2 -216.648 1421.32 -442.504 -0.344775 -0.931987 -0.0220359 -0.109749 
2977 2 -212.204 1455.29 -424.293 0.315941 0.751701 0.361011 -0.452546 
3002 2 -219.287 1454.38 -477.142 -0.25511 -0.223958 -0.459822 -0.820564 
3051 2 -259.992 1462.49 -472.849 -0.769284 0.514645 -0.0798266 0.370095 
3003 2 -213.567 1459.94 -471.37 0.436594 -0.434374 0.066522 -0.785035 
2988 2 -208.315 1377.01 -493.879 -0.500973 -0.863986 0.0146378 -0.0483712 
2989 2 -208.329 1368.57 -499.019 -0.215682 -0.591514 0.643891 -0.434738 
2991 2 -203.569 1352.6 -509.285 0.444048 0.714699 0.519603 -0.14846 
2990 2 -206.774 1360.11 -503.842 0.239723 0.120289 0.87844 -0.395483 
2976 2 -208.154 1463.48 -420.456 -0.112214 0.128806 0.840527 -0.514133 
3035 2 -162.631 1467.51 -504.805 -0.0762187 0.691473 -0.304527 -0.65063 
3034 2 -155.075 1461.78 -502.141 -0.577488 0.705937 0.326458 -0.248164 
2940 2 -189.377 1339.29 -453.138 0.563753 0.104355 0.143467 0.806666 
2941 2 -186.131 1340.41 -443.95 -0.360048 0.0692739 -0.000244863 0.930358 
2938 1 -179.556 1385.38 -453.737 -0.317872 -0.216623 0.0944269 -0.918213 
2942 2 -184.092 1341.05 -434.315 -0.949136 -0.0868613 -0.091693 0.288426 
2943 2 -181.329 1339.86 -424.956 -0.834083 0.044504 0.0796959 -0.544034 
2944 2 -183.056 1339.89 -415.197 -0.149538 0.140127 -0.0355501 -0.97813 
2939 3 -165.673 1374.62 -423.403 -0.316955 -0.245215 0.0560226 -0.914478 
3024 2 -97.6814 1389.09 -483.445 0.406056 -0.853598 -0.210435 0.24941 
3025 2 -103.879 1393.8 -489.561 0.0716167 -0.709151 0.569352 0.409652 
3026 2 -108.409 1399.92 -495.884 -0.405596 0.0807307 0.739625 0.530971 
3019 1 -93.4488 1394.32 -428.155 -0.468634 0.844696 0.25564 -0.03897 
3023 2 -88.9318 1385.7 -480.125 0.561457 -0.275969 -0.779644 -0.027619 
3020 3 -102.588 1417.41 -452.967 -0.444704 0.867401 0.178788 -0.133749 
3022 2 -83.4606 1378.55 -475.858 0.140929 0.357192 -0.773541 -0.50417 
3021 2 -81.3741 1372.6 -468.338 -0.250671 0.858072 -0.342436 -0.289161 
2937 2 -162.925 1425.28 -434.768 0.144106 -0.322116 -0.922079 -0.158886 
2936 2 -160.779 1421.14 -426.032 -0.0530791 0.542218 -0.797187 -0.260145 
2935 2 -157.264 1416.63 -417.926 -0.239877 0.951033 -0.061341 -0.185018 
2934 2 -156.988 1413.26 -408.575 -0.145389 0.746766 0.639809 0.10884 
2933 2 -156.584 1411.36 -398.722 0.0141942 -0.0344996 0.996859 0.0698672 
2945 2 -184.896 1339.96 -405.556 0.704411 -0.132113 -0.11846 -0.687254 
2946 2 -184.615 1343.55 -396.301 0.971064 -0.235217 -0.0220184 0.0349648 
2932 2 -154.987 1407.97 -389.598 0.111497 -0.893927 0.399644 0.169552 
2947 2 -183.654 1348.29 -387.641 0.466109 -0.0565189 0.461654 0.752612 
3027 2 -112.784 1408.67 -497.261 -0.566573 0.628276 0.529008 -0.0664496 
3018 2 -110.701 1430.54 -403.333 0.786556 0.342956 0.12156 -0.498932 
3028 2 -119.173 1415.41 -500.723 -0.460091 0.675179 -0.185509 -0.545927 
3017 2 -109.329 1436.35 -411.223 0.0897798 0.114985 0.330701 -0.932392 
3016 2 -112.542 1442.78 -417.936 -0.549554 -0.390498 0.184058 -0.715279 
3015 2 -114.822 1447.4 -426.23 -0.95776 -0.2487 -0.114535 -0.0878999 
3011 2 -142.793 1454.24 -451.338 0.706367 -0.113038 0.512477 -0.475011 
3014 2 -120.752 1451.82 -432.886 -0.637871 0.0324046 -0.348698 0.685916 
3012 2 -134.185 1451.92 -447.023 0.815864 0.12249 0.344774 0.447764 
3013 2 -127.366 1453.03 -440.028 0.119832 0.367039 0.00790135 0.922421 
3029 2 -124.71 1423.59 -500.195 0.141643 0.16012 -0.693691 -0.687816 
2948 2 -180.586 1355.21 -381.147 -0.27949 0.101498 0.406996 0.863677 
2931 2 -152.918 1405.91 -380.25 0.17901 -0.918529 -0.340217 0.0922651 
3010 2 -152.325 1455.94 -453.259 0.126593 -0.56258 0.221371 -0.78643 
3030 2 -128.871 1432.56 -499.394 0.714059 -0.457736 -0.527416 -0.0492887 
2930 2 -150.479 1405.29 -370.79 0.186699 -0.198578 -0.961063 -0.0454835 
3031 2 -135.277 1440.13 -499.085 0.473068 -0.647364 0.155448 0.577029 
3032 2 -141.869 1447.57 -498.948 -0.158392 -0.281875 0.659871 0.678254 
3033 2 -147.726 1455.46 -500.141 -0.592103 0.270454 0.702937 0.286616 
2949 2 -180.435 1363.13 -375.348 -0.706276 0.570194 0.327528 0.262255 
2950 2 -182.856 1372.71 -373.842 -0.580305 0.582875 -0.227268 -0.521395 
3009 2 -160.293 1461.54 -455.243 -0.480614 -0.62168 -0.0421389 -0.617048 
3008 2 -169.419 1464.11 -458.082 -0.812828 -0.216102 -0.540473 0.022333 
3004 2 -206.26 1462.93 -465.312 0.863251 -0.190356 0.386898 -0.262436 
3005 2 -198.552 1464.48 -459.451 0.505804 0.389597 0.618345 0.458286 
3007 2 -178.711 1466.73 -459.897 -0.538612 0.337985 -0.505067 0.583584 
3006 2 -188.7 1466.23 -459.595 -0.0282422 0.698205 0.0908416 0.709549 
2951 2 -185.642 1381.86 -371.884 -0.035397 0.119 -0.424057 -0.897085 
2952 2 -187.191 1389.75 -365.904 0.542276 -0.254102 -0.365153 -0.712763 
2929 2 -146.823 1402.38 -362.032 0.0875648 0.579451 -0.778722 -0.223967 
3052 2 -254.432 1469.18 -468.197 -0.734854 0.285967 -0.448219 -0.421085 
3047 3 -239.776 1481.8 -503.485 -0.486444 -0.266968 -0.217602 -0.802963 
3053 2 -250.739 1477.85 -465.071 0.0802674 -0.0451138 -0.499363 -0.861486 
3054 2 -250.685 1486.55 -460.344 0.740457 -0.445052 -0.19563 -0.464091 
3055 2 -249.812 1495 -455.091 0.770357 -0.585537 0.0470923 0.24795 
3056 2 -251.717 1504.37 -452.6 0.319791 -0.29047 0.635033 0.640385 
3057 2 -251.728 1514.08 -451.293 -0.221563 0.236407 0.509911 0.796877 
3058 2 -251.653 1522.66 -446.449 -0.865565 0.371852 0.244745 0.229398 
3059 2 -253.646 1530.24 -440.261 -0.732756 0.45845 -0.256493 -0.432555 
3060 2 -253.621 1538.85 -435.567 -0.0518745 0.0284614 -0.597415 -0.799746 
3061 2 -254.454 1547.91 -431.698 0.535587 -0.367635 -0.241219 -0.720974 
3062 2 -253.065 1555.79 -425.908 0.91061 -0.342779 0.22737 0.0399424 
3063 2 -249.514 1562.07 -419.096 0.61438 0.0522162 0.456625 0.64133 
3064 2 -243.077 1567.57 -414.225 -0.0496676 0.488614 0.306331 0.815445 
3065 2 -235.74 1573.35 -411.183 -0.693325 0.495822 -0.202326 0.482209 
3066 2 -228.98 1578.95 -406.464 -0.847462 0.0051238 -0.523937 -0.0852821 
3067 2 -220.466 1581.27 -402.041 -0.422267 -0.308983 -0.285252 -0.803027 
3068 2 -212.842 1582.63 -395.962 0.282389 -0.521857 0.0985892 -0.798875 
3074 3 -231.411 1605.44 -361.87 0.336992 0.518333 -0.775917 -0.12538 
3037 2 -179.361 1475.7 -511.188 0.551383 -0.486 -0.676879 0.0401977 
3036 2 -171.382 1471.49 -507.371 0.450777 0.13063 -0.835083 -0.287006 
2975 2 -205.308 1471.86 -416.117 -0.458655 -0.592071 0.611996 -0.254065 
2974 2 -200.168 1479.75 -412.926 -0.493009 -0.793067 -0.0897677 0.346307 
3069 2 -204.165 1584.55 -391.513 0.861594 -0.181079 0.391739 -0.267222 
3070 2 -196.41 1586.91 -385.791 0.719997 0.14286 0.256809 0.628685 
3071 2 -190.745 1587.49 -377.64 0.00408861 0.363961 -0.0564521 0.929693 
2973 2 -192.723 1485.96 -411.399 0.123982 -0.480076 -0.566302 0.658376 
2972 2 -186.744 1493.17 -408.383 0.526352 0.133725 -0.74688 0.38372 
2971 2 -182.682 1500.87 -403.839 0.482296 0.841535 -0.208623 -0.125246 
2970 2 -177.3 1509.12 -402.664 0.248837 0.62356 0.442699 -0.594366 
2969 2 -176.521 1515.77 -395.328 -0.0593239 -0.13206 0.914406 -0.378024 
2968 2 -174.844 1522.42 -388.406 -0.325128 -0.763017 0.535277 -0.159923 
2967 2 -173.019 1531.33 -384.48 -0.490267 -0.789333 -0.27206 0.250148 
3072 2 -183.73 1586.69 -370.771 -0.674417 0.216811 -0.284674 0.645845 
3100 1 -400.295 1750.05 -391.446 0.743428 0.150667 0.42628 0.492848 
3101 3 -373.177 1753 -369.452 0.73325 0.211907 0.444448 0.468941 
3099 2 -362.953 1743.3 -419.418 -0.0530629 0.954907 -0.072176 -0.283069 
3098 2 -357.411 1741.88 -411.398 -0.275213 0.539356 0.790366 -0.0931344 
3083 2 -296.508 1633.09 -363.782 -0.458602 0.227947 0.814706 0.271991 
3084 2 -303.334 1638.43 -368.373 -0.705741 0.636643 0.303978 0.0649078 
3085 2 -307.151 1647.55 -368.92 -0.536974 0.64215 -0.314132 -0.447911 
3097 2 -351.8 1739.42 -403.583 -0.283852 -0.17764 0.911312 0.239547 
3096 2 -346.152 1735.96 -396.081 -0.0404786 -0.781821 0.511312 0.354509 
3095 2 -340.52 1730.36 -390.141 0.31838 -0.887078 -0.0684162 0.327179 
3086 2 -309.759 1657.01 -369.819 -0.17766 0.162946 -0.789677 -0.564177 
3094 2 -335.01 1725.88 -383.391 0.435719 -0.462145 -0.770812 -0.0491894 
3093 2 -327.404 1720.97 -379.546 0.354095 0.287951 -0.738664 -0.496061 
3092 2 -323.782 1712.92 -375.05 -0.318175 0.76802 -0.380481 -0.405148 
3091 2 -319.373 1704.17 -373.338 -0.68474 0.682149 0.243476 -0.080767 
3087 2 -309.325 1666.46 -372.607 0.458239 -0.459693 -0.522711 -0.552696 
3088 2 -309.377 1676.29 -372.632 0.733405 -0.67041 -0.0548137 0.0983043 
3090 2 -315.619 1695.06 -372.015 -0.357544 0.158724 0.737361 0.550697 
3089 2 -312.114 1685.74 -371.809 0.302223 -0.522795 0.477938 0.637905 
3288 2 -218.155 1884.72 -367.752 -0.204555 0.296882 -0.909699 0.206072 
3345 2 -153.568 2070.97 -410.062 -0.613986 0.357902 0.563416 0.421296 
3424 1 -416.9 2182.79 -377.632 -0.74172 0.320076 -0.584287 0.0775354 
3422 2 -386.446 2145.88 -361.578 0.043579 0.821209 0.212845 -0.527649 
3423 2 -394.525 2142.84 -366.302 0.465932 0.648908 -0.545577 -0.25332 
3426 2 -419.49 2229.51 -383.545 -0.885987 0.109162 -0.242078 0.380142 
3425 3 -384.291 2193.74 -370.19 -0.724961 0.388771 -0.568366 0.0157626 
3429 2 -399.816 2230.08 -362.07 0.712465 -0.31984 0.376495 -0.498344 
3427 2 -414.075 2230.2 -375.385 -0.723478 -0.185866 -0.363394 -0.556757 
3397 1 -295.184 2160.25 -508.161 -0.944327 0.168424 -0.198479 -0.201209 
3396 2 -262.771 2127.13 -499.463 0.196943 0.845603 0.0818829 -0.489351 
3395 2 -254.718 2131.3 -495.645 -0.266203 0.432303 0.712254 -0.484711 
3394 2 -245.598 2134.54 -493.147 -0.556658 -0.29251 0.777029 -0.0281974 
3398 3 -284.008 2168.44 -476.149 -0.946834 0.106018 -0.175223 -0.248119 
3393 2 -238.048 2140.54 -491.37 -0.526207 -0.716163 0.239103 0.391211 
3415 2 -326.156 2170.74 -375.77 0.380967 0.489104 0.156737 -0.768814 
3392 2 -233.967 2149.43 -489.972 -0.19307 -0.486569 -0.590869 0.61388 
3391 2 -229.764 2157.5 -486.169 0.328793 0.197448 -0.82278 0.419454 
3414 2 -319.573 2177.46 -378.614 -0.474533 0.177727 0.573457 -0.643723 
3413 2 -311.162 2181.69 -381.511 -0.818435 -0.290633 0.477683 0.132342 
3412 2 -302.127 2182.99 -385.288 -0.349334 -0.500701 0.17674 0.772028 
3411 2 -296.073 2184.16 -392.953 0.373706 -0.31936 -0.23932 0.837305 
3410 2 -293.479 2187.24 -402.028 0.947741 0.0673665 -0.0551908 0.306923 
3409 2 -292.292 2190.67 -411.228 0.838901 0.142801 0.0209156 -0.524801 
3408 2 -292.039 2196.04 -419.347 0.0913429 -0.0010391 0.212001 -0.972991 