ITEM: TIMESTEP
100000000
ITEM: NUMBER OF ATOMS
4067
ITEM: BOX BOUNDS pp pp pp
-4.6310929470000001e+03 4.6704658980000004e+03
-4.6310929470000001e+03 4.6704658980000004e+03
-4.6310929470000001e+03 4.6704658980000004e+03
ITEM: ATOMS id type x y z c_q[1] c_q[2] c_q[3] c_q[4] 
3986 2 -680.103 2838.35 -721.625 -0.420401 0.363247 -0.831004 -0.0273404 
3985 2 -686.445 2835.9 -714.546 -0.175322 0.926845 -0.130232 0.305384 
3984 2 -691.908 2835.85 -706.383 0.151842 0.76854 0.570279 0.24713 
3983 2 -696.387 2839.99 -698.491 0.267205 0.113653 0.937847 -0.190072 
3991 1 -708.013 2839.9 -776.415 -0.802216 0.0662595 -0.108288 -0.583381 
3987 2 -673.238 2841.1 -728.265 -0.153391 -0.41647 -0.887304 -0.125363 
3980 2 -713.863 2847.7 -676.653 -0.262648 -0.547473 -0.776311 -0.169204 
3993 2 -754.665 2847.16 -777.034 -0.0881736 -0.0246216 -0.438654 -0.893981 
3994 2 -755.015 2854.87 -770.818 0.673724 -0.256721 -0.254647 -0.644473 
3981 2 -708.449 2847.32 -684.776 -0.1924 -0.951586 0.00560347 -0.239655 
3982 2 -703.27 2843.24 -692.148 0.193268 -0.567935 0.693707 -0.398582 
3988 2 -670.138 2842.38 -737.612 -0.0206519 -0.969135 -0.233402 -0.0766422 
3992 3 -714.454 2854.04 -744.908 -0.841075 0.180857 -0.0623754 -0.505957 
4008 2 -781.988 2976.91 -734.717 0.663281 -0.27864 -0.528768 -0.450359 
4007 2 -780.35 2967.52 -737.191 -0.0688917 0.0993823 -0.585857 -0.801342 
3996 2 -753.982 2869.85 -758.367 0.42433 -0.24674 0.509089 0.70703 
3995 2 -754.98 2861.63 -763.865 0.902788 -0.417418 0.0929266 0.0458223 
4005 2 -772.63 2949.91 -741.775 -0.76051 0.588473 0.265454 -0.0697037 
4006 2 -777.359 2958.44 -740.108 -0.566748 0.545504 -0.303195 -0.537861 
4004 2 -766.428 2942.21 -742.468 -0.55929 0.114199 0.688225 0.447772 
4003 2 -760.658 2934.94 -745.94 0.0656192 -0.346511 0.431108 0.830524 
4002 2 -756.213 2926.08 -746.729 0.583998 -0.716081 0.0264671 0.381411 
4001 2 -752.654 2916.9 -745.849 0.562954 -0.417956 -0.602693 -0.380994 
4000 2 -752.226 2907.03 -746.18 -0.136637 0.155294 -0.665596 -0.717075 
3999 2 -753.058 2897.4 -748.283 -0.708355 0.502698 -0.323118 -0.375662 
3998 2 -753.128 2888.19 -751.478 -0.823552 0.53816 0.0990211 0.149467 
3997 2 -752.27 2879.04 -755.072 -0.412874 0.247403 0.503637 0.71741 
4009 2 -785.424 2985.14 -730.486 0.767061 -0.497019 0.147268 0.378023 
3989 2 -668.623 2842.85 -747.387 0.065422 -0.679367 0.716673 -0.14339 
3979 2 -715.225 2848.7 -666.811 -0.0346497 0.213387 -0.975882 0.0303346 
3990 2 -665.248 2842.13 -756.592 0.166229 0.0517253 0.984271 -0.0300478 
4020 2 -820.118 3107.83 -701.083 0.641252 0.307197 0.638853 0.293758 
4018 1 -819.178 3066.3 -678.722 -0.33228 0.316652 -0.88108 0.114102 
4010 2 -787.181 2993.81 -725.991 0.161156 -0.175148 0.360402 0.901921 
4011 2 -788.672 3001.14 -719.49 -0.619163 0.281387 0.2198 0.69939 
4012 2 -787.845 3008.22 -712.744 -0.93015 0.332027 0.144215 0.0614999 
4021 2 -810.29 3107.96 -700.324 0.173254 0.584481 0.276237 0.743006 
4016 2 -796.838 3022.84 -679.11 0.852918 -0.0835422 -0.411564 0.310106 
4015 2 -793.663 3022.49 -688.532 0.848788 0.095605 -0.114697 -0.50721 
4014 2 -790.516 3020.22 -697.502 0.173335 0.16154 -0.146148 -0.960469 
4022 2 -800.569 3108.52 -698.199 -0.571961 0.55674 -0.198016 0.568938 
4013 2 -790.278 3014.66 -705.661 -0.661714 0.238182 -0.189098 -0.685308 
4019 3 -796.861 3061.58 -705.383 -0.349966 0.262507 -0.897974 0.0475046 
4024 2 -783.885 3117.39 -692.287 -0.582314 -0.243966 -0.53643 -0.56003 
4025 2 -775.211 3120.99 -689.46 0.140137 -0.777645 -0.241107 -0.563468 
4026 2 -766.709 3125.24 -692.209 0.576688 -0.659468 0.422786 -0.231915 
4027 2 -758.593 3130.44 -694.522 0.681158 0.0139887 0.683874 0.261047 
4023 2 -792.14 3113.25 -695.996 -0.832071 0.247101 -0.49658 0.0028076 
4028 2 -749.342 3133.99 -694.074 0.378543 0.57661 0.36758 0.623788 
4029 2 -739.507 3134.72 -693.536 -0.2773 0.582609 -0.0756126 0.760233 
4030 2 -730.487 3136.83 -690.318 -0.684467 0.423774 -0.580242 0.123451 
4031 2 -721.443 3140.66 -689.717 -0.581112 -0.276371 -0.661263 -0.385564 
4017 2 -804.316 3021.92 -672.619 0.41678 -0.377204 -0.227578 0.795122 
4032 2 -711.778 3142.87 -690.445 -0.0878886 -0.572874 -0.266099 -0.770249 
4052 2 -573.678 3114.8 -686.107 0.0762066 0.343852 -0.831204 -0.430184 
4053 2 -577.404 3121.54 -692.285 0.45153 -0.507205 -0.722764 -0.12836 
4054 2 -582.759 3127.49 -698.1 0.225016 -0.946551 -0.0998444 0.208423 
4055 2 -587.224 3131.34 -706.024 0.0581915 -0.783756 0.605769 0.124034 
4056 2 -589.569 3134.03 -715.337 -0.178378 -0.0546589 0.975794 0.114104 
4057 2 -593.309 3135.77 -724.254 -0.113676 0.6873 0.699915 -0.157528 
4058 2 -597.77 3134.77 -732.99 0.0898733 0.962644 -0.0451627 -0.251396 
4059 2 -602.554 3132.61 -741.36 0.202211 0.560669 -0.767387 -0.236385 
4060 2 -608.369 3134.05 -749.13 0.216265 -0.194268 -0.948861 -0.123091 
4061 2 -611.667 3137.03 -757.879 0.0819454 -0.897475 -0.42845 0.0652258 
4062 2 -613.103 3136.73 -767.567 0.143171 -0.878047 0.452149 0.0639987 
4063 2 -613.068 3139.33 -777.082 0.147782 -0.372365 0.91147 0.093416 
4064 2 -610.016 3141.74 -786.088 -0.070662 0.415985 0.905466 0.0457752 
4065 2 -610.967 3143.78 -795.615 -0.0892755 0.974202 0.132875 -0.159073 
4051 2 -569.864 3109.68 -678.539 -0.226678 0.891238 -0.288544 -0.266561 
4050 2 -566.108 3109.48 -669.481 -0.0796141 0.856937 0.469024 -0.198337 
4033 2 -702.517 3146 -688.721 0.459664 -0.590267 0.412592 -0.519674 
4034 2 -692.676 3146.87 -689.318 0.692283 0.0456704 0.705042 0.146882 
4035 2 -682.887 3148.43 -689.024 0.224052 0.424557 0.339735 0.808784 
4036 2 -674.311 3152.02 -685.663 -0.492748 0.64482 -0.124864 0.570803 
4066 2 -614.532 3145.73 -804.612 0.242132 0.656131 -0.636956 -0.324271 
4067 2 -621.456 3147.46 -811.556 0.419657 -0.140069 -0.896217 0.0326021 
4037 2 -665.909 3156.88 -683.797 -0.789092 0.423575 -0.44486 0.00406119 
4038 2 -658.257 3163.01 -681.966 -0.541193 -0.0455025 -0.453016 -0.706977 
4039 2 -651.721 3167.73 -676.165 0.236187 -0.406455 -0.0584543 -0.880678 
4040 2 -644.501 3170.74 -670.164 0.810999 -0.445124 0.241091 -0.293291 
3073 1 -162.88 1442.99 -549.841 0.872521 -0.0882556 -0.479959 0.0236044 
3074 3 -190.462 1444.27 -528.397 0.883771 -0.0545991 -0.463656 0.0314769 
3072 2 -157.858 1404.5 -523.08 0.097015 -0.840022 0.162788 -0.50838 
3071 2 -166.546 1405.24 -518.252 -0.342405 -0.668473 -0.546479 -0.37049 
3080 2 -207.641 1489.84 -520.579 -0.177314 0.0640615 -0.295019 -0.936707 
3079 2 -204.018 1486.17 -529.115 -0.822273 0.239863 0.0655808 -0.511891 
3078 2 -200.807 1486.09 -538.349 -0.974475 -0.0554097 0.130542 0.174034 
3075 2 -184.232 1483.1 -562.488 0.93152 -0.0578706 -0.321642 -0.159584 
3076 2 -190.333 1484.73 -554.805 0.641734 -0.314412 -0.0720946 0.69579 
3077 2 -195.415 1486.86 -546.538 -0.339432 -0.306009 0.0434478 0.888401 
3134 2 -223.583 1720.63 -518.729 -0.728942 0.0196767 0.163053 0.664583 
3133 2 -222.586 1717.03 -527.92 -0.0172761 -0.0597491 0.184553 0.980852 
3132 2 -220.501 1714.39 -537.294 0.836648 -0.185805 -0.000619814 0.515263 
3130 2 -216.711 1724.03 -553.985 0.433081 0.21797 0.139194 -0.863455 
3131 2 -219.774 1719.35 -545.78 0.925886 0.23208 0.0612162 -0.291765 
3129 2 -212.018 1728.87 -561.313 -0.403758 0.145185 0.343996 -0.835205 
3127 1 -190.009 1758.71 -532.112 0.386588 0.341474 -0.432518 0.739508 
3128 3 -183.605 1727.43 -517.865 0.390703 0.341677 -0.43588 0.735266 
3451 1 -434.014 2000.21 -532.384 0.944562 -0.131364 0.210748 -0.214781 
3453 2 -428.884 2047.08 -530.717 -0.808873 -0.265771 -0.408199 -0.329338 
3454 2 -420.597 2046.24 -525.518 -0.255067 -0.447395 -0.140469 -0.845605 
3455 2 -412.442 2045.93 -520.053 0.562124 -0.301587 0.23396 -0.733706 
3610 2 -672.68 2372.39 -585.428 -0.26112 -0.209302 0.938972 0.0796277 
3611 2 -677.555 2371.93 -593.909 -0.295274 0.575003 0.715055 -0.266234 
3612 2 -684.507 2371.94 -600.857 0.0166649 0.92478 0.0373049 -0.378302 
3609 2 -669.607 2379.41 -579.136 -0.425321 -0.842436 0.325157 0.0606327 
3575 2 -559.323 2375.4 -518.889 0.569755 -0.584796 0.574185 -0.0608671 
3576 2 -552.394 2380.93 -523.235 0.405747 0.107182 0.890524 0.175637 
3577 2 -544.169 2383.07 -528.239 0.188865 0.665963 0.469039 0.548475 
3614 3 -687.022 2387.37 -551.374 0.884817 0.322267 0.282371 0.183055 
3613 1 -709.449 2401.71 -574.144 0.891815 0.301718 0.288885 0.173718 
3615 2 -720.872 2422.51 -533.332 -0.89807 -0.170202 -0.401607 -0.0566926 
3616 2 -713.415 2418.73 -528.137 -0.596943 -0.482322 -0.0575667 -0.638522 
3617 2 -707.071 2414.09 -521.992 0.257355 -0.378991 0.30943 -0.833299 
3618 2 -699.962 2410.83 -515.89 0.868329 -0.136514 0.390989 -0.27294 
3608 2 -665.578 2386.43 -573.389 -0.215981 -0.794229 -0.429738 0.37132 
3607 2 -661.264 2390.97 -565.598 0.156385 -0.17946 -0.91899 0.314317 
3606 2 -655.499 2393.65 -558.003 0.308217 0.671644 -0.649377 -0.179462 
3605 2 -647.575 2395.5 -552.343 0.0591557 0.876912 0.125933 -0.460073 
3604 2 -639.726 2398.27 -547.054 -0.334514 0.445318 0.730074 -0.395959 
3603 2 -632.257 2403.82 -543.69 -0.527426 -0.378024 0.756226 -0.0839121 
3602 2 -625.935 2411.03 -546.424 -0.64108 -0.585262 0.00656945 0.496429 
3590 2 -556.898 2493.31 -525.991 0.0128329 0.398746 0.417444 -0.816442 
3591 2 -562.898 2486.55 -522.214 0.505395 0.557832 0.212418 -0.623119 
3592 2 -567.972 2478.6 -519.407 0.735494 0.656903 -0.164422 0.0221861 
3587 3 -536.459 2454.19 -542.431 0.622777 0.441507 -0.644066 -0.0489768 
3589 2 -550.061 2498.32 -531.057 -0.714527 0.0907595 0.480445 -0.500387 
3588 2 -543.06 2504.86 -533.784 -0.766264 -0.51031 0.358246 0.155185 
3601 2 -617.361 2415.5 -544.49 0.139889 -0.631148 -0.464282 0.605414 
3578 2 -535.315 2386.02 -531.16 -0.354107 0.769238 -0.165541 0.505447 
3600 2 -610.474 2422.54 -543.024 0.489766 0.0596387 -0.735439 0.464437 
3599 2 -602.944 2428.46 -540.565 0.606227 0.628251 -0.46839 -0.135648 
3598 2 -594.641 2432.4 -536.711 0.160702 0.844566 0.0508715 -0.508227 
3597 2 -587.475 2437.86 -532.372 -0.230029 0.389875 0.755684 -0.473314 
3595 2 -576.528 2450.62 -522.283 -0.476023 -0.815031 0.181939 0.275727 
3596 2 -582.267 2443.69 -526.404 -0.466032 -0.396166 0.759065 -0.222905 
3593 2 -570.689 2469.12 -518.253 0.337086 0.120972 -0.779853 0.513389 
3594 2 -573.394 2459.84 -520.562 -0.411502 -0.60483 -0.480848 0.483355 
3579 2 -526.177 2389.51 -533.11 -0.564916 0.565203 -0.599554 -0.0441683 
3580 2 -519.759 2396.31 -536.417 -0.37762 -0.0642637 -0.765758 -0.516612 
3581 2 -513.318 2403.53 -538.294 0.281472 -0.664936 -0.298338 -0.624202 
3582 2 -506.847 2410.93 -539.068 0.621429 -0.71386 0.284359 -0.152871 
3586 1 -507.906 2473.72 -537.768 0.643527 0.395411 -0.653335 -0.0517318 
3584 2 -496.843 2427.38 -542.371 0.224995 0.47042 0.745951 0.414293 
3585 2 -490.288 2431.27 -548.516 -0.211515 0.905752 0.0150474 0.366944 
3583 2 -501.142 2418.75 -540.466 0.462081 -0.211329 0.761134 0.403109 
3828 2 -693.146 2609.28 -553.241 -0.0435202 0.871707 0.366736 -0.322084 
3829 1 -726.743 2582.05 -534.257 0.508041 -0.111461 0.398839 0.755247 
3827 2 -687.202 2609.98 -545.359 -0.294193 0.273048 0.906861 -0.128446 
3826 2 -681.751 2609.04 -537.126 -0.254835 -0.472561 0.821233 0.19319 
3825 2 -677.913 2611.59 -528.329 -0.16259 -0.945238 0.204834 0.195276 
3824 2 -678.363 2614 -518.696 -0.0590621 -0.781946 -0.615637 0.0778656 
3905 2 -839.167 2790.03 -596.028 0.337449 -0.647101 -0.683515 0.0139892 
3904 2 -835.204 2785.53 -588.164 0.180337 0.123773 -0.939895 -0.262215 
3903 2 -834.634 2780.81 -579.509 -0.197799 0.737224 -0.624234 -0.166462 
3906 2 -843.206 2794.65 -603.871 0.306606 -0.858595 -0.255495 0.321759 
3907 2 -850.017 2798.8 -609.63 -0.0288365 -0.669366 0.472589 0.572519 
3908 2 -857.903 2803.44 -613.382 -0.362299 -0.261775 0.851999 0.2726 
3909 2 -865.313 2806.13 -619.519 -0.408257 0.552783 0.714375 -0.132003 
3902 2 -833.534 2777.07 -570.354 -0.254186 0.953521 0.157351 -0.0377781 
3901 2 -833.249 2777.17 -560.429 -0.0403058 0.571302 0.819703 -0.00875201 
3900 2 -834.392 2775.78 -550.705 0.0846389 -0.250983 0.961955 0.066977 
3899 2 -839.402 2776.59 -542.175 0.056919 -0.884807 0.360533 -0.289643 
3911 3 -844.011 2831.92 -579.737 -0.835426 -0.247132 -0.486899 0.0625941 
3898 2 -843.445 2776.41 -533.104 -0.0929361 -0.83633 -0.499788 -0.205248 
3897 2 -848.147 2778.8 -524.799 -0.309846 -0.176463 -0.926485 0.120343 
3896 2 -852.749 2783.65 -517.566 0.0522176 0.615441 -0.688549 0.380007 
3967 2 -698.136 2826.47 -567.334 0.249693 -0.730826 -0.57228 0.275757 
3966 2 -691.646 2825.7 -559.955 0.31663 0.0165216 -0.94618 -0.0649314 
3969 2 -713.575 2824.87 -579.574 -0.285668 -0.360811 0.82068 0.338664 
3968 2 -705.824 2825.93 -573.393 -0.182145 -0.88918 0.198378 0.369904 
3965 3 -683.256 2827.94 -611.244 0.116588 0.660896 -0.599821 -0.435705 
3970 2 -721.009 2826.45 -585.886 -0.359381 0.478573 0.796063 0.0899819 
3959 2 -667.299 2838.42 -633.613 0.222046 0.848174 -0.166905 0.451042 
3971 2 -726.032 2830.83 -593.218 -0.292596 0.955878 0.0210687 -0.0155229 
3972 2 -726.454 2836.45 -601.298 -0.0563945 0.609926 -0.778776 -0.135341 
3973 2 -726.872 2839.06 -610.845 0.20311 -0.265615 -0.93623 -0.108019 
3960 2 -660.258 2832.9 -637.908 -0.407835 0.340986 -0.662702 0.52747 
3961 2 -651.985 2827.89 -639.605 -0.826833 -0.38603 -0.409057 0.000713666 
3964 1 -657.767 2815.02 -590.943 0.125028 0.613672 -0.631161 -0.457613 
3962 2 -644.629 2822.11 -636.032 -0.587534 -0.622955 0.0395785 -0.514941 
3963 2 -638.545 2814.54 -634.009 0.140531 -0.330266 0.498155 -0.789314 
3910 1 -872.273 2845.79 -594.831 -0.858765 -0.259819 -0.4412 -0.0189564 
3912 2 -863.567 2875.22 -558.98 -0.421137 -0.584159 -0.0914837 -0.687773 
3913 2 -855.29 2871.26 -555.453 0.353876 -0.389578 0.486995 -0.69702 
3914 2 -846.833 2866.45 -553.42 0.712025 0.112041 0.666503 -0.19037 
3916 2 -827.715 2860.85 -553.855 -0.0346723 0.773076 -0.207695 0.598343 
3915 2 -837.455 2863.29 -552.986 0.493424 0.617827 0.356635 0.497629 
3917 2 -818.396 2858.44 -556.173 -0.419638 0.248946 -0.787941 0.375604 
3958 2 -674.86 2844.74 -632.484 0.656511 0.472327 0.58811 0.00523971 
3974 2 -729.116 2841.48 -620.225 0.0838617 -0.913187 -0.349246 -0.192572 
3975 2 -727.029 2843.79 -629.64 0.042134 -0.68365 0.715765 -0.136118 
3976 2 -724.928 2842.62 -639.303 0.163981 -0.000615672 0.984942 0.0547661 
3977 2 -721.842 2843.92 -648.702 0.0609993 0.793982 0.556752 0.23643 
3978 2 -718.123 2845.98 -657.695 -0.191291 0.929792 -0.304241 0.0795794 
3957 2 -681.464 2852.11 -632.657 0.470759 -0.0424452 0.669813 -0.572656 
3918 2 -810.117 2854.76 -560.184 -0.314331 -0.367095 -0.83513 -0.262671 
3919 2 -802.965 2856.62 -566.599 0.0928767 -0.897139 -0.175036 -0.394814 
3920 2 -795.942 2860.17 -572.776 0.367327 -0.557607 0.670333 -0.323728 
3956 2 -685.454 2860.75 -629.934 -0.245009 -0.608483 0.522311 -0.544895 
3921 2 -787.152 2860.33 -577.465 0.511353 0.0883163 0.847182 0.114025 
3922 2 -778.69 2861.45 -582.52 0.102158 0.679254 0.511662 0.516119 
3923 2 -770.992 2865.7 -586.956 -0.513918 0.724459 0.0935723 0.449769 
3924 2 -765.183 2873.49 -587.838 -0.696753 0.386183 -0.590261 -0.130344 
3925 2 -758.092 2880.47 -587.184 -0.396541 -0.329382 -0.483858 -0.707209 
3926 2 -749.427 2884.5 -584.788 0.31019 -0.547551 -0.0955594 -0.771258 
3927 2 -741.782 2889.41 -580.85 0.888715 -0.426475 0.153415 -0.069056 
3928 2 -737.718 2896.4 -575.257 0.572618 -0.0807447 0.495289 0.648289 
3955 2 -688.501 2870.09 -628.814 -0.668306 -0.712295 -0.214099 -0.0128194 
3948 2 -706.471 2928.07 -610.157 -0.453077 -0.874374 -0.0866309 0.150622 
3949 2 -707.936 2920.07 -615.534 -0.334167 -0.511864 0.715274 -0.33869 
3952 2 -702.952 2894.97 -626.805 0.362766 0.797142 -0.0291219 0.481786 
3954 2 -691.093 2879.66 -628.423 -0.437691 -0.355443 -0.640753 0.521078 
3953 2 -696.4 2887.93 -628.935 -0.0290224 0.335537 -0.592053 0.732151 
3951 2 -707.904 2903.19 -624.248 0.61548 0.582261 0.523324 -0.091043 
3950 2 -709.844 2912.49 -621.697 0.188269 0.0883274 0.768388 -0.605255 
3947 2 -708.302 2936.62 -605.498 -0.366249 -0.50359 -0.713707 0.320751 
3946 2 -706.38 2945.55 -601.824 0.204316 0.207853 -0.838205 0.460938 
3945 2 -707.478 2954.91 -598.647 0.517081 0.791841 -0.21407 0.244517 
3944 2 -709.816 2963.16 -593.744 0.467883 0.689622 0.511695 -0.208986 
3943 2 -709.709 2972.46 -590.032 0.0872291 0.189327 0.822245 -0.529585 
3942 2 -709.936 2982.08 -588.022 -0.415714 -0.544632 0.538191 -0.490824 
3929 2 -733.879 2903.3 -569.253 -0.23471 0.226076 0.270404 0.905915 
3930 2 -730.345 2908.93 -562.058 -0.839566 0.456563 0.0262152 0.293244 
3938 3 -723.51 2965.42 -563.898 0.377033 -0.126972 -0.893328 0.20902 
3941 2 -707.421 2991.52 -587.123 -0.657419 -0.73274 0.0212731 0.174471 
3931 2 -728.099 2916.63 -556.315 -0.804217 0.268789 -0.251017 -0.466881 
3932 2 -726.491 2922.75 -548.553 -0.289626 -0.0189825 -0.171074 -0.941536 
3933 2 -724.616 2925.13 -539.144 0.510907 -0.225838 -0.154426 -0.814938 
3937 1 -698.864 2979.27 -543.166 0.331829 -0.0622305 -0.900373 0.274492 
3934 2 -722.824 2930.35 -530.913 0.896735 -0.387464 0.091862 -0.193132 
3935 2 -719.468 2937.2 -524.633 0.841414 -0.178405 0.32956 0.389338 
3936 2 -715.348 2943.04 -517.82 0.144527 0.186833 0.313914 0.9196 
3940 2 -702.842 2999.94 -584.854 -0.236063 -0.585479 -0.496513 0.595788 
3939 2 -699.238 3008.13 -580.517 0.19606 0.00995327 -0.851409 0.486378 
4049 2 -560.97 3111.2 -661.232 -0.265513 0.264745 0.90269 -0.211103 
4048 2 -556.16 3116.8 -654.632 -0.426863 -0.743678 0.510078 0.0674645 
4047 2 -554.801 3123.73 -647.655 -0.355156 -0.900491 -0.214067 0.130977 
4046 3 -600.227 3143.77 -663.325 -0.156747 -0.829532 -0.327091 0.424639 
4041 2 -638.611 3176.77 -664.917 0.83027 -0.0477136 0.450248 0.325042 
4042 2 -631.715 3180.59 -658.836 0.105906 0.31454 0.326187 0.885127 
4043 2 -625.447 3185.8 -653.352 -0.61369 0.53213 -0.144295 0.565156 
4044 2 -617.572 3190.8 -649.721 -0.821836 0.203285 -0.523004 -0.0986245 
4045 1 -579.762 3163.45 -642.681 -0.180255 -0.802217 -0.404322 0.4006 
3018 2 -156.217 1254.06 -418.682 0.693207 0.707394 0.0824614 -0.110719 
3017 2 -155.665 1263.89 -418.469 0.370897 0.381547 0.622473 -0.57392 
3019 1 -118.926 1259.15 -447.195 -0.584583 0.556356 0.487713 0.332968 
3016 2 -150.417 1272.12 -416.94 -0.399131 -0.103584 0.743908 -0.525895 
3015 2 -146.303 1280.76 -414.398 -0.625655 -0.657666 0.416921 -0.0469913 
3021 2 -93.8213 1281.89 -480.096 -0.679701 0.706277 0.037342 -0.194382 
3014 2 -138.486 1286.65 -413.142 -0.319405 -0.687095 -0.137756 0.63789 
3020 3 -135.004 1290.2 -449.315 -0.568096 0.584396 0.527797 0.23912 
3022 2 -97.032 1291.35 -479.6 -0.195393 0.43144 -0.558762 -0.680783 
3023 2 -100.045 1300.82 -479.197 0.34955 -0.183348 -0.771788 -0.49854 
3024 2 -103.47 1309.89 -481.122 0.535466 -0.693453 -0.431349 0.215259 
3013 2 -132.947 1294.87 -412.496 0.176906 -0.274801 -0.725562 0.605597 
3012 2 -129.515 1302.84 -407.783 0.432302 0.525871 -0.678621 0.275769 
3011 2 -127.567 1310.88 -402.167 0.463575 0.882442 -0.0170439 -0.0781293 
3057 2 -283.443 1442.06 -469.769 -0.351008 -0.772933 -0.0881085 -0.521157 
3055 2 -299.168 1448.65 -459.603 -0.378941 0.327382 -0.792047 0.349121 
3056 2 -291.064 1445.5 -464.486 -0.506677 -0.47054 -0.719532 -0.0643717 
3054 2 -303.019 1448.67 -450.529 -0.0576525 0.959334 -0.222736 0.163533 
3053 2 -301.341 1452.69 -441.653 0.0943964 0.666602 0.710847 -0.203537 
3052 2 -297.854 1451.19 -432.585 -0.134827 -0.0499159 0.9865 0.0784047 
3051 2 -292.368 1451.42 -424.348 -0.154338 -0.841575 0.448898 0.257724 
3050 2 -288.793 1452.07 -415.233 0.00301282 -0.887322 -0.409878 0.211308 
3049 2 -288.274 1451.95 -405.294 0.0312914 -0.215974 -0.972381 0.0827747 
3047 3 -246.288 1437.06 -418.444 0.0135354 0.702793 -0.711254 0.00403846 
3046 1 -247.126 1437.82 -383.508 -0.018695 0.717178 -0.69587 0.03272 
3048 2 -289.666 1454.05 -395.781 -0.01762 0.62414 -0.775649 0.0922372 
3058 2 -274.672 1438.03 -471.928 0.237003 -0.614842 0.50111 -0.560971 
3064 2 -223.123 1425.65 -496.915 -0.479073 -0.781493 -0.249388 -0.31235 
3063 2 -230.494 1428.54 -490.943 -0.451804 -0.161555 -0.873775 0.0793153 
3062 2 -239.295 1430.39 -486.74 -0.317869 0.447046 -0.700856 0.455972 
3059 2 -265.461 1436.03 -475.003 0.527186 0.0210354 0.809121 -0.258756 
3060 2 -256.61 1432.97 -478.018 0.382454 0.599933 0.618384 0.333783 
3061 2 -247.883 1432.12 -482.431 0.129302 0.850767 -0.0628257 0.505499 
3065 2 -216.42 1419.65 -501.24 -0.254287 -0.69046 0.389883 -0.553709 
3066 2 -211.254 1411.39 -502.999 0.372212 -0.268089 0.708284 -0.536583 
3042 2 -210.851 1418.42 -420.871 -0.956069 0.186896 -0.065012 0.216275 
3041 2 -212.256 1413.06 -428.984 -0.322789 0.111 0.271052 0.90001 
3040 2 -210.543 1404.61 -433.716 0.404181 -0.347247 0.339863 0.774952 
3070 2 -175.29 1404.04 -513.846 -0.581228 0.0384727 -0.812747 0.011691 
3069 2 -184.885 1403.26 -511.682 -0.308738 0.693711 -0.375588 0.531394 
3010 2 -125.659 1317.78 -395.245 0.139163 0.436359 0.784795 -0.417517 
3043 2 -208.139 1421.19 -411.807 -0.790334 0.0185662 -0.187569 -0.582963 
3025 2 -110.563 1316.38 -483.394 0.202662 -0.666201 0.240628 0.676168 
3044 2 -205.712 1423 -402.318 -0.0063381 -0.139952 -0.0251863 -0.989818 
3045 2 -203.085 1423.84 -392.666 0.783145 -0.148185 0.0836326 -0.598105 
3026 2 -118.8 1321.84 -483.779 -0.421621 -0.267965 0.648744 0.574074 
3068 2 -194.537 1403.43 -509.231 0.257074 0.734182 0.310021 0.546604 
3067 2 -203.318 1406.18 -505.497 0.557027 0.289087 0.777881 0.0324089 
3009 2 -124.04 1324.52 -388.09 -0.23816 -0.30534 0.885948 -0.255233 
3039 2 -208.282 1397.28 -439.905 0.825124 -0.435799 0.0342153 0.35788 
3038 2 -202.847 1391.95 -446.075 0.86042 -0.218201 -0.407453 -0.214588 
3037 2 -195.489 1387.93 -451.127 0.469415 0.271738 -0.398572 -0.73956 
3036 2 -188.018 1382.19 -454.185 -0.281409 0.56935 -0.136104 -0.760346 
3035 2 -181.701 1375.75 -458.514 -0.806322 0.472105 0.216796 -0.282775 
3034 2 -175.308 1370.37 -463.594 -0.779713 0.217122 0.476144 0.343793 
3033 2 -168.305 1365.23 -468.407 -0.422167 -0.1496 0.463862 0.764347 
3032 2 -159.953 1361.91 -472.601 0.304797 -0.546585 0.0485094 0.778454 
3031 2 -153.596 1354.9 -475.792 0.793691 -0.491421 -0.261411 0.245406 
3030 2 -147.707 1347.45 -478.381 0.486079 -0.0871934 -0.631986 -0.597259 
3029 2 -141.844 1339.85 -480.353 -0.19166 0.449103 -0.387773 -0.781796 
3028 2 -135.497 1332.5 -482.121 -0.700391 0.627355 0.190863 -0.281866 
3027 2 -126.826 1327.79 -483.436 -0.664295 0.145993 0.696933 0.227339 
3008 2 -122.133 1332.24 -382.069 -0.447745 -0.88283 0.140154 0.0221787 
3007 2 -119.609 1339.24 -375.612 -0.150637 -0.647953 -0.679868 0.308618 
3006 2 -115.773 1342.88 -367.18 0.198429 -0.0313986 -0.948533 0.244796 
3094 2 -246.99 1600.7 -463.105 -0.122218 0.415336 -0.270545 -0.859863 
3093 2 -241.147 1594.32 -467.967 -0.728802 0.546342 0.0688943 -0.406955 
3092 2 -235.935 1585.96 -467.149 -0.648547 0.445552 0.554447 0.271033 
3095 2 -253.31 1606.22 -457.707 0.589733 0.0971394 -0.606129 -0.524772 
3096 2 -260.834 1611.47 -454.369 0.766981 -0.2996 -0.499379 0.269446 
3097 2 -269.898 1613.26 -450.679 0.407894 -0.548369 -0.199759 0.702147 
3098 2 -279.215 1615.57 -447.906 -0.269411 -0.558192 0.162536 0.767738 
3099 2 -288.795 1615.02 -445.332 -0.762585 -0.224544 0.524035 0.305666 
3100 1 -274.908 1605.32 -401.322 0.27424 0.386599 0.728874 0.494041 
3091 2 -232.001 1577.21 -469.231 -0.226346 -0.040201 0.637783 0.735109 
3090 2 -227.989 1568.59 -472.085 0.359786 -0.45516 0.407187 0.705396 
3089 2 -222.718 1560.35 -473.85 0.745248 -0.592707 -0.302553 0.0420073 
3103 2 -237.449 1610.82 -371.102 0.5567 -0.621298 0.482818 -0.266384 
3102 2 -243.386 1604.63 -366.169 0.177823 -0.763009 -0.361363 -0.505581 
3083 2 -212.555 1508.89 -498.675 0.567526 -0.346348 0.31103 0.67913 
3084 2 -213.961 1516.73 -492.572 -0.0772552 0.0354262 0.548973 0.831508 
3087 2 -217.854 1543.39 -480.943 -0.249334 0.190738 -0.384529 -0.868095 
3085 2 -213.625 1525.52 -487.86 -0.668739 0.502858 0.365905 0.407475 
3104 2 -229.23 1615.52 -373.961 0.392477 -0.0885076 0.798736 0.44738 
3086 2 -214.421 1535.1 -485.191 -0.801928 0.524435 -0.0067441 -0.286067 
3088 2 -219.046 1551.2 -474.86 0.460201 -0.164488 -0.628651 -0.604943 
3082 2 -209.889 1502.55 -505.783 0.899414 -0.408587 -0.111646 0.107918 
3081 2 -208.597 1494.99 -512.253 0.609225 -0.191619 -0.34302 -0.688813 
3183 2 -508.716 1738.83 -465.461 0.218249 -0.345501 0.663523 0.626685 
3184 2 -510.603 1748.27 -467.517 -0.293557 0.406258 0.730179 0.464347 
3186 2 -509.779 1765.34 -476.996 -0.593028 0.483395 -0.603318 -0.225065 
3185 2 -511.117 1757.3 -471.357 -0.462637 0.883585 0.0278575 0.0668523 
3181 1 -464.316 1733.17 -450.746 -0.54789 0.712365 -0.24436 -0.364198 
3234 2 -434.245 1729.37 -390.554 -0.0454333 0.658033 0.736238 -0.151267 
3233 2 -432.003 1731.75 -381.209 -0.160137 -0.212017 0.961694 -0.0674489 
3235 1 -414.882 1687.65 -379.969 -0.0761499 -0.0690105 0.280063 0.954465 
3180 2 -421.78 1748.82 -437.506 -0.255543 -0.213518 -0.576319 0.7463 
3179 2 -420.999 1758.37 -440.282 0.430391 0.295403 -0.536159 0.663351 
3182 3 -466.614 1767.77 -455.481 -0.520774 0.732723 -0.19738 -0.391092 
3178 2 -417.922 1767.61 -438.546 0.600135 0.770385 -0.207972 -0.0556094 
3232 2 -427.257 1736.17 -373.599 -0.304951 -0.887905 0.309764 0.150585 
3231 2 -423.517 1742.32 -366.833 -0.0953982 -0.743652 -0.571572 0.333446 
3230 2 -417.274 1748.34 -361.864 0.29221 -0.133422 -0.862496 0.391042 
3101 3 -247.078 1621.6 -414.983 0.253424 0.400218 0.741422 0.475284 
3105 2 -223.865 1622.98 -377.634 -0.0584532 0.40321 0.720901 0.56063 
3135 2 -226.067 1722.38 -509.275 -0.974753 0.154688 -0.0161211 -0.160214 
3106 2 -220.28 1631.11 -381.73 -0.19638 0.927077 0.141691 0.286159 
3107 2 -215.188 1635.75 -388.776 -0.276549 0.713341 -0.635435 0.104341 
3136 2 -227.216 1724.71 -499.674 -0.599919 0.0441221 0.0530201 -0.797082 
3148 2 -251.2 1718.53 -385.885 -0.712469 -0.166067 0.0930888 0.675385 
3147 2 -250.316 1719.17 -395.818 0.211726 -0.0496591 -0.0616555 0.974117 
3146 2 -248.348 1719.91 -405.507 0.856887 -0.041467 -0.102035 0.503601 
3145 2 -246.889 1720.84 -415.236 0.869209 0.0570933 -0.0422493 -0.489317 
3144 2 -243.526 1722.88 -424.353 0.0960171 0.20015 0.111423 -0.968662 
3143 2 -240.303 1725.7 -433.258 -0.602897 0.00671461 0.281073 -0.746638 
3137 2 -227.001 1724.85 -489.689 0.31212 0.0446529 -0.0567297 -0.947295 
3139 2 -231.267 1722.19 -470.592 0.827539 -0.0922409 -0.251875 0.493184 
3138 2 -228.724 1724.31 -479.88 0.89818 0.203239 -0.103478 -0.375843 
3140 2 -235.839 1722.67 -461.808 0.120685 -0.245959 0.0967799 0.956856 
3142 2 -239.381 1726.2 -443.083 -0.995812 0.0006023 0.0270358 -0.0873352 
3141 2 -239.274 1725.12 -452.861 -0.600058 0.0154341 -0.0175939 0.799614 
3149 2 -254.31 1718.04 -376.526 -0.998496 -0.0120294 0.0174162 -0.0505697 
3150 2 -255.835 1717.34 -366.698 -0.445804 -0.116048 0.263698 -0.847499 
3207 2 -351.697 1772.65 -448.493 -0.424342 0.399637 -0.589873 0.558815 
3108 2 -209.218 1638.98 -396.107 -0.288051 -0.0729315 -0.913446 -0.278071 
3109 2 -203.335 1644.13 -402.096 -0.0907629 -0.716027 -0.608896 -0.329111 
3110 2 -197.238 1647.95 -408.902 0.327147 -0.884965 0.227484 -0.240965 
3111 2 -192.565 1653.53 -415.622 0.483711 -0.383428 0.739134 0.269607 
3112 2 -187.763 1660.74 -420.218 0.0643845 0.198941 0.799751 0.562739 
3113 2 -184.273 1669.02 -424.372 -0.342484 0.797823 0.363576 0.337632 
3114 2 -181.074 1676.92 -429.556 -0.424762 0.828768 -0.355287 0.0805687 
3115 2 -176.94 1683.95 -435.278 -0.428394 0.377769 -0.727619 -0.379922 
3116 2 -173.605 1692.56 -439.231 0.193884 -0.179262 -0.862946 -0.43081 
3117 2 -175.2 1700.05 -445.341 0.449697 -0.712443 -0.523961 -0.125149 
3118 2 -176.681 1707.77 -451.396 0.445827 -0.81608 0.257663 0.262414 
3119 2 -179.313 1715.59 -456.846 0.00171166 -0.288718 0.833242 0.471536 
3120 2 -182.53 1723.36 -461.935 -0.336109 0.563949 0.678223 0.33016 
3121 2 -183.195 1732.02 -466.658 -0.478929 0.877442 -0.0180152 -0.0199526 
3122 2 -183.054 1740.5 -471.651 -0.408164 0.402341 -0.770005 -0.280386 
3123 2 -178.94 1747.65 -477.294 -0.0220089 -0.42747 -0.782963 -0.451392 
3124 2 -175.464 1755.16 -482.824 0.431893 -0.856265 -0.14611 -0.242756 
3125 2 -172.058 1763.1 -487.393 0.449842 -0.54598 0.699884 0.0985411 
3126 2 -166.599 1769.5 -492.581 0.125153 0.440646 0.764011 0.454373 
3187 2 -505.271 1773.78 -479.718 -0.156278 -0.261304 -0.707023 -0.638292 
3188 2 -500.187 1782.19 -481.16 0.392385 -0.739611 -0.339322 -0.428801 
3177 2 -412.198 1774.89 -434.985 0.149161 0.675189 0.477978 -0.541671 
3176 2 -404.418 1778.89 -430.561 -0.402507 0.0511084 0.87731 -0.256327 
3175 2 -395.406 1779.86 -426.519 -0.432096 -0.608584 0.563884 0.353487 
3174 2 -387.121 1781.25 -421.28 -0.0200227 -0.845153 -0.103663 0.523994 
3173 2 -378.015 1783.42 -418.095 0.394816 -0.427624 -0.709354 0.397587 
3189 2 -495.859 1791.01 -482.67 0.734379 -0.506024 0.445808 -0.0766924 
3190 2 -489.725 1798.66 -481.47 0.729087 0.00246202 0.473522 0.494169 
3193 2 -467.571 1810.94 -466.596 -0.810445 0.16628 -0.50517 0.245628 
3192 2 -475.668 1807.02 -470.597 -0.495254 0.485254 -0.177964 0.69827 
3191 2 -482.697 1804.01 -476.915 0.104068 0.368069 0.236528 0.893168 
3195 2 -449.679 1809.68 -458.328 0.00929487 -0.539631 0.0590963 -0.839774 
3196 2 -441.022 1808.04 -453.769 0.672553 -0.462872 0.395153 -0.421042 
3197 2 -431.673 1810.55 -451.55 0.692987 0.0827646 0.662843 0.271215 
3194 2 -458.358 1811.08 -462.774 -0.705031 -0.314092 -0.374437 -0.513883 
3198 2 -422.7 1813.73 -448.803 0.16867 0.660987 0.398205 0.613253 
3199 2 -413.33 1816.28 -450.503 -0.0638257 0.715132 -0.459525 0.522828 
3200 2 -405.099 1812.01 -454.229 -0.566543 -0.0762564 -0.694423 0.437025 
3201 2 -397.448 1805.86 -453.577 -0.747622 -0.537638 -0.380862 -0.083372 
3202 2 -390.385 1799.08 -451.879 -0.316958 -0.697417 0.236766 -0.59757 
3203 2 -383.765 1791.77 -452.746 0.320754 -0.321816 0.680231 -0.575184 
3204 2 -375.912 1785.93 -453.665 0.700687 0.35722 0.56229 -0.255465 
3205 2 -370.023 1777.97 -452.295 0.71887 0.454084 0.323829 0.414931 
3172 2 -368.764 1783.84 -414.737 0.595173 0.271627 -0.741699 -0.147887 
3222 2 -370.126 1799.93 -373.638 0.838219 0.307254 -0.334246 0.302098 