ITEM: TIMESTEP
100000000
ITEM: NUMBER OF ATOMS
4067
ITEM: BOX BOUNDS pp pp pp
-4.6310929470000001e+03 4.6704658980000004e+03
-4.6310929470000001e+03 4.6704658980000004e+03
-4.6310929470000001e+03 4.6704658980000004e+03
ITEM: ATOMS id type x y z c_q[1] c_q[2] c_q[3] c_q[4] 
3399 2 -292.051 2146.49 -678.882 -0.827622 -0.133299 0.525676 -0.144701 
3400 2 -300.138 2142.29 -674.823 -0.412152 0.297815 0.442106 -0.738904 
3401 2 -307.952 2137.95 -670.54 0.310679 0.482938 -0.07583 -0.815168 
3237 2 -293.438 1912.55 -516.955 0.658719 -0.134351 -0.000156152 0.740297 
3468 2 -597.224 2065.71 -541.889 -0.627422 -0.117118 0.763668 -0.0971353 
3467 2 -588.576 2068.26 -537.888 -0.434587 -0.718801 0.457695 0.291503 
3466 2 -580.582 2069.26 -532.101 0.0488286 -0.878544 -0.0937374 0.465821 
3469 2 -606.641 2063.59 -543.69 -0.532191 0.608091 0.36159 -0.465027 
3470 2 -616.211 2066.37 -543.71 -0.0458681 0.66847 -0.20526 -0.713381 
3465 2 -576.59 2070.16 -523.105 0.121648 -0.553313 -0.814734 0.123511 
3471 2 -624.673 2071.19 -544.319 0.302924 0.110652 -0.807257 -0.494297 
3464 2 -572.681 2066.71 -514.674 0.145611 0.317112 -0.907325 -0.234519 
3443 2 -476.982 2053.34 -540.186 -0.602003 -0.279677 -0.170778 0.728154 
3442 2 -477.449 2059.25 -548.021 0.147615 0.0776085 -0.344128 0.923993 
3444 2 -478.879 2046.86 -532.819 -0.879344 -0.441393 0.163815 -0.0713499 
3422 2 -421.482 2051.18 -540.549 0.0909866 -0.0925598 0.315594 -0.939976 
3423 2 -419.354 2045.46 -532.875 0.811456 0.208527 0.229362 -0.495428 
3421 2 -419.643 2057.79 -547.668 -0.762631 -0.238582 0.2455 -0.54882 
3420 2 -417.355 2064.22 -554.729 -0.887857 -0.358125 0.0212633 0.288105 
3445 2 -481.329 2038.9 -527.42 -0.43295 -0.153902 0.405764 -0.790078 
3450 2 -477.235 1994.05 -522.167 -0.299394 -0.448596 -0.736107 0.408988 
3449 2 -477.925 2003 -518.044 0.102514 0.291771 -0.796644 0.519346 
3447 2 -482.746 2022.02 -518.436 0.678181 0.585675 0.344224 -0.280295 
3448 2 -480.786 2012.41 -517.919 0.639929 0.68608 -0.101956 0.330742 
3446 2 -482.575 2031.57 -520.844 0.33156 0.261731 0.539387 -0.728441 
3441 2 -479.581 2067.07 -553.779 0.708651 0.417243 -0.167968 0.543608 
3440 2 -481.563 2074.54 -559.819 0.891221 0.436046 0.107086 -0.0641977 
3419 2 -412.892 2070.24 -561.171 -0.263577 -0.393772 -0.22283 0.851949 
3418 2 -410.857 2076.76 -568.233 0.417995 0.000431716 -0.408377 0.811485 
3353 2 -294.794 2074.39 -514.883 0.357728 -0.646716 0.405006 0.538293 
3478 1 -680.992 2124.76 -555.941 0.858678 0.278922 0.371737 0.216071 
3480 2 -690.763 2147.96 -516.029 -0.551839 0.357274 -0.502917 0.561164 
3559 1 -723.605 2221.21 -519.024 -0.902196 0.186464 -0.334147 -0.199043 
3472 2 -630.316 2078.57 -547.444 0.526417 -0.699075 -0.48185 -0.0447269 
3473 2 -634.271 2086.2 -552.507 0.0713663 -0.881842 0.401978 0.235954 
3474 2 -637.945 2089.82 -560.882 -0.0785411 -0.222434 0.958181 0.162001 
3475 2 -640.24 2092.49 -570.209 -0.415454 0.501629 0.757025 -0.0517575 
3476 2 -646.983 2096.07 -576.571 -0.0945858 0.882586 0.124808 -0.443304 
3479 3 -654.743 2115.41 -534.654 0.849627 0.239881 0.408279 0.232163 
3477 2 -654.448 2096.66 -583.002 0.304476 0.584233 -0.676597 -0.32891 
3439 2 -484.533 2081.42 -566.29 0.582602 0.108569 0.348228 -0.726309 
3417 2 -405.731 2082.66 -574.42 0.926525 0.235698 -0.248891 0.155084 
3416 2 -402.185 2088.86 -581.252 0.734822 0.371208 0.0701207 -0.563316 
3415 2 -399.133 2096.33 -586.825 0.160379 0.270137 0.395378 -0.863123 
3438 2 -487.478 2090.09 -569.642 -0.105464 -0.262406 0.524838 -0.802848 
3437 2 -487.847 2099.89 -569.522 -0.658711 -0.658675 0.240244 -0.273001 
3414 2 -398.171 2102.05 -594.665 -0.673289 -0.222804 0.295768 -0.63997 
3436 2 -484.007 2109.09 -569.093 -0.42011 -0.608753 -0.368972 0.562838 
3413 2 -396.313 2109.32 -601.115 -0.907712 -0.40564 0.0964606 0.0470084 
3435 2 -480.337 2118.35 -569.003 0.0269219 -0.261851 -0.641167 0.720843 
3434 2 -476.804 2125.24 -562.784 0.381685 0.468563 -0.7588 0.242875 
3433 2 -470.301 2128.38 -556.039 0.298298 0.792071 -0.418808 -0.329001 
3425 3 -437.94 2093.95 -534.275 -0.113357 0.353848 -0.900681 -0.225201 
3385 2 -373.983 2187.42 -573.796 -0.208534 -0.879816 -0.190557 -0.382265 
3412 2 -391.162 2114.59 -607.851 -0.558645 -0.414147 -0.051705 0.716746 
3432 2 -464.567 2129.04 -547.972 -0.0221855 0.896733 0.31339 -0.311712 
3411 2 -384.35 2120.32 -612.405 0.132219 -0.343568 -0.484408 0.793617 
3384 2 -380.359 2193.2 -568.957 -0.49868 -0.343505 -0.780731 0.154214 
3383 2 -386.212 2197.86 -562.431 -0.247336 0.35416 -0.82915 0.354833 
3382 2 -392.708 2201.88 -555.984 0.0240469 0.841459 -0.34602 0.414293 
3381 2 -395.531 2208.76 -549.476 0.413519 0.835383 0.361078 0.0275722 
3431 2 -463.442 2131.41 -538.461 -0.0595043 0.238552 0.95897 -0.141172 
3380 2 -399.858 2216.15 -544.596 0.303294 0.115231 0.856473 -0.401482 
3430 2 -462.965 2131.9 -528.619 -0.0652866 -0.540964 0.838321 0.0176952 
3410 2 -376.611 2124.91 -616.518 0.782178 0.165537 -0.525308 0.291285 
3379 2 -400.484 2223.78 -538.249 -0.255233 -0.61305 0.661037 -0.349365 
3386 2 -366.564 2184.96 -579.735 -0.0420597 -0.591962 0.665352 -0.452899 
3429 2 -459.742 2131.04 -519.216 0.024962 -0.980473 0.0863102 0.174929 
3409 2 -369.23 2126.52 -623.042 0.637189 0.335398 -0.225672 -0.656178 
3387 2 -360.807 2179.75 -585.884 0.538543 -0.155188 0.823986 -0.0832717 
3402 2 -316.807 2136.31 -666.205 0.825558 0.309411 -0.309364 -0.356388 
3403 2 -324.355 2133.57 -660.434 0.845094 -0.047226 -0.402044 0.349209 
3404 2 -331.603 2132.55 -653.566 0.314633 -0.340509 -0.203239 0.862411 
3408 2 -360.823 2127.45 -628.468 -0.181026 0.465693 0.151865 -0.852817 
3388 2 -351.94 2180.03 -590.454 0.426813 0.489193 0.65729 0.38274 
3389 2 -342.806 2181.02 -594.071 -0.199979 0.871881 0.131316 0.427304 
3407 2 -352.976 2128.55 -634.371 -0.781294 0.179488 0.393271 -0.450224 
3390 2 -335.869 2186.37 -598.786 -0.584655 0.622193 -0.510981 0.0997658 
3391 2 -328.812 2192.86 -601.683 -0.43671 -0.0511416 -0.819209 -0.368194 
3405 2 -338.205 2131.61 -646.251 -0.374868 -0.332611 0.0738911 0.862197 
3406 2 -344.213 2130.16 -638.596 -0.835284 -0.230237 0.426059 0.260318 
3392 2 -321.824 2198.6 -605.594 0.266535 -0.717738 -0.553354 -0.32804 
3393 2 -318.647 2205.94 -611.294 0.353658 -0.877912 0.0998432 -0.306965 
3394 2 -313.148 2211.58 -617.38 0.417877 -0.609597 0.672391 0.0407435 
3398 3 -315.991 2174.65 -642.719 -0.135198 0.360684 0.33476 -0.859979 
3397 1 -290.02 2189.76 -660.439 -0.128321 0.376444 0.36726 -0.840799 
3395 2 -308.187 2217.45 -623.633 0.28739 0.145825 0.877149 0.356022 
3396 2 -302.393 2222.96 -629.215 -0.0931381 0.773155 0.457521 0.429222 
3358 2 -312.477 2119.31 -514.453 0.627568 -0.388746 -0.557804 -0.379327 
3357 2 -308.082 2110.59 -516.16 0.0390051 0.220057 -0.608695 -0.761278 
3356 2 -303.388 2101.88 -517.451 -0.619725 0.659402 -0.0667503 -0.420327 
3355 2 -301.948 2092.39 -519.351 -0.661994 0.552922 0.388455 0.324261 
3354 2 -299.272 2083.25 -516.441 -0.126083 0.0384892 0.787837 0.60161 
3561 2 -750.072 2259.97 -514.437 -0.929582 0.19024 -0.197879 0.24603 
3378 2 -400.036 2232.72 -533.959 -0.53632 -0.8439 0.0138568 -0.00141369 
3377 2 -399.709 2242.41 -531.964 -0.407846 -0.521358 -0.534403 0.525605 
3376 2 -397.288 2251.94 -530.401 0.141815 0.00237419 -0.791507 0.594474 
3375 2 -393.685 2260.77 -527.398 0.591849 0.622994 -0.490424 0.145181 
3374 2 -389.519 2267.95 -522.006 0.326458 0.820578 0.336908 -0.32645 
3373 2 -386.193 2274.22 -515.095 -0.0608424 0.226583 0.891276 -0.388052 
3371 3 -358.692 2233.13 -518.69 0.29823 0.490777 -0.799783 0.174768 
3693 2 -529.366 2462.76 -526.15 -0.0607831 0.53115 -0.785532 0.311648 
3692 2 -533.231 2467.33 -518.259 0.252484 0.944425 -0.0338689 0.207765 
3694 1 -505.858 2500.09 -542.831 -0.881051 0.0664921 0.133861 0.448786 
3698 2 -478.429 2542.46 -520.661 -0.477327 -0.053944 0.0651679 -0.874644 
3696 2 -485.932 2542.6 -538.945 -0.625894 0.168534 -0.110247 0.753458 
3697 2 -482.529 2543.29 -529.695 -0.968126 -0.0867476 -0.193757 -0.132911 
3922 2 -679.613 2974.91 -520.426 0.0711141 0.689708 -0.396049 0.601988 
3923 2 -672.014 2968.94 -522.853 -0.44376 0.151133 -0.814738 0.341231 
3920 2 -694.912 2987.6 -520.878 0.569794 0.147059 0.699385 -0.405671 
3921 2 -687.768 2980.67 -520.917 0.649585 0.608485 0.343736 0.299385 
3919 2 -703.465 2992.01 -523.482 0.046071 -0.518646 0.34242 -0.782069 
3924 2 -663.735 2964.41 -526.104 -0.465514 -0.598269 -0.641301 -0.118757 
3925 2 -656.581 2959.62 -531.038 -0.100007 -0.91429 0.0670441 -0.386754 
3926 2 -649.917 2957.34 -538.006 0.211769 -0.516722 0.741779 -0.37137 
3927 2 -642.504 2954.53 -543.915 0.443167 0.304099 0.82818 -0.158886 
3928 2 -637.4 2948.86 -550.363 0.292915 0.902461 0.131998 0.286953 
3929 2 -631.363 2944.53 -556.936 -0.0290875 0.632728 -0.662907 0.399203 
3930 2 -625.77 2940.36 -564.025 -0.491676 -0.193595 -0.813528 0.242792 
3931 2 -618.512 2935.07 -568.028 -0.542625 -0.730659 -0.304306 -0.281237 
3932 2 -611.975 2927.91 -569.869 -0.0870697 -0.845018 0.336708 -0.406191 
3938 3 -626.597 2943.93 -609.53 -0.831826 0.125721 0.44457 -0.307598 
3937 1 -597.129 2947.33 -628.361 -0.81818 0.0308685 0.485374 -0.306661 
3972 2 -565.553 2972.27 -563.825 0.870733 0.413996 0.264516 0.021522 
3971 2 -572.17 2976.55 -569.655 0.533386 -0.130263 0.437249 -0.712281 
3973 2 -560.552 2965.22 -558.934 0.439323 0.515468 -0.18669 0.711642 
3974 2 -555.234 2957.98 -554.762 -0.329637 0.325921 -0.478725 0.745612 
3935 2 -591.796 2917.87 -588.818 0.300664 0.862663 0.369511 0.169928 
3934 2 -599.158 2920.4 -582.852 0.441742 0.284299 0.850536 -0.0250405 
3936 2 -586.092 2914.54 -596.225 0.0519641 0.819144 -0.418071 0.389255 
3933 2 -605.579 2923.95 -576.258 0.218885 -0.415435 0.830694 -0.299083 
3991 1 -532.813 2859.54 -583.342 -0.679967 0.578822 -0.450001 -0.0104592 
3993 2 -554.518 2892.78 -608.808 0.585531 -0.713726 0.102299 -0.370517 
3994 2 -547.894 2900.08 -610.278 0.730312 -0.391883 0.548186 0.112089 
3975 2 -546.977 2953.6 -551.622 -0.830431 -0.139076 -0.536045 0.0608091 
3976 2 -538.448 2950.28 -547.752 -0.491434 -0.65129 -0.213434 -0.537364 
3977 2 -529.541 2946.05 -546.625 0.223235 -0.518899 0.451678 -0.690577 
3978 2 -520.645 2941.68 -545.728 0.669791 0.126332 0.62214 -0.385177 
3995 2 -541.485 2907.64 -609.317 0.320978 0.15694 0.72851 0.584479 
3996 2 -534.374 2914.43 -610.556 -0.110805 0.622992 0.224216 0.741168 
3941 2 -639.411 2977.58 -635.462 -0.420551 0.512104 -0.0801839 -0.744618 
3939 2 -626.645 2977.2 -649.729 -0.794568 -0.304659 0.304399 0.428001 
3940 2 -634.094 2975.11 -643.571 -0.927615 0.170294 0.237197 -0.232953 
3942 2 -646.404 2982.27 -630.045 0.341989 0.141093 -0.275719 -0.887195 
3970 2 -579.496 2980.32 -575.162 -0.140494 -0.459725 0.187598 -0.856576 
3969 2 -586.227 2984.42 -581.083 -0.744565 -0.389832 -0.170561 -0.514357 
3968 2 -592.894 2987.71 -587.606 -0.856123 -0.0459342 -0.421532 0.295388 
3997 2 -525.542 2918.72 -608.875 -0.704336 0.548817 -0.184085 0.410881 
3943 2 -649.78 2986.18 -621.711 0.888316 -0.246703 -0.319263 -0.219325 
3998 2 -517.908 2924.59 -606.541 -0.647815 0.0424566 -0.657804 -0.381873 
3944 2 -654.248 2991.61 -614.767 0.792974 -0.376645 0.013819 0.478685 
3967 2 -597.201 2992.99 -594.718 -0.201596 0.143009 -0.320729 0.914352 
3990 2 -496.93 2842.56 -557.863 -0.4296 -0.796182 0.425131 -0.0283222 
3979 2 -513.534 2934.94 -544.859 0.681931 0.578494 0.367492 0.25547 
3980 2 -505.719 2929.07 -543.381 0.299445 0.59182 -0.222939 0.714409 
3992 3 -510.624 2886.59 -581.81 -0.723775 0.558924 -0.40214 -0.0451196 
3999 2 -510.139 2930.35 -604.792 -0.11157 -0.4918 -0.385711 -0.772601 
3981 2 -498.509 2922.43 -541.97 -0.32826 0.295631 -0.724585 0.528985 
4000 2 -502.068 2935.4 -601.832 0.713043 -0.460224 0.102764 -0.518848 
4001 2 -495.687 2940.75 -596.503 0.79284 -0.076251 0.490915 0.352977 
4002 2 -488.81 2945.68 -591.53 0.235339 0.323416 0.371122 0.838025 
4003 2 -480.924 2949.87 -587.182 -0.42993 0.54671 0.036532 0.717589 
3989 2 -494.54 2850.23 -552.039 -0.34353 -0.798079 -0.374773 0.323421 
3988 2 -492.671 2859.19 -548.138 0.0267723 -0.182383 -0.826731 0.53154 
3984 2 -485.63 2897.44 -544.451 -0.284364 -0.155544 0.660026 -0.677724 
3983 2 -487.295 2907.22 -545.179 -0.6837 -0.688434 0.0924736 -0.223746 
3982 2 -491.023 2916.09 -543.652 -0.591892 -0.493623 -0.592469 0.23448 
3986 2 -489.461 2878.14 -543.875 0.647852 0.750061 -0.105712 -0.0807516 
3985 2 -486.949 2887.69 -544.299 0.380801 0.446582 0.513345 -0.626124 
3987 2 -492.489 2868.61 -545.069 0.341737 0.496181 -0.634832 0.483744 
4004 2 -474.4 2955.69 -582.484 -0.843769 0.223366 -0.483965 0.0627663 
4005 2 -466.099 2958.95 -578.345 -0.470964 -0.213318 -0.461109 -0.721157 
4006 2 -459.056 2962.83 -572.623 0.292466 -0.398604 -0.0650133 -0.866806 
4007 2 -452.704 2965.93 -565.69 0.880521 -0.32984 0.218131 -0.261355 
4008 2 -446.588 2970.46 -559.248 0.601999 0.233125 0.547691 0.532245 
4009 2 -437.52 2973.42 -556.684 -0.0685288 0.581498 0.204796 0.784361 
4010 2 -428.175 2976.44 -554.82 -0.533154 0.537524 -0.487578 0.434837 
4016 2 -375.827 2973.71 -576.313 0.0278574 0.902719 -0.230191 0.362402 
4017 2 -369.558 2971.35 -583.45 -0.258625 0.452011 -0.808027 0.275485 
4015 2 -384.427 2977.38 -573.169 0.551677 0.583884 0.535846 0.260002 
4014 2 -393.025 2977.66 -568.156 0.477843 -0.236536 0.838589 -0.111737 
4013 2 -401.542 2977.26 -563.153 0.23153 -0.783744 0.348257 -0.459191 
4011 2 -418.361 2977.51 -555.409 -0.648731 -0.23168 -0.702671 -0.17812 
4012 2 -408.539 2977.62 -556.178 -0.241593 -0.836968 -0.370693 -0.322031 
3918 2 -708.451 2998.55 -528.915 -0.811982 -0.411003 -0.0776885 -0.407095 
3917 2 -712.923 3004.67 -535.17 -0.849469 -0.226321 -0.360043 0.312329 
3916 2 -717.99 3010.35 -541.32 -0.360314 0.156087 -0.369471 0.842201 
3915 2 -718.996 3017.84 -547.521 0.532741 0.303405 -0.312816 0.725451 
3914 2 -722.285 3026.33 -551.72 0.847354 0.481446 0.200786 0.099424 
3913 2 -725.722 3033.77 -557.244 0.677783 0.167159 0.429824 -0.572642 
3912 2 -730.577 3041.35 -561.243 -0.010572 -0.27337 0.465145 -0.841901 
3910 1 -749.354 3063.24 -523.823 0.161004 -0.182052 0.432125 -0.868448 
3945 2 -657.457 2996.87 -607.003 0.120918 -0.117945 0.180919 0.968884 
3946 2 -659.372 3000.81 -598.191 -0.696522 0.0818898 0.341402 0.625776 
3966 2 -601.715 2999.04 -601.151 0.631192 0.410017 -0.082721 0.653176 
3965 3 -573.675 3006.65 -558.098 -0.475915 -0.0501917 0.343112 -0.808245 
3947 2 -663.425 3005.39 -590.439 -0.960022 0.256996 -0.0924299 -0.0613734 
3948 2 -662.125 3010.21 -581.966 -0.705851 -0.00736114 -0.32743 -0.6281 
3949 2 -657.77 3014.87 -574.26 0.123404 -0.447765 -0.273632 -0.842261 
3950 2 -651.577 3020.07 -568.529 0.784163 -0.32437 0.277927 -0.450143 
3951 2 -644.261 3022.71 -562.328 0.842297 0.0692289 0.397974 0.356875 
3964 1 -567.523 3027.53 -585.461 -0.501023 -0.125838 0.28263 -0.808246 
3963 2 -536.984 3042.95 -553.091 -0.0817337 -0.851267 -0.21483 -0.471711 
3962 2 -545.337 3042.56 -547.62 -0.422631 -0.329396 -0.81332 -0.2267 
3961 2 -554.854 3040.92 -544.933 -0.582457 0.385673 -0.693509 0.1762 
3952 2 -636.659 3024.27 -556.419 0.188411 0.378056 0.305624 0.853328 
3953 2 -629.068 3027.26 -550.771 -0.461825 0.474118 -0.115647 0.740645 
3954 2 -620.831 3029.85 -545.953 -0.773009 0.25407 -0.522123 0.255523 
3955 2 -611.614 3032.01 -542.698 -0.60427 -0.295339 -0.574733 -0.46617 
3960 2 -564.669 3041.75 -543.824 -0.122312 0.71588 -0.186501 0.661644 
3956 2 -602.001 3033.18 -541.166 0.0122629 -0.736815 -0.199039 -0.646016 
3957 2 -592.622 3035.91 -542.448 0.562973 -0.642512 0.409869 -0.319762 
3958 2 -584.342 3041 -544.458 0.677762 0.111258 0.707582 0.166095 
3959 2 -574.55 3042.27 -544.364 0.40254 0.584605 0.372197 0.598053 
4024 2 -392.071 3062.33 -571.212 0.542088 0.515588 -0.131931 -0.65031 
4025 2 -400.112 3058.82 -566.604 0.905897 0.24206 -0.322382 -0.129718 
4026 2 -406.734 3054.82 -560.209 0.652683 -0.137295 -0.358549 0.653145 
4023 2 -387.926 3063.5 -580.142 -0.23485 0.152267 0.0748225 -0.957111 
4027 2 -414.18 3053.08 -553.8 -0.18558 -0.467065 0.0466253 0.863271 
4028 2 -421.995 3052.89 -547.907 -0.818108 -0.202455 0.27446 0.463015 
4029 2 -428.547 3052.39 -540.53 -0.902196 0.126777 0.292012 -0.291032 
4030 2 -434.559 3052.39 -532.567 -0.285149 0.326007 0.0874539 -0.897085 
4022 2 -383.168 3063.95 -588.679 -0.824606 0.155335 0.225141 -0.495185 
4021 2 -379.161 3062.9 -597.615 -0.885362 -0.0281084 0.195222 0.42099 
4020 2 -373.891 3060.47 -605.542 -0.253257 -0.264167 0.19301 0.910397 
4019 3 -390.629 3018.7 -579.782 -0.895774 0.0421404 0.4338 0.0873541 
4018 1 -362.794 3014.89 -600.309 -0.903829 0.0256615 0.401334 0.146168 
4031 2 -440.523 3052.22 -524.66 0.460501 0.197713 -0.106206 -0.858818 
4032 2 -444.911 3052.61 -515.882 0.924581 -0.0982606 -0.197026 -0.310926 
4066 2 -483.997 3207.02 -558.2 -0.198469 0.791571 -0.56976 -0.096944 
4063 2 -479.915 3195.59 -531.359 0.109565 -0.578018 0.792421 0.161118 
4065 2 -481.893 3202.52 -549.674 -0.215937 0.913119 0.345519 0.0141699 
4064 2 -480.543 3198.7 -540.677 -0.170705 0.293996 0.929513 0.142941 
4067 2 -483.431 3210.74 -567.252 -0.0115575 -0.00532275 -0.982772 -0.184385 
4062 2 -478.516 3190.63 -523.054 0.257548 -0.961222 -0.0968791 0.0183373 
4061 2 -478.56 3185.39 -514.635 0.173861 -0.559183 -0.777975 -0.227686 
2533 1 -238.399 777.496 -372.762 -0.69663 -0.141769 -0.134082 -0.690385 
2532 2 -192.824 788.236 -379.295 0.151723 0.130914 -0.963426 -0.177912 
2612 2 -64.3274 794.062 -377.714 -0.285212 0.0711282 -0.953523 -0.0662436 
2611 2 -67.7006 791.399 -368.807 -0.171212 0.799816 -0.569797 0.0794515 
2531 2 -189.132 785.739 -370.543 -0.0545654 0.904889 -0.358095 -0.22353 
2530 2 -184.673 781.902 -362.702 -0.301421 0.856058 0.404085 -0.114131 
2613 2 -58.9971 795.484 -385.913 -0.112518 -0.679793 -0.670507 -0.275031 
2614 1 -36.548 835.354 -374.47 0.888022 0.201757 -0.183723 -0.370078 
3058 2 -6.62868 1614.5 -370.939 -0.463498 0.62907 -0.61585 -0.100842 
3057 2 -11.2319 1606.15 -368.73 -0.480184 0.771358 0.167344 0.382655 
3056 2 -15.086 1597.8 -365.145 -0.101965 0.384641 0.750998 0.526931 
3055 2 -20.6996 1590.19 -361.706 0.458395 -0.304909 0.777653 0.303581 
3181 1 -285.733 1742.58 -453.898 -0.979676 -0.010741 -0.0881239 -0.179871 
3180 2 -252.292 1709.98 -447.731 0.0572747 0.94316 0.0497706 -0.323562 
3179 2 -246.448 1712.12 -440.049 -0.16101 0.629963 0.694458 -0.30814 
3182 3 -279.864 1743.79 -419.417 -0.978731 -0.0239671 -0.130711 -0.156287 
3174 2 -216.917 1731.5 -408.937 0.458749 0.62695 -0.629452 0.0165184 
3175 2 -222.575 1724.91 -413.945 0.247988 -0.120101 -0.87796 0.391489 
3176 2 -228.016 1718.98 -419.579 -0.0514414 -0.720131 -0.5 0.478293 
3177 2 -234.087 1712.95 -424.719 -0.229374 -0.844215 0.40487 0.266024 
3178 2 -240.747 1711.82 -431.996 -0.313929 -0.109386 0.940213 0.0740438 
3173 2 -213.083 1739.63 -404.677 0.425755 0.827132 0.174437 -0.322733 
3172 2 -210.741 1749.17 -403.362 0.0966273 0.198769 0.72955 -0.647233 
3171 2 -204.923 1756.97 -404.943 -0.607987 -0.176816 0.652941 -0.41564 
3153 2 -123.395 1680.55 -425.989 0.146226 0.973331 0.061668 0.165656 
3154 1 -136.748 1702.05 -465.844 -0.921897 0.380746 0.0713842 -0.00652656 
3156 2 -149.086 1739.95 -491.171 -0.87135 0.456177 0.0317909 0.17788 
3158 2 -145.6 1757.06 -481.778 -0.050569 -0.180401 -0.19219 -0.963307 
3157 2 -147.645 1748.23 -485.982 -0.619432 0.307939 -0.425843 -0.583212 
3159 2 -141.847 1760.99 -473.438 0.794548 -0.228954 -0.0207333 -0.562 
3155 3 -140.433 1726.98 -441.698 -0.915283 0.380921 0.130871 -0.00534496 
3152 2 -126.983 1683.53 -417.205 0.244757 0.600678 0.760658 -0.0260543 
3151 2 -131.326 1684.3 -408.352 0.228804 -0.149272 0.961566 -0.0275025 
3150 2 -134.796 1683.6 -399.06 0.121948 -0.872729 0.450984 -0.141728 
3149 2 -136.984 1678.99 -390.534 0.132329 -0.890713 -0.395631 -0.180542 
3148 2 -139.657 1673.46 -382.674 -0.0920918 -0.194526 -0.933563 -0.286597 
3147 2 -142.218 1671.23 -373.338 -0.141626 0.565774 -0.811325 -0.0399182 
3160 2 -139.934 1764.92 -464.542 0.95877 -0.149801 -0.0830761 0.226756 
3161 2 -142.234 1768.91 -455.719 0.282773 -0.352948 0.246546 0.857136 
3170 2 -198.398 1764.31 -406.418 -0.757534 -0.562707 0.301794 0.135736 
3146 2 -144.939 1670.34 -363.746 -0.0778007 0.964457 -0.205255 0.147103 
3169 2 -191.212 1769.62 -410.555 -0.383828 -0.534439 -0.110998 0.744802 
3059 2 -2.46021 1621.92 -375.939 -0.11568 0.0506233 -0.904764 -0.406765 
3060 2 -0.667246 1629.48 -382.164 0.11344 -0.65059 -0.569759 -0.489121 
3075 2 -33.3797 1695.99 -460.987 -0.969587 -0.206386 0.107823 -0.0753709 
3076 2 -35.9142 1692.41 -452.158 -0.403295 -0.0472708 0.225256 -0.885652 
3079 2 -33.9526 1674.39 -429.461 0.796385 0.210109 -0.11644 0.555038 
3077 2 -36.3636 1687.84 -443.411 0.33352 0.129218 0.370269 -0.857303 
3078 2 -35.1381 1680.18 -437.358 0.916277 0.292156 0.17081 -0.214255 
3080 2 -33.9612 1669.86 -420.583 -0.0579242 0.0690999 -0.17641 0.980178 
3081 2 -31.7422 1665.94 -411.658 -0.842878 -0.210268 -0.195843 0.45496 
3082 2 -30.3698 1661.62 -402.904 -0.957281 -0.183949 -0.00760218 -0.222974 
3074 3 -4.9037 1695.26 -417.738 -0.388127 -0.202511 0.355027 -0.826016 
3073 1 -3.33836 1724.07 -437.678 -0.434197 -0.200292 0.418689 -0.772046 
3068 2 29.2891 1698.6 -387.619 0.510862 -0.761144 -0.355425 -0.182629 
3072 2 22.5998 1735.6 -399.992 -0.610054 0.724419 0.320841 0.0105921 
3070 2 27.0133 1717.24 -394.105 0.0118783 -0.187335 0.797671 0.573136 
3071 2 25.549 1726.51 -397.129 -0.431781 0.350816 0.719169 0.416281 
3066 2 24.9342 1679.5 -389.661 -0.5844 0.260458 -0.554207 -0.532441 
3083 2 -29.716 1656.47 -394.327 -0.404748 -0.0815775 0.209621 -0.886331 
3084 2 -30.5375 1652.78 -385.116 0.50319 0.182839 0.306354 -0.787094 
3067 2 27.755 1688.87 -388.41 0.143607 -0.203979 -0.59709 -0.762399 
3069 2 28.6407 1707.88 -391.232 0.507412 -0.720823 0.353729 0.312767 
3085 2 -31.3015 1646.14 -377.936 0.949324 0.265048 0.0285299 -0.166491 
3065 2 21.8945 1670.24 -390.963 -0.745426 0.651233 -0.121195 0.0744838 
3064 2 18.499 1661.15 -393.373 -0.436081 0.429701 0.43663 0.659201 
3062 2 7.84528 1645.04 -391.066 0.588927 -0.498206 0.61359 0.168711 
3063 2 14.0846 1652.38 -393.875 0.253755 0.0923693 0.68925 0.672318 
3061 2 3.69653 1636.99 -387.141 0.516604 -0.818778 0.021665 -0.249507 
3086 2 -31.0589 1640.74 -369.685 0.717395 0.294043 -0.0476583 0.629771 
3087 2 -29.1829 1635.32 -361.674 -0.0404979 0.170934 -0.35924 0.916563 
3223 2 -359.854 1858 -387.694 0.0868647 0.218906 0.926291 -0.294142 
3222 2 -359.84 1864.2 -379.925 -0.189553 -0.506126 0.78227 -0.309775 
3224 2 -359.723 1853.26 -396.391 0.139623 0.901367 0.407926 0.0404818 
3221 2 -358.544 1867.51 -370.6 -0.154735 -0.929662 0.332003 0.0395005 
3183 2 -317.745 1773.68 -438.468 -0.900575 0.0908479 -0.414034 0.0963746 
3184 2 -310.487 1774.42 -431.795 -0.65591 -0.13908 -0.428897 -0.605381 
3225 2 -357.171 1851.33 -405.772 0.00745708 0.853011 -0.428875 0.297294 
3185 2 -303.862 1777.45 -425.158 0.14416 -0.218602 -0.315336 -0.912137 
3188 2 -292.035 1793.86 -403.984 0.218836 0.184375 0.321513 0.902633 
3189 2 -288.668 1798.98 -396.422 -0.552946 0.0915128 -0.0555046 0.826315 
3190 2 -286.208 1799.59 -386.833 -0.963617 0.0230372 -0.192776 0.183711 
3187 2 -296.257 1789.7 -411.839 0.865146 -0.131748 0.240756 0.419763 
3191 2 -283.16 1799.29 -377.524 -0.767208 0.0730142 -0.159798 -0.616867 
3192 2 -282.77 1802.84 -368.248 0.190992 -0.0719725 -0.259364 -0.943966 
3186 2 -300.903 1783.15 -417.575 0.791869 -0.459779 0.0716071 -0.3955 
3235 1 -291.115 1868.69 -499.62 0.941967 -0.178324 -0.278718 -0.0567078 
3226 2 -352.908 1848.9 -414.29 -0.29822 0.286358 -0.891105 0.187072 
3227 2 -346.636 1847.26 -421.724 -0.255808 -0.386305 -0.880562 -0.0997066 
3228 2 -341.582 1846.63 -430.238 -0.126199 -0.896116 -0.270572 -0.328391 
3234 2 -301.332 1835.13 -468.033 -0.50877 -0.321226 -0.798709 0.00557275 
3233 2 -309.706 1838.03 -463.526 -0.319712 0.433165 -0.740154 0.402896 
3232 2 -315.854 1844.19 -458.493 0.331594 0.858749 -0.138537 0.365245 
3231 2 -323.182 1847.83 -453.037 0.459438 0.576375 0.654146 0.16971 
3230 2 -330.549 1846.58 -446.703 0.425798 -0.135702 0.894574 0.00431834 
3229 2 -335.823 1846.32 -438.311 0.0969803 -0.865558 0.406804 -0.275526 
3236 3 -311.415 1885.47 -476.577 0.947299 -0.142506 -0.285768 -0.0255567 
3238 2 -295.542 1913.29 -507.258 -0.35225 -0.311185 0.138842 0.871669 
3239 2 -301.43 1913.49 -499.35 -0.92662 -0.127145 0.313205 0.164655 
3240 2 -306.436 1911.89 -490.813 -0.656936 0.316351 0.255358 -0.634941 
3241 2 -313.302 1912.75 -483.468 0.0293587 0.423297 -0.295064 -0.856093 
3243 2 -328.476 1920.36 -473.299 0.885693 -0.318722 -0.334532 0.0452985 
3242 2 -320.874 1916.64 -478.221 0.682785 0.0733419 -0.541364 -0.485129 
3244 2 -335.092 1924.6 -467.366 0.51378 -0.293676 0.144461 0.793042 
3162 2 -146.124 1774.74 -448.855 -0.471878 0.0201989 0.498676 0.726805 
3163 2 -150.439 1781.87 -443.507 -0.944916 0.105802 0.309631 0.00823817 
3168 2 -183.168 1775.36 -411.642 0.345792 -0.332092 -0.598903 0.641449 
3167 2 -176.173 1780.71 -416.275 0.826349 0.194992 -0.481376 0.217721 
3166 2 -167.928 1784.09 -420.46 0.597168 0.479305 -0.259287 -0.588581 
3165 2 -161.589 1785.8 -427.94 -0.0284667 0.327647 0.144776 -0.933208 
3164 2 -156.85 1784.95 -436.399 -0.697444 0.197902 0.160243 -0.669872 
3463 2 -569.843 2064.75 -505.32 -0.0248292 0.940425 -0.281151 -0.189572 
3462 2 -564.785 2059.99 -498.226 -0.329029 0.839593 0.402707 -0.157009 
3461 2 -563.552 2053.22 -491.075 -0.20751 0.417817 0.826128 0.316041 
3460 2 -562.599 2045.51 -484.947 0.123439 -0.365236 0.807505 0.446432 
3459 2 -562.6 2037.98 -478.332 0.352742 -0.890818 0.271677 0.0906004 
3458 2 -562.744 2029.64 -472.917 0.297262 -0.681637 -0.591907 -0.310889 
3457 2 -563.26 2020.43 -469.381 -0.0410409 0.043485 -0.809508 -0.584056 
3456 2 -562.941 2011.08 -472.535 -0.571655 0.516644 -0.371525 -0.517938 
3453 2 -557.689 1982.83 -479.173 0.321775 -0.264395 0.537154 0.7335 
3454 2 -557.877 1992.58 -477.501 -0.333053 0.120343 0.542304 0.761905 
3455 2 -560.182 2001.78 -474.575 -0.748614 0.579974 0.31261 0.0740482 
3452 3 -525.263 2009.63 -509.517 -0.282459 0.577314 -0.530762 -0.552465 
3451 1 -513.966 1979 -496.685 -0.27359 0.617851 -0.514709 -0.527715 
3255 2 -366.91 1955.17 -370.148 -0.480367 0.0978232 -0.1073 -0.864966 
3254 2 -366.643 1952.9 -379.824 -0.930089 0.0852586 -0.0428764 -0.35472 
3253 2 -363.713 1951.6 -389.138 -0.86348 -0.0262077 0.129979 0.486642 
3424 1 -438.93 2076.93 -503.711 -0.0774599 0.360918 -0.904393 -0.214035 
3352 2 -288.458 2066.84 -513.722 0.663745 -0.648762 -0.324578 0.182207 
3252 2 -360.358 1950.98 -398.41 -0.164606 -0.147789 0.0760207 0.972257 
3245 2 -339.723 1929.4 -460.151 -0.225937 -0.00507899 0.226955 0.947322 
3246 2 -341.487 1934.38 -451.682 -0.869741 0.0370769 0.175949 0.459584 
3247 2 -344.869 1936.16 -442.581 -0.917794 0.212867 0.0597834 -0.329801 
3251 2 -358.744 1947.43 -407.646 0.554884 -0.174585 0.0796109 0.809498 
3248 2 -346.75 1939.86 -433.599 -0.22989 0.300753 -0.0198284 -0.925368 
3249 2 -351.256 1941.77 -425.161 0.564122 0.095283 -0.270369 -0.77433 
3250 2 -355.772 1944.58 -416.697 0.970129 -0.141186 -0.184403 0.0700835 
3351 2 -281.981 2060.73 -509.209 0.40141 -0.166901 -0.856573 -0.278022 
3350 2 -275.263 2054.07 -506.245 -0.0188973 0.592762 -0.548653 -0.589285 
3349 2 -270.674 2046.41 -501.901 -0.47917 0.836088 0.163776 -0.211022 
3343 1 -267.91 2019.25 -436.504 -0.551275 0.743466 0.3773 0.0316051 
3342 2 -282.067 2043.06 -398.272 -0.912773 -0.378158 0.122779 -0.0936383 
3341 2 -280.766 2050.07 -405.16 -0.671625 -0.315624 -0.203579 0.638637 
3340 2 -276.903 2058.58 -408.56 0.168267 -0.125987 -0.567281 0.796245 
3344 3 -281.938 2048.54 -449.902 -0.560401 0.730635 0.389139 0.0263467 
3345 2 -257.655 2016.07 -482.495 0.548102 -0.642701 -0.482251 -0.232278 
3346 2 -260.366 2025.49 -484.255 0.33475 -0.872731 0.161772 0.316407 
3347 2 -264.482 2032.18 -490.215 0.0569554 -0.350036 0.817852 0.453154 
3339 2 -272.854 2067.41 -410.347 0.686491 0.414416 -0.505412 0.318665 
3348 2 -266.369 2040.02 -495.784 -0.38821 0.400721 0.808994 0.185051 
3303 2 -249.865 2059.94 -459.669 0.0772539 -0.27277 0.840912 0.460972 
3302 2 -246.518 2053.12 -453.317 0.3491 -0.881438 0.214723 0.234712 
3301 2 -243.408 2044.72 -449.307 0.472342 -0.665521 -0.541416 -0.2021 
3300 2 -236.594 2039.15 -444.766 0.286159 0.152783 -0.871811 -0.367037 
3299 2 -230.338 2031.82 -442.471 -0.202598 0.626225 -0.489126 -0.572321 
3298 2 -224.443 2023.96 -444.235 -0.699682 0.62022 0.185403 -0.302321 
3276 2 -222.489 1955.28 -372.567 -0.654686 0.386407 -0.589448 0.273179 
3275 2 -231.807 1954.32 -369.592 -0.169996 0.781879 -0.118678 0.587947 
3297 2 -218.442 2016.6 -447 -0.68205 0.214012 0.546692 0.436045 
3277 2 -213.065 1957.62 -373.228 -0.477701 -0.179038 -0.825797 -0.240428 
3304 2 -250.339 2067.52 -465.861 -0.277856 0.525751 0.769152 0.234068 
3274 2 -240.853 1955.41 -365.8 0.368026 0.726495 0.431532 0.387997 
3338 2 -268.339 2076.33 -410.876 0.65706 0.699153 -0.0482498 -0.277722 
3305 2 -252.203 2074.39 -472.795 -0.584697 0.806928 0.0835316 -0.0044766 
3296 2 -210.399 2013.24 -451.752 -0.140239 -0.445447 0.354876 0.809921 
3278 2 -203.988 1960.37 -376.616 -0.138683 -0.789725 -0.261367 -0.537392 
3288 2 -127.095 1960.94 -435.661 0.331126 0.764726 0.511064 0.210625 
3287 2 -133.363 1963.75 -428.469 0.336901 -0.0138794 0.924432 -0.178132 
3286 2 -140.363 1964.5 -421.507 0.265581 -0.698961 0.59841 -0.287795 
3285 2 -148.419 1964.75 -415.735 -0.017014 -0.874306 -0.0717153 -0.479747 
3284 2 -156.167 1965.97 -409.623 -0.467059 -0.419892 -0.763981 -0.147918 
3279 2 -194.985 1960.89 -380.678 0.294659 -0.733523 0.509149 -0.340422 
3280 2 -187.112 1962.54 -386.756 0.543002 -0.0554409 0.822888 0.157893 
3281 2 -178.328 1965.37 -390.245 0.337991 0.693994 0.527522 0.354761 
3282 2 -169.837 1964.79 -395.541 -0.149123 0.903113 -0.186182 0.35705 
3283 2 -162.879 1966.53 -402.471 -0.296358 0.473321 -0.812169 0.168883 
3289 1 -152.364 1977.44 -471.89 -0.926384 0.26186 0.172424 -0.208596 
3291 2 -187.017 2003.22 -490.932 -0.784026 0.177385 0.181312 -0.566536 