ITEM: TIMESTEP
100000000
ITEM: NUMBER OF ATOMS
4067
ITEM: BOX BOUNDS pp pp pp
-4.6310929470000001e+03 4.6704658980000004e+03
-4.6310929470000001e+03 4.6704658980000004e+03
-4.6310929470000001e+03 4.6704658980000004e+03
ITEM: ATOMS id type x y z c_q[1] c_q[2] c_q[3] c_q[4] 
4053 2 -642.343 2958.26 -671.92 0.339888 -0.0928101 -0.219316 0.909815 
4049 2 -647.817 2964.94 -709.147 -0.546629 -0.105952 -0.132438 -0.820019 
4047 2 -654.529 2966.2 -727.318 -0.521417 0.192287 -0.054721 0.829552 
4048 2 -650.063 2967.05 -718.515 -0.981835 -0.108034 -0.133139 0.0812548 
4050 2 -644.791 2964.8 -699.676 0.205719 -0.14087 0.132348 -0.959333 
4051 2 -641.106 2962.21 -690.839 0.883361 0.0642677 -0.0170317 -0.463954 
4052 2 -641.084 2962.05 -680.962 0.924049 0.118781 -0.138241 0.336028 
4045 1 -620.941 2994.11 -745.278 0.466557 -0.219852 0.161103 0.841448 
4046 3 -628.946 3009.63 -714.924 0.489783 -0.253839 0.150411 0.820399 
4040 2 -609.955 3032.32 -710.505 0.00148239 -0.984795 -0.0194465 -0.172621 
4041 2 -607.15 3032.35 -719.909 0.235045 -0.595968 0.764549 -0.0710063 
4042 2 -602.87 3033.14 -728.808 0.110592 0.187717 0.954342 0.204359 
4043 2 -599.565 3035.94 -737.625 0.223284 0.911841 0.265855 0.219117 
4044 2 -594.766 3033.39 -745.929 -0.0678684 0.758297 -0.573717 0.302041 
4039 2 -617.129 3032.42 -703.672 -0.346349 -0.55185 -0.733898 -0.19209 
4038 2 -622.121 3033.08 -695.124 -0.232198 0.288763 -0.924405 0.0904175 
4037 2 -627.9 3031.79 -687.182 -0.117477 0.8901 -0.349172 0.268328 
4036 2 -631.188 3029.96 -678.132 -0.00238468 0.869283 0.463093 0.172876 
4035 2 -633.93 3030.25 -668.666 0.135008 0.220004 0.965821 -0.0236922 
2698 2 -352.367 917.833 -515.539 0.0235968 -0.613407 -0.0981472 0.78329 
2697 2 -342.826 920.145 -516.785 0.621879 -0.235215 -0.616099 0.422329 
3536 2 -705.025 2214.5 -522.104 0.38171 -0.908708 0.0480266 -0.161987 
3537 2 -702.943 2222.01 -528.329 0.243211 -0.59081 0.708546 0.29959 
3538 2 -702.557 2229.22 -535.003 -0.120587 0.252018 0.864881 0.417045 
3535 2 -709.212 2208.77 -515.161 -0.00570731 -0.648076 -0.644377 -0.405885 
3533 3 -663.938 2219.73 -514.927 -0.557206 0.64594 -0.425848 -0.301556 
3422 2 -419.808 2226.28 -523.4 -0.163905 0.616528 0.684228 0.353355 
3424 1 -371.687 2226.49 -525.759 0.462465 0.420376 0.365962 -0.689552 
3433 2 -369.496 2143.76 -516.947 -0.59199 -0.619242 0.296966 0.42178 
3421 2 -422.654 2218.4 -518.011 0.198665 -0.0537208 0.865844 0.456026 
3432 2 -362.485 2150.55 -518.05 -0.113567 -0.533307 -0.31047 0.778649 
3434 2 -378.246 2139.08 -516.028 -0.568569 -0.102039 0.751583 -0.318497 
3435 2 -385.714 2132.72 -516.771 0.0543373 0.350818 0.530432 -0.769816 
3436 2 -390.252 2123.98 -515.411 0.771264 0.521064 0.128878 -0.342103 
3431 2 -357.637 2159.11 -518.093 0.373413 0.00239904 -0.677544 0.633634 
3430 2 -351.253 2166.64 -517.172 0.684232 0.535979 -0.494058 -0.0214242 
3429 2 -343.687 2172.77 -515.422 0.346884 0.761424 0.0325579 -0.546668 
3428 2 -338.765 2181.27 -517.2 -0.0159369 0.248289 0.530229 -0.810528 
3427 2 -336.387 2190.84 -518.34 -0.560556 -0.407857 0.558678 -0.455312 
3426 2 -333.432 2200.26 -517.204 -0.660097 -0.732886 0.0411658 0.159547 
3539 2 -702.005 2236.69 -541.397 -0.170251 0.906826 0.376372 0.0838184 
3540 2 -701.738 2240.89 -550.468 -0.17212 0.841988 -0.507343 -0.0635205 
3541 2 -701.52 2243.76 -559.85 -0.242753 0.0703915 -0.950446 -0.181022 
3542 2 -697.543 2247.46 -568.257 0.00944232 -0.626862 -0.596431 -0.501224 
3543 2 -691.141 2252.83 -573.624 0.316181 -0.811999 0.196941 -0.449334 
3544 2 -682.583 2256.57 -576.795 0.551249 -0.382659 0.741315 -0.0122099 
3545 2 -673.856 2258.92 -580.841 0.273763 0.391173 0.779165 0.406127 
3546 2 -666.232 2263.06 -585.835 -0.183701 0.801134 0.26997 0.501551 
3547 2 -658.905 2268.24 -590.044 -0.602192 0.715425 -0.319999 0.152094 
3568 2 -652.277 2365.32 -525.401 0.79371 0.165245 -0.0973485 -0.57727 
3548 2 -653.146 2275.7 -592.626 -0.425722 0.228646 -0.772168 -0.412599 
3500 2 -558.996 2310.47 -584.493 -0.0563314 0.142926 0.839353 0.521427 
3501 2 -558.42 2319.47 -588.701 -0.411661 0.691522 0.444766 0.393085 
3549 2 -648.714 2283.98 -595.757 0.0181945 -0.619189 -0.592916 -0.514513 
3550 2 -642.613 2290.3 -600.604 0.456243 -0.847114 -0.000328663 -0.272469 
3551 2 -638.179 2298.05 -604.897 0.43408 -0.51656 0.68964 0.262938 
3552 2 -635.235 2305.22 -610.897 0.156985 0.205656 0.861665 0.436572 
3553 2 -630.964 2312.77 -615.846 -0.244499 0.683887 0.385475 0.569147 
3554 2 -624.972 2320.27 -618.535 -0.621686 0.731241 -0.231916 0.158142 
3555 2 -619.662 2328.4 -620.269 -0.301597 0.395276 -0.817592 -0.290413 
3556 2 -616.93 2335.86 -626.26 0.0714536 -0.250207 -0.835272 -0.484368 
3557 2 -616.511 2343.86 -632.005 0.341781 -0.881017 -0.270568 -0.183817 
3558 2 -615.142 2350.54 -639.283 0.367335 -0.838973 0.38666 0.108092 
3560 3 -634.783 2358.05 -591.894 0.910454 0.372497 0.0806449 0.160673 
3506 3 -563.892 2353.17 -555.726 -0.716805 -0.436346 0.245202 0.485457 
3505 1 -534.125 2365.65 -569.25 -0.670844 -0.480517 0.274276 0.493807 
3502 2 -558.049 2328.51 -592.758 -0.443349 0.844837 -0.295983 -0.045673 
3503 2 -556.452 2336.21 -598.602 -0.247663 0.293972 -0.86636 -0.318849 
3504 2 -553.629 2342.7 -605.559 0.0928286 -0.451376 -0.802503 -0.378989 
3499 2 -559.055 2302.52 -578.434 0.317299 -0.641551 0.641627 0.275768 
3498 2 -559.337 2298.68 -569.17 0.225311 -0.952367 -0.1744 -0.108707 
3497 2 -559.874 2296.08 -559.494 0.0241803 -0.502833 -0.858655 -0.0963665 
3496 2 -559.754 2291.04 -550.981 -0.0737891 0.304546 -0.908872 -0.275243 
3495 2 -557.437 2286.16 -542.758 -0.197699 0.907666 -0.279999 -0.242195 
3567 2 -651.414 2369.39 -534.351 0.0620832 0.0576557 0.197568 -0.976621 
3566 2 -651.967 2376.54 -541.163 -0.610746 -0.29242 0.261542 -0.687805 
3494 2 -552.125 2282.2 -535.495 -0.39998 0.704713 0.570898 -0.132176 
3507 2 -531.807 2378.77 -523.938 0.158764 -0.156146 -0.561792 0.796745 
3493 2 -547.982 2278.24 -527.502 -0.236216 -0.0392046 0.943479 0.229157 
3508 2 -535.706 2370.49 -519.927 -0.470297 -0.505874 -0.207034 0.692856 
3509 2 -541.31 2363.2 -516.259 -0.735967 -0.486568 0.465981 0.0668362 
3512 2 -560.026 2340.6 -514.396 0.742976 0.647265 -0.0498189 -0.162947 
3565 2 -651.411 2383.03 -548.498 -0.933662 -0.357841 0.0124381 -0.0083359 
3569 2 -655.104 2363.59 -516.154 0.877156 0.335916 -0.189912 0.285816 
3559 1 -643.524 2380.86 -616.967 0.883576 0.409108 0.107791 0.200762 
3492 2 -546.233 2274.26 -518.625 0.102506 -0.739232 0.647503 0.154172 
3510 2 -548.679 2356.75 -515.129 -0.350941 0.0458595 0.659094 -0.663575 
3511 2 -554.222 2348.57 -514.437 0.311838 0.6061 0.326379 -0.654887 
3423 2 -418.17 2232.86 -530.605 -0.355226 0.921203 -0.152553 0.0438905 
3705 2 -826.687 2466.68 -534.759 -0.104027 -0.448659 -0.861325 -0.214481 
3731 2 -828.859 2519.83 -536.372 0.437684 -0.301373 0.276231 -0.800814 
3704 2 -834.137 2466.1 -528.144 -0.395853 0.283918 -0.869407 0.0826003 
3703 2 -842.504 2462.93 -523.682 -0.291875 0.812708 -0.0933665 0.495577 
3706 2 -823.817 2469.01 -543.979 0.163661 -0.931776 -0.120927 -0.300641 
3730 2 -834.875 2521.48 -544.166 -0.39004 -0.302574 -0.129903 -0.859909 
3729 2 -842.009 2523.09 -550.665 -0.893438 -0.137862 -0.403912 -0.140064 
3728 2 -845.974 2526.68 -559.092 -0.590639 0.00789652 -0.251329 0.766757 
3732 2 -821.443 2517.99 -529.93 0.837737 -0.0105146 0.49898 -0.221596 
3727 2 -847.644 2530.29 -568.173 0.28029 0.09849 -0.162224 0.940968 
3702 2 -850.786 2461.74 -518.284 0.223444 0.748174 0.46332 0.419098 
3707 2 -818.754 2472.64 -551.814 0.258836 -0.78346 0.561261 -0.0646582 
3708 2 -814.799 2476.25 -559.948 0.401423 -0.145145 0.824928 0.370523 
3709 2 -809.443 2483.59 -564.04 -0.20029 0.484559 0.699257 0.485928 
3710 2 -806.381 2492.23 -567.844 -0.463832 0.790027 0.0727702 0.394235 
3711 2 -800.626 2499.48 -571.24 -0.430081 0.609832 -0.665563 -0.0127339 
3712 2 -795.4 2505.42 -576.998 -0.352585 -0.319417 -0.826785 -0.300139 
3713 2 -787.239 2508.63 -581.547 0.121291 -0.814834 -0.265535 -0.500825 
3714 2 -779.81 2512.89 -586.458 0.597671 -0.708776 0.369227 0.0640152 
3715 2 -775.103 2520.99 -589.898 0.236545 -0.258684 0.781048 0.516811 
3716 2 -774.086 2530.14 -593.633 -0.347076 0.425666 0.71428 0.433764 
3733 2 -813.163 2516.22 -524.824 0.727207 0.294384 0.134414 0.605343 
3734 2 -807.907 2513.31 -516.874 0.0208451 0.271492 -0.104437 0.956531 
3561 2 -668.883 2395.28 -579.808 0.896635 0.0438648 0.374864 -0.231515 
3564 2 -652.254 2384.96 -558.255 -0.629786 -0.0403436 -0.127849 0.765112 
3563 2 -655.569 2387.97 -567.239 0.110925 0.225242 -0.168375 0.953211 
3562 2 -661.971 2392.54 -573.366 0.75312 0.391223 0.170699 0.500617 
3726 2 -850.403 2537.51 -574.502 0.831017 0.451627 -0.0514269 0.320623 
3723 2 -868.656 2555.59 -586.31 -0.519502 -0.644267 0.146244 -0.541895 
3724 2 -863.472 2547.08 -585.897 0.112286 -0.303278 0.333212 -0.885655 
3725 2 -856.186 2542.71 -580.666 0.805885 0.142723 0.433651 -0.376997 
3721 1 -826.175 2571.75 -598.995 0.677051 0.491703 -0.264256 0.479581 
3722 3 -819.454 2539 -588.644 0.623582 0.501833 -0.255537 0.542227 
3717 2 -775.576 2539.29 -597.376 -0.609491 0.755561 0.234556 0.0512947 
3718 2 -776.871 2548.89 -599.219 -0.437484 0.614059 -0.467403 -0.461599 
3719 2 -778.659 2558.38 -601.747 0.122198 -0.119456 -0.798884 -0.576699 
3720 2 -779.512 2567.85 -604.596 0.527781 -0.678803 -0.441552 -0.256331 
3829 1 -567.844 2629.08 -577.939 0.791518 -0.419845 -0.0618902 -0.439772 
3830 3 -557.177 2652.63 -554.382 0.805193 -0.450196 -0.0373615 -0.384177 
3828 2 -584.657 2611.98 -537.277 -0.37193 -0.885064 0.276604 0.0426474 
3827 2 -581.928 2618.58 -530.412 -0.211908 -0.747409 -0.520819 0.353869 
3826 2 -578.995 2623.15 -522.014 0.128472 -0.0609325 -0.953446 0.265937 
3831 2 -541.009 2658.54 -603.279 0.901974 -0.360471 0.177616 -0.157972 
3832 2 -536.281 2664.89 -597.356 0.666608 -0.00554312 0.275072 0.692776 
3833 2 -532.499 2667.79 -588.645 -0.112321 0.221241 0.199087 0.948051 
3834 2 -528.815 2671.76 -580.426 -0.870591 0.286318 -0.134155 0.376955 
3835 2 -524.513 2674.81 -572.277 -0.65779 -0.07517 -0.140964 -0.736065 
3836 2 -520.406 2675.86 -563.255 0.22315 -0.116971 -0.0705473 -0.965166 
3837 2 -518.531 2678.22 -553.898 0.915616 -0.150819 0.157934 -0.337576 
3838 2 -514.611 2679.63 -544.896 0.818394 -0.0534256 0.119093 0.559638 
3839 2 -512.835 2682.78 -535.584 0.0558134 -0.0488462 0.086134 0.993519 
3840 2 -512.942 2684.57 -525.933 -0.847101 0.0175053 0.0217479 0.530699 
3841 2 -513.11 2684.77 -516.005 -0.97936 0.0489905 0.00266125 -0.196079 
3936 2 -728.671 2835.83 -528.823 0.194231 -0.0247252 -0.919187 0.341699 
3935 2 -724.593 2841.99 -522.297 0.395434 0.770738 -0.499518 -0.00876777 
3937 1 -772.823 2852.34 -529.97 0.794494 -0.310142 0.446974 0.269825 
4016 2 -732.104 2967.78 -615.806 -0.0847698 -0.875298 0.144203 0.453733 
4013 2 -704.646 2972.06 -611.316 0.391168 0.632688 -0.343011 -0.573617 
4014 2 -714.57 2971.42 -610.513 0.739629 0.167085 -0.649238 -0.0593376 
4017 2 -740.194 2967.7 -621.42 -0.408565 -0.349688 0.829422 0.151169 
4015 2 -724.434 2970.12 -610.07 0.248089 -0.646779 -0.592947 0.410539 
4012 2 -695.555 2976.06 -611.917 -0.203871 0.548035 0.421843 -0.692924 
4065 2 -709.454 2882.7 -640.611 0.485382 0.669811 -0.556397 -0.0786093 
4064 2 -702.833 2888.58 -636.047 0.279966 0.830737 0.190576 -0.441787 
4063 2 -696.387 2894.98 -632.355 -0.154389 0.356947 0.729337 -0.562868 
4062 2 -689.374 2901.89 -631.457 -0.59125 -0.360474 0.689614 -0.211931 
4061 2 -682.935 2908.91 -634.01 -0.681333 -0.585135 0.0282088 0.43887 
4066 2 -715.463 2876.66 -645.837 0.345738 0.122546 -0.89522 0.253042 
4067 2 -721.256 2871.24 -651.911 0.0362201 -0.598824 -0.662294 0.448847 
4011 2 -686.315 2978.84 -613.737 -0.716017 0.0699693 0.63177 -0.2886 
4060 2 -678.836 2917.8 -634.5 -0.0387661 -0.29758 -0.601942 0.740007 
4010 2 -679.004 2985.42 -612.576 -0.624089 -0.67116 0.317656 0.243211 
4059 2 -672.654 2924.65 -638.198 0.773158 0.206483 -0.506467 0.321064 
3939 2 -806.031 2884.89 -521.659 -0.116897 0.172433 0.30073 0.930679 
3938 3 -754.988 2878.13 -514.405 0.787071 -0.337574 0.416286 0.305399 
3934 2 -722.968 2848.56 -515.051 0.291788 0.87191 0.329473 -0.214666 
4058 2 -668.715 2933.24 -641.161 0.670881 0.640068 0.0775711 -0.366353 
4009 2 -670.463 2990.53 -611.519 0.0357938 -0.626847 -0.349936 0.695217 
4054 2 -645.063 2955.35 -662.986 -0.470715 -0.354857 -0.0671698 0.80498 
4057 2 -662.859 2939.19 -646.222 0.065747 0.366258 0.3014 -0.87789 
4056 2 -657.312 2945.82 -651.011 -0.653929 -0.0414848 0.483646 -0.580295 
4055 2 -650.503 2951.16 -655.827 -0.883621 -0.323533 0.299588 0.15744 
3996 2 -569.441 2979.29 -552.949 -0.345438 -0.695498 0.502765 0.379714 
3995 2 -561.805 2983.04 -547.823 -0.0198028 -0.826322 -0.262054 0.498124 
3994 2 -553.911 2986.6 -543.05 0.340748 -0.370292 -0.773635 0.38505 
3993 2 -545.977 2991.3 -539.811 0.571973 0.459673 -0.676897 -0.0579453 
3997 2 -577.866 2978.23 -557.962 -0.513509 -0.074488 0.851098 -0.0799564 
3998 2 -585.887 2976.04 -563.189 -0.443239 0.595642 0.518026 -0.424735 
3999 2 -595.531 2976.46 -565.592 -0.16558 0.738359 -0.23699 -0.609298 
4000 2 -603.784 2981.75 -567.468 0.337689 0.268412 -0.845998 -0.313381 
4001 2 -611.239 2985.43 -572.897 0.501551 -0.569785 -0.649876 -0.0381137 
4002 2 -617.477 2991.08 -577.997 0.242972 -0.872742 0.0609602 0.41901 
4019 3 -717.145 3012.51 -608.999 -0.721666 -0.0630056 -0.6877 -0.0479334 
4018 1 -752.009 3012.51 -612.187 -0.733512 0.0245417 -0.679119 -0.0124436 
4021 2 -732.351 3056.24 -599.903 0.796154 0.148456 0.558792 0.17847 
4022 2 -723.078 3055.82 -596.492 0.349199 0.574184 0.34025 0.657725 
4023 2 -713.3 3054.46 -595.937 -0.143923 0.714951 -0.410885 0.547088 
4024 2 -704.352 3051.91 -599.381 -0.479737 0.130511 -0.830807 0.250158 
4025 2 -695.469 3048.68 -602.438 -0.522946 -0.555097 -0.605376 -0.227847 
4026 2 -686.777 3045.8 -606.134 -0.0862382 -0.845529 0.0716544 -0.522024 
4020 2 -742.248 3057.31 -600.946 0.468073 -0.424937 0.495313 -0.595821 
4027 2 -677.97 3043.6 -610.305 0.310528 -0.390986 0.772563 -0.392235 
4028 2 -669.901 3041.1 -615.435 0.496729 0.43184 0.752286 -0.0289807 
3980 2 -673.834 2997.56 -517.105 -0.673812 0.306726 -0.66223 0.115535 
4003 2 -624.517 2995.4 -583.333 -0.109915 -0.590122 0.645391 0.472382 
3981 2 -664.311 2999.69 -518.385 -0.303326 -0.236625 -0.836088 -0.391099 
4004 2 -631.759 2999.87 -588.463 -0.506865 0.0999635 0.845142 0.137224 
4005 2 -640.079 3002.68 -593.056 -0.179429 0.815392 0.391285 -0.387089 
4008 2 -663.615 2995.72 -606.652 0.365218 -0.171884 -0.852753 0.331489 
4007 2 -655.852 2999.67 -601.882 0.522614 0.441102 -0.729571 -0.0053802 
4006 2 -646.829 3003.16 -600.373 0.451952 0.71364 -0.284625 -0.453261 
4029 2 -662.925 3036.29 -620.831 0.321091 0.815224 0.326864 0.354218 
4030 2 -655.61 3033.5 -626.85 -0.0843073 0.846293 -0.356644 0.386632 
4034 2 -634.945 3031.42 -658.864 -0.054102 -0.707592 0.703175 -0.0439409 
3992 3 -593.625 3008.15 -527.447 0.0101896 0.633513 0.557114 -0.536826 
4031 2 -648.472 3031.76 -633.443 -0.239711 0.309788 -0.884745 0.25258 
4032 2 -642.223 3029.43 -640.783 -0.115927 -0.533705 -0.808166 -0.220427 
4033 2 -637.892 3031.82 -649.405 -0.0049516 -0.977017 -0.137086 -0.163156 
3984 2 -644.04 3018.3 -523.745 0.629195 -0.158251 0.570275 0.503842 
3985 2 -637.964 3025.59 -520.851 0.219028 0.33923 0.498031 0.767408 
3986 2 -631.012 3032.13 -518.26 -0.150796 0.60878 0.091785 0.773449 
3982 2 -656.641 3003.81 -523.123 0.310003 -0.750029 -0.293477 -0.5052 
3983 2 -650.287 3010.91 -525.647 0.723432 -0.610503 0.231784 -0.224073 
3987 2 -622.364 3035.36 -514.8 -0.714356 0.5273 -0.282051 0.363451 
3991 1 -566.243 3026.01 -515.333 0.00294149 0.636111 0.526972 -0.563608 
2751 2 -544.788 796.709 -459.902 -0.498348 -0.246776 -0.485736 -0.674397 
2752 2 -536.72 800.535 -455.754 0.17893 -0.501676 -0.049401 -0.844905 
2753 2 -528.324 802.999 -451.097 0.791199 -0.37665 0.387795 -0.285928 
2749 1 -575.637 821.745 -434.443 0.301654 -0.54336 0.00506106 -0.783415 
2750 3 -545.049 828.419 -418.836 0.329282 -0.528403 0.0550893 -0.780595 
2754 2 -520.633 806.816 -446.18 0.703787 0.0313486 0.476742 0.525756 
2748 2 -586.908 854.169 -402.053 -0.422627 0.590337 0.494677 -0.477685 
2747 2 -577.247 854.438 -399.899 -0.633403 0.0486084 0.771061 -0.043617 
2746 2 -567.748 856.612 -398.533 -0.486428 -0.577344 0.475086 0.452056 
2755 2 -513.594 810.918 -440.621 0.153393 0.153548 0.0532572 0.974709 
2756 2 -509.912 812.142 -431.58 -0.740342 0.168231 -0.00308858 0.650832 
2757 2 -506.658 814.364 -422.439 -0.968311 0.188563 -0.112283 -0.119209 
2758 2 -504.663 817.441 -413.277 -0.473316 0.117531 -0.240191 -0.839325 
2759 2 -503.986 822.565 -404.718 0.350428 -0.117836 -0.0940985 -0.92437 
2760 2 -502.275 825.129 -395.24 0.947199 -0.104648 0.192317 -0.234258 
2761 2 -499.414 826.413 -385.941 0.878534 0.0116249 0.128977 0.459792 
2762 2 -497.33 827.609 -376.397 0.342305 0.300862 -0.0133358 0.890018 
2763 2 -491.646 825.836 -368.528 -0.524893 0.132894 -0.466653 0.699329 
2764 2 -485.195 820.342 -363.46 -0.844629 -0.390402 -0.363173 0.0478945 
2743 2 -542.169 870.383 -394.936 0.740169 0.165588 -0.631382 0.161515 
2744 2 -551.278 866.335 -394.678 0.247148 -0.324804 -0.715174 0.567403 
2745 2 -558.749 860.401 -397.235 -0.210601 -0.77323 -0.0756875 0.593325 
2742 2 -535.157 877.066 -397.374 0.583454 0.590164 -0.0903842 -0.550562 
2741 2 -528.011 883.971 -397.139 0.0468334 0.507186 0.452569 -0.731949 
2740 2 -521.719 891.448 -395.995 -0.451271 -0.0396612 0.773713 -0.442889 
2739 2 -515.536 898.525 -393.142 -0.601688 -0.62359 0.498204 0.0300045 
2699 2 -361.675 915.912 -512.874 -0.574494 -0.450608 0.357043 0.582606 
2738 2 -508.844 905.58 -391.119 -0.350136 -0.740401 -0.21382 0.53244 
2700 2 -370.888 914.662 -509.254 -0.829886 0.0130539 0.548257 -0.102634 
2716 2 -406.337 866.761 -389.737 0.0965317 -0.334465 0.0191017 -0.937257 
2715 2 -412.444 868.478 -397.435 -0.616944 -0.322672 -0.136255 -0.704768 
2714 2 -416.538 874.303 -404.339 -0.918646 -0.267448 -0.269277 0.10978 
2713 2 -420.088 879.918 -411.653 -0.43004 0.0914808 -0.363411 0.821358 
2709 2 -417.076 906.051 -440.152 -0.0346533 -0.0309494 0.50238 -0.863398 
2711 2 -417.969 891.705 -427.074 0.92127 0.355432 -0.134512 0.0826867 
2710 2 -417.339 897.609 -434.989 0.578711 0.285574 0.235406 -0.726722 
2712 2 -419.293 884.888 -420.048 0.454032 0.123567 -0.23098 0.851607 
2708 2 -414.59 911.275 -448.069 -0.79395 -0.171541 0.266361 -0.518911 
2707 2 -412.01 913.63 -457.464 -0.954155 -0.153372 0.117184 0.228766 
2706 2 -408.792 913.598 -466.784 -0.43583 -0.138737 0.117727 0.881444 
2736 2 -493.275 916.947 -388.906 0.571003 0.537668 -0.61667 -0.0677226 
2737 2 -501.327 911.949 -391.562 0.37627 -0.234141 -0.64434 0.623237 
2693 2 -367.183 996.305 -472.047 -0.150657 0.476824 -0.849164 -0.169888 
2694 2 -366.683 1001.19 -480.75 0.0381769 -0.248095 -0.936442 -0.245087 
2692 2 -368.213 991.854 -463.171 -0.261477 0.958223 -0.113829 0.0219507 
2691 2 -371.356 985.335 -456.287 -0.112885 0.676861 0.611661 0.393685 
2735 2 -484.556 920.735 -386.281 0.250705 0.778691 0.0702238 -0.570838 
2734 2 -474.973 923.449 -386.492 -0.356277 0.525097 0.45933 -0.621576 
2731 2 -447.188 933.128 -384.17 0.133358 -0.6474 -0.238527 0.711473 
2732 2 -456.815 931.055 -385.024 -0.583045 -0.535408 0.399697 0.462211 
2733 2 -466.045 927.525 -384.713 -0.574667 -0.0928421 0.765348 -0.274556 
2690 2 -370.587 978.048 -449.487 0.0117637 -0.114427 0.911096 0.395818 
2730 2 -440.578 939.661 -387.805 0.624784 -0.0155716 -0.522236 0.580234 
2705 2 -404.145 914.705 -475.5 0.330531 -0.231912 -0.177329 0.897508 
2729 2 -432.915 944.962 -391.146 0.828762 0.33534 -0.447864 -0.0108607 
2717 2 -400.755 866.45 -381.628 0.767933 -0.295607 0.0922795 -0.560696 
2728 2 -424.072 949.222 -390.592 0.426621 0.695245 -0.124903 -0.564826 
2704 2 -400.298 913.373 -484.505 0.882046 -0.11518 -0.215639 0.402776 
2727 2 -414.325 951.622 -391.414 -0.245736 0.565947 0.34854 -0.705577 
2726 2 -404.839 954.449 -392.346 -0.706035 0.0726666 0.662194 -0.240278 
2725 2 -396.765 956.96 -387.412 -0.478188 -0.596853 0.616078 0.188548 
2703 2 -395.958 912.694 -493.42 0.857909 0.116613 -0.218863 -0.449992 
2696 3 -369.645 949.431 -483.265 -0.161049 0.242597 0.252069 -0.92286 
2724 2 -387.896 960.81 -385.488 -0.230776 -0.783133 -0.0489252 0.57537 
2702 2 -388.097 912.976 -499.443 0.0152958 0.41814 0.0156586 -0.908119 
2701 2 -379.733 913.622 -504.885 -0.519439 0.380517 0.375167 -0.666813 
2723 3 -403.414 911.669 -380.436 0.489307 0.0814435 -0.864674 0.079269 
2718 2 -396.413 869.039 -373.006 0.934531 -0.130144 0.226537 0.241652 
2719 2 -392.956 872.248 -364.407 0.372057 0.318563 0.223031 0.842822 
2689 2 -367.597 971.026 -443.265 0.248954 -0.76262 0.487327 0.344883 
2722 1 -372.664 920.564 -366.212 0.565386 0.109536 -0.814978 0.0644304 
2688 2 -366.578 964.304 -436.195 0.343871 -0.908522 -0.237345 -0.00272737 
2687 2 -364.66 960.026 -427.291 0.196098 -0.29995 -0.908043 -0.216871 
2686 2 -361.365 956.043 -418.808 -0.0115472 0.588685 -0.754842 -0.289016 
2685 2 -355.557 953.937 -410.985 -0.129998 0.951331 0.0311049 -0.277673 
2695 1 -346.809 965.476 -504.346 -0.105892 0.324547 0.269286 -0.900523 
2684 2 -349.419 951.154 -403.786 -0.335448 0.486086 0.806615 -0.0238188 
2683 2 -343.637 948.488 -396.176 -0.304747 -0.203451 0.912795 0.180393 
2682 2 -337.003 944.553 -389.829 0.0676258 -0.825691 0.371853 0.418792 
2681 2 -328.97 940.572 -385.54 0.478172 -0.705351 -0.45244 0.262925 
2680 2 -321.211 935.899 -381.734 0.519419 -0.079117 -0.818613 -0.231986 
2666 2 -226.45 1005.87 -372.151 0.175487 -0.0792464 0.966833 -0.167802 
2665 2 -229.172 1007.32 -362.809 0.057651 -0.812199 0.564461 -0.135622 
2679 2 -313.29 931.791 -377.517 0.174821 0.645476 -0.523461 -0.528003 
2668 1 -224.058 958.259 -366.873 -0.0367013 0.491795 -0.142241 -0.85823 
2667 2 -223.66 1003.21 -381.238 0.241273 0.641295 0.728335 0.00745171 
2678 2 -305.868 928.789 -371.618 -0.250916 0.866876 0.148638 -0.404319 
2677 2 -298.3 926.7 -365.507 -0.410131 0.535886 0.724547 -0.14018 
2929 2 -362.98 1157.5 -403.767 -0.162356 0.561599 -0.569244 -0.578108 
2924 2 -362.999 1128.67 -368.369 0.174908 -0.823305 -0.444237 -0.30697 
2925 2 -358.976 1134.01 -375.523 0.30485 -0.841122 0.445684 0.0307652 
2926 2 -356.924 1140.01 -383.162 0.0254486 -0.318 0.935601 0.151257 
2928 2 -358.382 1149.57 -400.43 -0.488693 0.831671 0.137707 -0.224811 
2927 2 -356.93 1144.07 -392.323 -0.207867 0.474966 0.821789 0.236352 
2930 2 -367.539 1165.77 -406.73 0.347856 -0.13212 -0.784105 -0.496709 
2937 2 -407.712 1216.02 -392.681 0.488165 0.220903 -0.588148 -0.605787 
2939 3 -390.49 1174.79 -365.941 -0.437146 -0.682507 -0.389957 -0.43706 
2936 2 -398.966 1211.71 -394.531 -0.0939389 0.591835 -0.219642 -0.769847 
2935 2 -391.89 1206.21 -398.643 -0.765455 0.502475 0.207499 -0.344298 
2934 2 -386.049 1199.11 -402.352 -0.786079 0.228873 0.471858 0.32718 
2933 2 -382.251 1190.78 -406.008 -0.267277 -0.0521687 0.531643 0.801996 
2932 2 -376.134 1183.29 -407.745 0.467129 -0.582168 0.184969 0.639263 
2931 2 -371.34 1174.71 -408.542 0.72931 -0.59112 -0.341732 -0.0436219 
3008 2 -289.08 1287.37 -390.68 -0.235415 0.400698 -0.831747 0.303675 
3019 1 -294.295 1303.82 -488.74 -0.776525 0.204488 -0.0695523 -0.591909 
3018 2 -249.7 1305.5 -473.223 0.404366 -0.871583 0.269831 -0.0634221 
3017 2 -253.423 1299.17 -466.65 0.17554 -0.801346 -0.464454 -0.333636 
3009 2 -282.397 1283.84 -397.274 -0.311975 -0.28271 -0.905658 -0.0502946 
3007 2 -295.733 1290.86 -384.322 0.10458 0.867765 -0.196268 0.444438 
3006 2 -303.523 1290.83 -378.166 0.264408 0.668673 0.595708 0.357907 
3005 2 -308.88 1288.96 -369.977 0.274205 -0.118173 0.947676 0.112946 
3010 2 -276.72 1282.9 -405.295 -0.0724648 -0.821016 -0.515049 -0.235386 
3011 2 -272.751 1283.35 -414.31 0.167099 -0.882927 0.370931 -0.234366 
3012 2 -267.254 1284.9 -422.402 0.26997 -0.114486 0.949724 0.109701 
3013 2 -261.8 1287.52 -430.268 0.0625046 0.613114 0.743115 0.260701 
3015 2 -257.152 1294.89 -447.871 -0.0989282 0.57646 -0.810482 -0.0320222 
3014 2 -258.012 1290.99 -438.694 -0.250807 0.966097 -0.0535801 0.0296832 
3016 2 -256.309 1296.67 -457.553 -0.120616 -0.311588 -0.92838 -0.162713 
3021 2 -341.035 1306.04 -482.412 0.959967 -0.263086 0.0830631 -0.0484673 
3022 2 -340.243 1311.26 -474.063 0.708999 -0.0526124 0.189496 0.677233 
3004 2 -316.485 1288.08 -363.747 0.267657 -0.768186 0.481574 -0.326094 
3023 2 -337.241 1314.49 -465.202 0.0809763 0.131553 0.151494 0.976313 
3034 2 -387 1360.06 -391.064 0.282239 0.275627 -0.251076 -0.88393 
3048 2 -464.778 1454.89 -379.378 0.467661 -0.443342 0.59197 -0.484059 
3049 2 -455.012 1453.62 -380.941 0.679787 0.216043 0.695804 0.0840937 
3050 2 -445.619 1450.44 -381.251 0.50674 0.646672 0.141791 0.552201 
3051 2 -436.625 1446.29 -380.122 -0.250266 0.441851 -0.453979 0.732146 
3052 2 -427.583 1443 -377.92 -0.863349 0.098123 -0.486133 0.0931377 
3035 2 -392.606 1363.4 -383.741 0.804762 -0.212111 -0.311708 -0.458481 
3033 2 -382.92 1356.17 -399.234 -0.553179 0.345603 0.0125894 -0.757888 
3036 2 -395.808 1369.33 -376.499 0.872731 -0.347067 0.027424 0.342247 
3037 2 -398.033 1374.76 -368.507 0.0605378 -0.305498 0.112989 0.943525 
3032 2 -376.584 1352.79 -405.956 -0.875892 0.266754 0.394274 -0.0787592 
3031 2 -369.264 1350.54 -412.133 -0.701948 -0.0944655 0.380775 0.594437 
3053 2 -419.117 1444.08 -372.831 -0.676409 -0.143626 -0.282814 -0.664725 
3047 3 -444.762 1409.16 -365.433 -0.254912 0.289308 -0.863046 0.3263 
3054 2 -413.017 1445.26 -365.163 0.0159205 -0.182541 0.0456466 -0.982009 
3030 2 -362.423 1346.84 -418.248 0.117021 -0.41526 0.161753 0.887525 
3020 3 -297.352 1318.33 -457.006 -0.785793 0.245029 -0.0256629 -0.567302 
3024 2 -333.997 1317.29 -456.279 -0.739348 0.108382 0.282023 0.601731 
3025 2 -336.599 1322.36 -448.246 -0.932404 0.274475 0.0027874 -0.235112 
3029 2 -354.616 1342.21 -422.271 0.666356 -0.499155 -0.26102 0.488551 
3028 2 -348.296 1335.71 -425.858 0.70758 -0.209924 -0.533943 -0.412514 
3027 2 -342.145 1331.44 -432.398 0.260381 0.256102 -0.361261 -0.857965 
3026 2 -337.185 1326.96 -439.529 -0.516784 0.34477 -0.0317795 -0.78298 
3207 2 -367.691 1634.37 -394.641 0.00556928 -0.990055 0.0401775 0.13471 
3206 2 -365.757 1634.96 -385.018 0.0867709 -0.564402 -0.817676 0.0729797 
3205 2 -362.29 1636.64 -375.854 0.201794 0.216178 -0.953909 0.051037 
3204 2 -359.926 1639.7 -366.635 0.19573 0.939861 -0.27693 -0.0407664 
3208 1 -342.88 1669.6 -413.723 0.830592 -0.0151809 0.207986 -0.51636 
3215 2 -289.727 1703.96 -370.275 -0.680217 -0.0808652 -0.417337 -0.597156 
3214 2 -294.939 1699.97 -377.778 -0.925928 0.244535 -0.247742 0.146577 
3213 2 -299.169 1699.2 -386.594 -0.489482 0.246706 -0.0976255 0.83067 
3212 2 -304.143 1697.29 -394.899 0.104442 0.208657 0.102327 0.966997 
3211 2 -307.312 1699.85 -403.876 0.813376 0.211775 0.0761993 0.536436 
3210 2 -309.367 1702.77 -413.13 0.931693 0.132415 0.174564 -0.289727 
3209 3 -328.904 1666.35 -381.755 0.898295 0.00599044 0.158353 -0.409822 
3216 2 -282.384 1707.52 -364.484 0.084914 -0.41599 -0.132618 -0.895631 
3123 2 -447.796 1806.62 -365.58 -0.853833 0.287862 0.429851 -0.0577348 
3122 2 -439.453 1801.39 -364.697 -0.449581 -0.21537 0.691097 0.523333 
3121 2 -430.825 1796.96 -362.382 0.211882 -0.802152 0.054822 0.555565 
3257 2 -322.369 1891.35 -387.98 0.273235 -0.689832 -0.0482718 0.668689 
3258 2 -331.442 1895.21 -386.108 -0.299902 -0.388093 0.566844 0.661914 
3256 2 -314.661 1886.81 -391.938 0.760804 -0.440971 -0.270077 0.392149 
3255 2 -308.622 1880.15 -396.091 0.762572 -0.198416 -0.505194 -0.351985 
3254 2 -303.607 1871.73 -397.503 0.206611 0.151749 -0.630134 -0.732949 
3253 2 -298.027 1863.51 -397.347 -0.408329 0.602217 -0.304018 -0.614959 
3252 2 -291.325 1856.24 -396.85 -0.689265 0.576681 0.42997 -0.086482 
3249 2 -265.197 1843.76 -391.96 0.390076 -0.773189 -0.149391 0.47718 
3251 2 -281.949 1853.01 -395.648 -0.598047 -0.0601821 0.731764 0.321308 
3250 2 -272.979 1848.68 -395.806 -0.0920214 -0.580914 0.392622 0.707049 
3248 2 -257.539 1839.65 -387.299 0.487555 -0.424567 -0.759972 -0.0668947 
3247 2 -249.574 1834.96 -383.727 0.349311 0.249071 -0.810383 -0.39903 
3246 2 -242.892 1829.21 -379.276 -0.130096 0.747638 -0.402012 -0.512346 
3245 2 -237.265 1822.25 -375.006 -0.54895 0.732233 0.397757 -0.0654112 
3244 2 -231.115 1814.69 -372.938 -0.470603 0.0317651 0.753694 0.457678 
3259 2 -339.843 1900.4 -385.202 -0.835685 0.111191 0.53716 0.0269428 
3260 2 -349.063 1901.8 -381.772 -0.615116 0.385808 0.227561 -0.648845 
3243 2 -222.358 1810.38 -372.551 -0.0662093 -0.62693 0.34271 0.696509 
3261 2 -357.081 1903.15 -376.049 0.12894 0.392244 -0.138207 -0.900232 
3242 2 -214.879 1804.18 -370.57 0.527323 -0.751208 -0.183357 0.352134 
3237 2 -172.809 1788.26 -375.614 -0.706698 -0.284862 0.37612 0.527224 
3238 2 -181.719 1788.75 -371.338 -0.822898 0.130653 0.548603 -0.0693151 
3239 2 -190.345 1790.39 -366.915 -0.459949 0.571236 0.150021 -0.663046 
3240 2 -199.232 1793.94 -364.287 0.140023 0.563358 -0.595146 -0.555719 
3241 2 -207.066 1798.85 -367.782 0.551064 -0.148986 -0.804939 -0.161881 
3457 2 -415.155 2066.62 -390.094 -0.120545 -0.214865 0.769346 0.589414 
3456 2 -410.668 2058.22 -387.62 0.420555 -0.758184 0.226733 0.443714 
3454 2 -399.113 2042.71 -384.606 0.281043 0.216384 -0.741362 -0.569716 
3455 2 -405.94 2049.54 -386.549 0.687713 -0.537189 -0.485581 -0.0518555 
3453 2 -393.6 2034.85 -386.635 -0.267839 0.511504 -0.385341 -0.719818 
3451 1 -415.392 2012.04 -421.71 0.0968639 -0.0441904 -0.794494 -0.597866 
3452 3 -419.748 2045.6 -430.13 0.0537144 0.033196 -0.77877 -0.624123 
3450 2 -437.447 2009.91 -463.355 0.52619 0.556024 0.18169 -0.617212 
3449 2 -432.967 2017.91 -466.678 -0.123976 0.212809 0.559763 -0.791206 
3448 2 -429.013 2026.72 -469.036 -0.66696 -0.384938 0.498722 -0.397823 
3447 2 -426.554 2035.47 -473.003 -0.811486 -0.52209 -0.0415304 0.259208 
3446 2 -426.619 2044.82 -476.268 -0.405829 -0.236633 -0.452852 0.757781 
3445 2 -425.097 2052.18 -482.693 0.259315 0.0665597 -0.426894 0.863763 
3444 2 -421.548 2060.7 -486.387 0.785382 0.45107 -0.361173 0.221957 