ITEM: TIMESTEP
100000000
ITEM: NUMBER OF ATOMS
4067
ITEM: BOX BOUNDS pp pp pp
-4.6310929470000001e+03 4.6704658980000004e+03
-4.6310929470000001e+03 4.6704658980000004e+03
-4.6310929470000001e+03 4.6704658980000004e+03
ITEM: ATOMS id type x y z c_q[1] c_q[2] c_q[3] c_q[4] 
3342 2 -453.592 1871.67 -569.436 -0.224753 -0.662554 -0.668573 0.25203 
3341 2 -454.184 1877.82 -561.872 0.0251858 0.105647 -0.928766 0.354399 
3340 2 -454.698 1880.94 -552.454 0.0933361 0.877702 -0.45601 0.113936 
3339 2 -457.711 1882.52 -543.216 0.184651 0.898094 0.377806 0.128817 
3343 1 -460.719 1904.51 -602.578 0.957125 -0.244021 -0.151841 0.0361942 
3338 2 -458.906 1882.23 -533.354 0.0963039 0.202915 0.974246 0.0198865 
3337 2 -459.121 1881.4 -523.532 0.0021092 -0.69244 0.72115 0.0215693 
3344 3 -470.871 1920.49 -573.191 0.962028 -0.161041 -0.219662 -0.0177753 
3336 2 -460.524 1878.5 -514.191 0.14761 -0.987677 0.0311068 -0.0416852 
3356 2 -484.963 1992.03 -524.58 -0.319651 0.282673 -0.386849 -0.817476 
3354 2 -479.121 1978.07 -537.295 -0.828349 0.209811 0.269018 0.444349 
3355 2 -481.835 1984.36 -530.073 -0.842572 0.478026 0.0498865 -0.243053 
3353 2 -477.196 1971.87 -544.732 -0.20458 0.00134778 0.342168 0.917096 
3352 2 -475.297 1966.01 -552.41 0.547437 -0.264045 0.194573 0.769892 
3351 2 -474.487 1961.34 -560.986 0.96909 -0.241227 0.0458496 -0.0239307 
3345 2 -474.276 1947.04 -617.71 0.812684 -0.126197 0.160091 0.545885 
3346 2 -472.952 1949.8 -608.244 0.0893141 0.0890137 0.182305 0.975123 
3347 2 -471.369 1953.02 -599.045 -0.791933 0.0402527 0.225801 0.565894 
3348 2 -474.156 1956.11 -589.977 -0.956487 0.0470319 -0.0105782 -0.287766 
3349 2 -474.357 1957.16 -580.199 -0.286332 0.0116695 -0.0381806 -0.957298 
3350 2 -474.103 1958.19 -570.424 0.655148 -0.0452773 -0.137251 -0.741548 
3357 2 -486.793 2000.01 -519.043 0.584965 -0.177318 -0.443327 -0.655618 
3531 2 -550.313 2354.79 -560.181 0.714048 -0.390599 -0.471885 0.338958 
3530 2 -541.105 2352.11 -562.954 0.728388 0.128981 -0.568192 -0.360517 
3529 2 -532.949 2347.56 -566.366 0.00619755 0.47423 -0.273675 -0.836762 
3528 2 -524.186 2343.27 -568.088 -0.556561 0.608612 0.278869 -0.491999 
3694 1 -545.98 2373.46 -600.877 0.765459 -0.371457 0.264062 0.454272 
3527 2 -516.874 2336.71 -566.38 -0.558925 0.132892 0.757558 0.309917 
3526 2 -510.224 2330.29 -562.763 -0.110839 -0.446531 0.69064 0.55798 
3533 3 -513.223 2351.68 -524.195 -0.576218 -0.480065 -0.611391 -0.252413 
3525 2 -503.137 2324.56 -559.212 0.309748 -0.849915 0.0721645 0.420111 
3524 2 -499.168 2319.22 -551.753 0.390018 -0.682021 -0.617591 -0.0362673 
3523 2 -498.089 2311.78 -545.313 0.0570799 0.00320209 -0.91486 -0.399703 
3522 2 -492.246 2309.37 -537.865 0.0447 0.821939 -0.451677 -0.344101 
3521 2 -487.103 2307.11 -529.774 -0.15408 0.918926 0.253879 -0.259577 
3520 2 -481.244 2303.98 -522.309 -0.392574 0.318068 0.862783 0.0180282 
3693 2 -499.564 2369.22 -593.818 0.322989 0.916945 0.230611 -0.0413306 
3692 2 -500.659 2374.55 -585.496 0.111474 0.246767 0.922821 -0.274008 
3691 2 -497.981 2382.04 -579.624 -0.374849 -0.419843 0.771558 -0.296511 
3519 2 -476.662 2300.32 -514.379 -0.162889 -0.369119 0.864415 0.300007 
3558 2 -338.313 2377.45 -600.19 -0.292848 -0.638204 -0.70892 0.0660879 
3557 2 -342.277 2382.03 -592.389 -0.223844 -0.0414822 -0.944507 0.236809 
3696 2 -587.916 2394.04 -594.787 -0.90154 0.40971 -0.121577 -0.0676905 
3699 2 -579.891 2418.07 -580.451 0.79619 -0.494145 0.0618099 -0.343631 
3697 2 -586.196 2401.47 -588.424 -0.374778 0.0952687 -0.471774 -0.792398 
3698 2 -584.3 2409.87 -583.657 0.247114 -0.457352 -0.389332 -0.760385 
3701 2 -575.261 2435.03 -571.44 -0.188997 0.200584 0.32611 0.904267 
3700 2 -576.282 2426.25 -575.82 0.648685 -0.381338 0.357976 0.552849 
3725 2 -536.118 2496.19 -548.937 0.645351 -0.398503 -0.564037 0.326465 
3726 2 -545.793 2497.86 -548.686 0.240983 -0.627892 0.232871 0.70246 
3702 2 -572.849 2440.9 -563.872 -0.865715 0.324727 0.0163876 0.380553 
3703 2 -569.75 2445.44 -555.662 -0.802495 0.103248 -0.200461 -0.552411 
3704 2 -567.929 2449.75 -546.828 -0.0199625 0.0840156 -0.236618 -0.967758 
3695 3 -538.783 2399.95 -579.315 0.719118 -0.352075 0.343936 0.490531 
3724 2 -526.873 2493.23 -547.226 0.558038 0.0577445 -0.769351 -0.305546 
3723 2 -517.049 2491.83 -547.627 0.209051 0.540962 -0.356835 -0.732344 
3727 2 -553.513 2504.11 -548.223 -0.274563 -0.257481 0.671121 0.638682 
3728 2 -560.991 2510.61 -548.122 -0.703516 0.295659 0.636491 0.111939 
3729 2 -569.372 2515.68 -548.695 -0.499417 0.746031 0.186645 -0.39898 
3705 2 -569.518 2454.03 -538.152 0.75468 -0.186016 -0.223151 -0.588269 
3706 2 -570.667 2460.09 -530.351 0.793383 -0.59857 -0.0752674 0.0811911 
3707 2 -572.891 2469.25 -527.014 0.472646 -0.405371 0.427463 0.655405 
3730 2 -577.337 2521.4 -550.13 0.0619709 0.590781 -0.386275 -0.705641 
3731 2 -585.816 2526.53 -550.547 0.561478 0.00823719 -0.662049 -0.496353 
3708 2 -574.574 2478.3 -523.337 -0.193993 0.0175861 0.396167 0.897279 
3732 2 -593.682 2532.62 -549.847 0.713036 -0.604216 -0.311773 0.171175 
3709 2 -574.52 2485.03 -516.076 -0.818245 0.369098 -0.0604414 0.436564 
3545 2 -433.68 2384.39 -527.642 0.184021 -0.839648 -0.000959711 -0.511006 
3546 2 -425.502 2387.7 -531.936 0.500865 -0.511957 0.69355 -0.0776081 
3690 2 -494.913 2390.91 -576.615 -0.55291 -0.790936 0.0373837 0.25945 
3689 2 -494.23 2400.58 -574.813 -0.277213 -0.405395 -0.687335 0.535144 
3547 2 -418.059 2391.97 -536.86 0.304255 0.400591 0.840331 0.201989 
3548 2 -411.141 2392.56 -543.917 0.109123 0.833766 0.308593 0.444631 
3549 2 -403.003 2393.77 -549.443 -0.369104 0.707339 -0.501348 0.334787 
3688 2 -496.685 2409.81 -577.109 0.248161 0.307078 -0.561768 0.727005 
3687 2 -496.356 2418.76 -581.211 0.788952 0.529421 -0.195918 0.242661 
3686 2 -493.209 2427.14 -585.4 0.624176 0.545367 0.169647 -0.533104 
3685 2 -489.487 2436.02 -587.805 -0.0809088 0.160229 0.572201 -0.800229 
3684 2 -485.816 2444.67 -591.109 -0.685208 -0.345815 0.44748 -0.458981 
3680 2 -477.791 2478.86 -606.156 0.790655 0.528025 -0.250432 0.182587 
3681 2 -480.33 2469.88 -603.037 0.381259 0.10468 -0.36064 0.844762 
3682 2 -480.889 2463.09 -595.734 -0.402659 -0.343404 -0.45577 0.71569 
3683 2 -482.747 2453.94 -592.643 -0.728243 -0.6452 0.0213343 0.230052 
3679 2 -474.325 2487.47 -609.495 0.564612 0.540924 0.24517 -0.573154 
3678 2 -469.452 2495.55 -612.45 -0.114049 0.26155 0.558711 -0.778734 
3677 2 -464.187 2503.93 -611.487 -0.603343 -0.457129 0.59461 -0.271016 
3671 2 -417.9 2531.49 -620.933 -0.301865 0.337784 0.285535 -0.844541 
3676 2 -459.241 2512.38 -611.261 -0.627114 -0.724769 0.045434 0.281733 
3672 2 -425.485 2528.67 -615.201 0.349406 0.506669 -0.165415 -0.77061 
3675 2 -452.685 2519.68 -610.28 -0.147782 -0.647455 -0.40297 0.629745 
3673 2 -434.854 2527.86 -611.777 0.741616 0.323254 -0.565278 -0.161163 
3674 2 -443.946 2524.13 -610.563 0.543451 -0.205388 -0.650974 0.48858 
3550 2 -394.52 2395.83 -554.041 -0.556032 -0.107304 -0.813045 -0.135172 
3551 2 -385.296 2396.21 -557.771 -0.381867 -0.732587 -0.490999 -0.27643 
3552 2 -376.939 2393.66 -562.53 0.156296 -0.862502 0.120793 -0.465909 
3553 2 -368.355 2394.53 -567.384 0.33539 -0.450942 0.734557 -0.38025 
3670 2 -410.932 2531.89 -628.025 -0.866085 0.110511 0.362564 -0.325931 
3669 2 -408.361 2530.1 -637.415 -0.80972 -0.0493809 0.21157 0.545117 
3573 2 -365.2 2521.79 -555.206 0.150093 0.225816 -0.638509 -0.720268 
3574 2 -370.492 2530.27 -555.15 0.680005 -0.367334 -0.514479 -0.371444 
3544 2 -441.072 2383.72 -521.07 -0.267402 -0.568307 -0.718939 -0.297742 
3543 2 -449.109 2383.38 -515.19 -0.418573 0.0856436 -0.902042 0.0614965 
3572 2 -359.378 2513.94 -557.181 -0.424307 0.605208 -0.170893 -0.651523 
3554 2 -360.185 2392.9 -572.503 0.494342 0.34597 0.796043 -0.0473991 
3555 2 -352.719 2388.86 -577.65 0.336886 0.863094 0.207538 0.313854 
3556 2 -346.315 2384.58 -583.85 0.0385046 0.822089 -0.512416 0.245187 
3571 2 -354.704 2506.33 -561.516 -0.825637 0.513141 0.190288 -0.137115 
3570 2 -349.812 2498.55 -565.106 -0.572335 0.11087 0.574 0.575034 
3569 2 -344.846 2491.4 -569.858 0.11485 -0.312263 0.350702 0.875391 
3560 3 -344.351 2428.82 -595.872 0.944054 -0.169145 -0.154736 -0.237083 
3561 2 -335.612 2462.64 -634.308 0.847285 -0.0370681 0.256258 0.463753 
3562 2 -330.962 2465.25 -625.878 0.117299 0.112812 0.235202 0.958225 
3563 2 -327.726 2469.43 -617.476 -0.664802 0.154628 0.0459454 0.729396 
3564 2 -326.332 2471.83 -607.91 -0.96225 0.0501659 0.125126 -0.236434 
3565 2 -328.945 2472.17 -598.415 -0.535627 0.121273 -0.101063 -0.829568 
3567 2 -333.881 2480.69 -581.732 0.919168 -0.194634 -0.275892 -0.202809 
3568 2 -338.717 2485.02 -574.284 0.693444 -0.534482 -0.0975373 0.473235 
3566 2 -330.486 2474.78 -588.945 0.433633 0.0574636 -0.383902 -0.813191 
3559 1 -335.938 2415.95 -627.352 0.946272 -0.222812 -0.113394 -0.205099 
3775 1 -816.671 2627.34 -548.911 -0.690924 -0.0919195 -0.618441 -0.362911 
3772 2 -777.586 2624.44 -584.043 0.709044 0.383535 -0.570388 0.15753 
3771 2 -770.875 2631.84 -583.968 0.606206 0.671869 -0.0806122 -0.417861 
3770 2 -763.45 2637.37 -580.453 -0.0126038 0.710892 0.419652 -0.56424 
3769 2 -755.434 2642.35 -577.504 -0.53743 0.0449961 0.789331 -0.293431 
3773 2 -784.13 2616.92 -583.653 0.284611 -0.121819 -0.649746 0.694252 
3774 2 -789.386 2608.68 -582.511 -0.422813 -0.615151 -0.240149 0.620602 
3776 3 -784.644 2638.15 -540.247 -0.734308 0.0280355 -0.573431 -0.362192 
3768 2 -748.293 2649.08 -576.037 -0.64934 -0.571808 0.498539 0.0533908 
3767 2 -740.948 2654.46 -572.199 -0.213426 -0.786382 -0.19716 0.545144 
3766 2 -733.883 2659.86 -567.827 0.200031 -0.389922 -0.775586 0.454328 
3765 2 -729.003 2666.2 -561.707 0.390803 0.332466 -0.842684 0.163165 
3764 2 -720.983 2668.93 -556.463 0.29162 0.832708 -0.301825 -0.361188 
3763 2 -714.704 2670.94 -548.979 -0.0369995 0.793308 0.492099 -0.356555 
3762 2 -706.039 2672.22 -544.202 -0.489436 0.112049 0.854963 -0.130137 
3761 2 -696.449 2673.83 -542.908 -0.59221 -0.432529 0.593797 0.331076 
3760 2 -686.887 2675.99 -544.433 -0.0939201 -0.634396 -0.115952 0.758469 
3759 2 -678.049 2680.49 -545.573 0.475987 -0.270194 -0.580221 0.603138 
3758 2 -670.358 2686.06 -548.482 0.816358 0.298169 -0.491216 0.0579828 
3733 2 -601.093 2539.2 -548.914 0.321524 -0.701271 0.239681 0.589402 
3746 2 -584.203 2643.95 -537.394 0.343226 -0.744571 0.198731 -0.536951 
3747 2 -574.913 2646.66 -538.779 0.655544 -0.365369 0.648127 -0.129224 
3745 2 -593.45 2640.54 -535.931 -0.0739662 -0.654006 -0.397675 -0.639265 
3744 2 -602.243 2635.96 -535.557 -0.635953 -0.0131699 -0.680571 -0.363612 
3743 2 -608.896 2628.56 -536.346 -0.711805 0.60883 -0.321893 0.138002 
3735 2 -615.019 2553.15 -551.161 -0.632289 0.527639 0.47833 0.304974 
3742 2 -612.565 2620.38 -540.434 -0.36127 0.408541 0.335448 0.768149 
3738 2 -617.775 2582.4 -549.347 0.131923 -0.215149 -0.619956 -0.742941 
3736 2 -617.264 2562.79 -551.663 -0.63048 0.74474 -0.103184 -0.1929 
3737 2 -617.725 2572.71 -551.819 -0.466885 0.30455 -0.497527 -0.66463 
3741 2 -613.181 2611.34 -544.27 0.211268 -0.179269 0.537951 0.796139 
3740 2 -615.194 2601.9 -546.703 0.753011 -0.59292 0.251082 0.135566 
3739 2 -616.388 2592.32 -549.035 0.655471 -0.572816 -0.287776 -0.399279 
3734 2 -608.187 2546.21 -549.392 -0.262362 -0.254706 0.704512 0.608238 
3749 3 -614.915 2670.77 -561.39 -0.735887 -0.120288 0.608653 -0.271188 
3748 1 -582.972 2684.79 -565.424 -0.73494 -0.130605 0.60851 -0.269298 
3575 2 -374.654 2538.9 -552.907 0.65315 -0.582982 -0.0905471 0.474688 
3576 2 -380.837 2545.93 -549.646 -0.157705 -0.236825 0.417719 0.862875 
3667 1 -412.179 2576.79 -643.407 -0.0890729 0.175914 0.126311 -0.972196 
3668 3 -423.47 2572.08 -610.698 -0.115123 0.183029 0.172449 -0.960993 
3666 2 -424.994 2620.08 -630.076 -0.229743 0.698783 -0.677316 -0.0127926 
3661 2 -435.415 2602.83 -586.251 0.10164 -0.863945 -0.46644 -0.160319 
3660 2 -438.931 2598.45 -578.105 -0.142715 -0.162019 -0.934996 -0.281362 
3662 2 -433.867 2607.07 -594.925 0.164201 -0.98204 0.090834 -0.0196347 
3663 2 -433.364 2610.09 -604.282 0.0581269 -0.501164 0.854526 0.123458 
3665 2 -428.254 2617.37 -621.165 -0.134032 0.956572 0.164588 0.19979 
3664 2 -433.249 2613.33 -613.647 0.177175 0.369506 0.866536 0.284939 
3659 2 -441.855 2592.03 -571.07 -0.305268 0.627686 -0.701102 -0.145871 
3658 2 -444.743 2586.1 -563.766 -0.290709 0.949019 -0.048493 0.111805 
3657 2 -450.36 2581.56 -556.941 0.0583442 0.551199 0.72877 0.402083 
3656 2 -455.959 2580.45 -548.864 0.288495 -0.217964 0.930962 -0.0507116 
3655 2 -461.051 2578.53 -540.696 0.239739 -0.813892 0.486648 -0.208033 
3577 2 -386.325 2552.51 -544.586 -0.795151 0.245726 0.458803 0.311213 
3654 2 -467.055 2580.31 -532.956 -0.216916 -0.893213 -0.28891 -0.267673 
3578 2 -392.357 2559.12 -540.261 -0.585134 0.570489 -0.198718 -0.540992 
3653 2 -468.501 2586.23 -525.07 -0.162749 -0.417722 -0.864815 0.22609 
3579 2 -396.582 2567.27 -537.032 0.120529 0.0776857 -0.345893 -0.927252 
3580 2 -399.012 2573.64 -529.742 0.840215 -0.294269 -0.191116 -0.413424 
3581 2 -399.951 2580.42 -522.714 0.82787 -0.412727 0.215154 0.313044 
3652 2 -465.362 2593.64 -519.182 0.314773 0.313496 -0.817943 0.365524 
3582 2 -398.914 2588.58 -517.227 0.227648 -0.0346646 0.490962 0.840197 
3757 2 -663.583 2691.38 -553.677 0.462168 0.469853 0.072644 -0.748573 
3756 2 -655.951 2696.06 -558.097 -0.369448 0.310796 0.494626 -0.722675 
3755 2 -649.382 2699.78 -564.542 -0.837309 -0.0998798 0.44268 -0.304914 
3754 2 -643.07 2703.89 -570.776 -0.752309 -0.39933 0.213001 0.478745 
3753 2 -635.569 2705.74 -576.977 0.119261 -0.401599 -0.186212 0.888718 
3752 2 -628.231 2709.51 -582.535 0.726896 -0.117891 -0.424339 0.526935 
3751 2 -619.137 2709.85 -586.469 0.773148 0.199611 -0.501137 -0.333556 
3750 2 -610.897 2714.11 -589.683 0.4127 0.586543 -0.0256326 -0.696412 
4044 2 -864.048 3114.78 -535.25 0.358291 0.738888 -0.567158 0.0632737 
4043 2 -860.62 3120.08 -527.592 0.230738 0.884265 0.319545 -0.250452 
4045 1 -903.79 3089.37 -533.825 0.555523 -0.316661 0.164589 0.75102 
4042 2 -857.206 3125.58 -520.159 -0.0995758 0.171074 0.923814 -0.327699 
4047 2 -945.275 3077.13 -514.937 -0.671314 0.24023 -0.0648308 0.698157 
3993 2 -718.522 3091.98 -526.67 0.635031 -0.569621 0.347104 0.389597 
3994 2 -718.467 3101.89 -526.799 0.0598735 -0.0909188 0.69365 0.712038 
3995 2 -719.721 3111.72 -526.547 -0.456738 0.536226 0.544502 0.455378 
3996 2 -720.656 3121.4 -527.604 -0.659045 0.727244 -0.189094 -0.0319279 
3997 2 -719.1 3130.98 -529.128 -0.548051 0.316205 -0.640052 -0.435876 
3991 1 -693.001 3097.76 -565.93 -0.607343 0.0717626 -0.365554 -0.70168 
3992 3 -678.799 3120.77 -543.584 -0.617646 0.139063 -0.31748 -0.705961 
3998 2 -714.226 3139.69 -528.89 0.150148 -0.259036 -0.668329 -0.68095 
3989 2 -656.234 3122.65 -583.692 -0.12347 0.421675 0.856825 -0.269806 
3983 2 -633.479 3127.29 -531.518 -0.0138633 0.899323 0.426365 -0.0961236 
3988 2 -651.097 3125.94 -575.816 -0.330341 -0.542209 0.772575 0.00351375 
3990 2 -660.394 3119.54 -592.171 0.157469 0.950347 0.100264 -0.248979 
3987 2 -647.108 3128.43 -567.065 -0.114433 -0.963483 -0.0167134 0.241509 
3986 2 -641.369 3126.27 -559.329 0.314954 -0.624782 -0.69512 0.165106 
3984 2 -634.542 3127.07 -541.411 0.0959127 0.90144 -0.418365 -0.0563743 
3985 2 -636.191 3126.58 -551.042 0.210084 0.308366 -0.926649 -0.0457883 
3982 2 -630.834 3128.83 -522.054 -0.106051 0.154732 0.965039 -0.183062 
3999 2 -712.777 3149.43 -529.579 0.671795 -0.62451 -0.197105 -0.346162 
4000 2 -711.695 3159.18 -528.43 0.624425 -0.653729 0.330246 0.271421 
4001 2 -710.397 3168.9 -529.156 0.340798 -0.175159 0.677723 0.627589 
4022 2 -801.616 3239.66 -576.03 0.766338 0.153378 0.14622 -0.606482 
4023 2 -800.67 3235.8 -566.893 0.927115 0.204552 0.003641 0.314011 
4024 2 -799.266 3232.27 -557.801 0.206232 0.165793 -0.103885 0.958743 
4021 2 -803.789 3244.56 -584.39 0.0369773 -0.144649 0.279863 -0.94836 
4020 2 -809.544 3248.77 -591.247 -0.684263 -0.409166 -0.144293 -0.586129 
4002 2 -708.464 3178.52 -528.535 -0.325594 0.421313 0.602678 0.594359 
4019 3 -771.38 3266.88 -561.034 -0.492689 -0.271038 0.130242 -0.816599 
4003 2 -707.111 3188.34 -529.33 -0.616456 0.752057 0.115808 0.202435 
4004 2 -705.576 3197.81 -531.753 -0.411288 0.616786 -0.495536 -0.452616 
4005 2 -707.383 3207.21 -534.322 0.176066 0.0652945 -0.811203 -0.553793 
4006 2 -710.885 3215.9 -537.902 0.440964 -0.611706 -0.606727 -0.251496 
4007 2 -713.948 3224.06 -542.352 0.458569 -0.838818 0.0783263 0.28278 
4018 1 -779.255 3284.9 -589.927 -0.432812 -0.21044 0.171871 -0.859563 
4008 2 -718.457 3231.74 -546.748 0.0553207 -0.424742 0.637957 0.639957 
4009 2 -723.431 3240.19 -547.959 -0.469725 0.325082 0.661788 0.485507 
4012 2 -725.769 3267.84 -555.436 0.0533056 0.0754459 -0.692056 -0.715908 
4013 2 -728.539 3277.44 -555.506 0.536139 -0.514411 -0.583038 -0.328639 
4011 2 -727.603 3259.1 -551.029 -0.460345 0.692421 -0.485951 -0.269235 
4010 2 -726.151 3249.61 -548.811 -0.602733 0.760935 0.221512 0.0928592 
4014 2 -731.751 3286.17 -558.735 0.465409 -0.805786 0.128917 0.342759 
4025 2 -797.705 3229.47 -548.397 -0.505975 -0.00598753 -0.247699 0.826195 
4026 2 -794.429 3225.74 -539.797 -0.953034 -0.263043 -0.140007 0.0541564 
4027 2 -792.267 3220.57 -531.638 -0.79826 -0.272108 0.117252 -0.524394 
4028 2 -791.477 3214.59 -523.935 -0.023242 -0.0119655 0.337267 -0.941046 
4029 2 -791.301 3208.32 -516.435 0.675245 0.302229 0.296316 -0.604068 
4015 2 -735.547 3294.66 -562.282 -0.000466313 -0.584265 0.619103 0.524734 
4016 2 -741.237 3301.52 -566.806 -0.284121 0.0674248 0.825023 0.483804 
4017 2 -744.294 3310.06 -570.82 -0.532179 0.681828 0.483277 0.135422 
2965 1 -157.685 1430.68 -403.355 -0.973544 0.0815259 -0.0994116 0.188899 
2964 2 -161.066 1385.85 -389.252 0.175272 -0.194433 -0.943926 0.201194 
2963 2 -156.886 1388.73 -380.798 0.274679 0.673868 -0.685876 -0.00519031 
2962 2 -152.966 1390.79 -372.034 0.0793217 0.947389 0.163976 -0.263199 
2966 3 -148.274 1432.15 -369.741 -0.970805 0.053481 -0.0964194 0.21303 
2972 2 -128.726 1446.14 -371.6 0.635347 0.262176 0.643062 -0.33774 
2971 2 -132.945 1455.05 -372.275 -0.00555588 -0.369101 0.602293 -0.707798 
2973 2 -122.552 1438.36 -371.387 0.664259 0.632733 0.222391 0.330078 
2974 2 -115.618 1431.42 -371.503 0.176787 0.533936 -0.280509 0.7778 
2975 2 -108.217 1426.33 -367.698 -0.616148 0.083709 -0.556289 0.551269 
2976 2 -100.349 1421.83 -363.742 -0.762702 -0.284249 -0.484136 -0.321093 
2970 2 -138.974 1462.74 -373.871 -0.567964 -0.655669 -0.001024 -0.497508 
2961 2 -152.53 1391.86 -362.192 0.0523856 0.504003 0.861871 -0.0203779 
2994 2 38.6497 1462.01 -390.938 0.107809 -0.639011 0.121753 0.75181 
2995 2 29.5946 1465.35 -388.458 -0.545543 -0.336911 0.384133 0.664316 
2996 2 20.8555 1467.09 -383.94 -0.832119 0.253866 0.492953 -0.0112518 
3021 2 -214.807 1487.87 -364.303 -0.880432 -0.297196 -0.369356 0.00951582 
2969 2 -142.703 1470.09 -379.259 -0.853844 -0.315474 -0.344095 0.230273 
2968 2 -145.871 1474.17 -387.675 -0.307051 0.0793512 -0.239349 0.917679 
2967 2 -149.703 1476.68 -396.483 0.50598 0.243755 -0.0485175 0.825962 
3000 2 -7.40575 1485.49 -364.112 0.849924 -0.330697 -0.342745 0.225378 
2999 2 0.637708 1482.08 -368.638 0.708901 0.0945493 -0.514964 -0.47258 
2998 2 7.24493 1477.64 -374.611 0.0357351 0.370752 -0.268528 -0.888346 
2997 2 13.2189 1472.21 -380.18 -0.657831 0.447188 0.0496038 -0.604004 
3323 2 -464.478 1839.56 -400.262 0.176266 -0.68986 0.607833 0.351513 
3324 2 -466.738 1845.5 -407.898 -0.168278 -0.0841833 0.937131 0.293908 
3325 2 -470.915 1849.89 -415.728 -0.24466 0.659269 0.710492 -0.0265907 
3326 2 -474.652 1852.67 -424.453 -0.143983 0.976023 -0.162501 -0.0155498 
3327 2 -474.046 1855.29 -433.973 -0.204804 0.535769 -0.807726 -0.136332 
3328 2 -472.374 1860.03 -442.306 0.169492 -0.448933 -0.867494 -0.131094 
3329 2 -474.904 1863.73 -451.11 -0.0194457 -0.923659 -0.372404 0.0882641 
3330 2 -476.557 1863.55 -460.891 0.0175616 -0.879307 0.475123 0.0277417 
3331 2 -477.029 1864.54 -470.756 0.0721247 -0.0224491 0.994539 0.0720191 
3332 2 -475.229 1865.8 -480.531 0.0736886 0.839965 0.518754 0.141148 
3333 2 -472.485 1866.71 -490.108 -0.235797 0.808936 -0.522814 0.129179 
3334 2 -467.496 1869.48 -498.11 -0.321021 0.253745 -0.905994 -0.108325 
3335 2 -462.775 1873.59 -505.703 0.033255 -0.531193 -0.805768 -0.259741 
3322 2 -460.972 1834.6 -392.432 0.298388 -0.925304 -0.221179 0.0765296 
3321 2 -455.858 1831.34 -384.597 0.307746 -0.381271 -0.871386 -0.0247305 
3320 2 -451.498 1829.11 -376.109 0.151447 0.497278 -0.826865 -0.214648 
3319 2 -450.176 1825.03 -367.366 -0.220162 0.928685 -0.268306 -0.130711 
3396 2 -680.133 2021.23 -431.531 -0.76572 -0.236242 0.38268 -0.459803 
3395 2 -676.128 2027.79 -437.582 -0.802685 -0.444003 0.0503384 0.394998 
3394 2 -671.386 2033.96 -443.738 -0.193623 -0.373501 -0.266655 0.867123 
3393 2 -670.704 2037.26 -453.108 0.600924 0.0663854 -0.0948842 0.790873 
3392 2 -665.101 2038.1 -461.197 0.950131 -0.0425186 -0.274448 0.141849 
3391 2 -657.702 2039.43 -467.878 0.644974 0.323141 -0.251906 -0.645083 
3390 2 -653.571 2043.26 -476.098 0.0465894 0.255401 0.201416 -0.944474 
3389 2 -648.785 2047.43 -483.777 -0.643615 0.0859158 0.361535 -0.669082 
3398 3 -633.677 2044.44 -429.859 0.109056 -0.421815 -0.768646 -0.468361 
3397 1 -638.888 2016.79 -409.083 0.151666 -0.436827 -0.728005 -0.50615 
3399 2 -595.607 2031.33 -397.129 0.292756 -0.584946 -0.683346 -0.3243 
3400 2 -595.808 2039.2 -403.16 0.531229 -0.844484 0.0491751 -0.0471594 
3401 2 -594.094 2047.71 -407.941 0.390772 -0.567353 0.508639 0.516424 
3402 2 -595.847 2057.17 -410.468 -0.17892 0.0827533 0.839896 0.505681 
3388 2 -641.829 2050.42 -490.207 -0.91471 -0.181446 0.361013 -0.00725772 
3387 2 -634.47 2054.41 -495.468 -0.720094 -0.427395 0.186143 0.513955 
3386 2 -625.856 2056.67 -499.896 -0.0209399 -0.516778 -0.118772 0.847582 
3385 2 -616.116 2057.88 -500.627 0.603278 -0.295744 -0.639603 0.373494 
3403 2 -597.952 2065.83 -414.752 -0.519254 0.56711 0.635334 0.0715034 
3384 2 -606.531 2055.66 -499.346 0.556325 0.286508 -0.700779 -0.342525 
3383 2 -597.614 2059.23 -497.248 0.347787 0.785542 -0.194112 -0.473591 
3382 2 -590.548 2064.54 -492.878 0.010365 0.729784 0.470723 -0.495709 
3381 2 -584.275 2069.92 -487.31 -0.319201 0.134731 0.870662 -0.349151 
3404 2 -602.758 2073.37 -419.195 -0.442443 0.657232 -0.121988 -0.597837 
3380 2 -578.17 2075.02 -481.569 -0.468913 -0.584174 0.662443 0.00559175 
3358 2 -490.201 2007.04 -513.037 0.892746 -0.355773 -0.182918 0.207296 
3369 2 -496.074 2051.75 -424.822 -0.899925 -0.0257844 0.00647451 -0.435233 
3366 2 -496.207 2053.9 -454.153 0.58149 0.0144717 0.0258851 0.813013 
3365 2 -498.072 2051.5 -463.7 0.985062 -0.0970012 0.141831 0.0113372 
3364 2 -496.546 2044.51 -470.562 0.609052 -0.198717 -0.350256 -0.683292 
3363 2 -497.18 2035.92 -475.483 -0.210428 0.0521095 -0.472495 -0.854256 
3368 2 -495.303 2052.25 -434.674 -0.91344 -0.042157 0.0208403 0.404248 
3362 2 -498.306 2031.78 -484.379 -0.894422 0.164948 -0.138725 -0.391863 
3367 2 -495.545 2053.89 -444.339 -0.255762 0.00470184 -0.0834824 0.963117 
3359 2 -494.422 2013.34 -506.654 0.595295 -0.296407 0.177832 0.725357 
3360 2 -497.053 2020.4 -500.274 -0.291079 0.0467703 0.389073 0.872759 
3361 2 -497.482 2027.25 -493.096 -0.909809 0.199126 0.131719 0.339481 
3423 2 -734.28 2184.06 -393.101 -0.672172 -0.389255 0.383792 0.499368 
3422 2 -725.117 2184.43 -396.654 -0.0248971 -0.576413 -0.0214451 0.816498 
3421 2 -716.167 2184.57 -400.863 0.590308 -0.379954 -0.404803 0.585923 
3420 2 -706.814 2182.26 -402.843 0.750054 -0.00310181 -0.634481 -0.186665 
3419 2 -697.957 2178.03 -404.41 0.323611 0.441579 -0.464748 -0.695911 
3418 2 -688.972 2174.02 -405.558 -0.369305 0.67082 0.0774375 -0.63845 
3417 2 -680.392 2169.68 -407.913 -0.808645 0.331051 0.484728 -0.0392114 
3416 2 -677.236 2161.55 -412.562 -0.420894 0.0971279 0.487993 0.75847 
3424 1 -731.934 2146.43 -364.76 -0.243845 -0.57777 -0.431485 -0.648492 
3425 3 -699.042 2158.16 -365.062 -0.206913 -0.551181 -0.377493 -0.714763 
3415 2 -671.89 2154.67 -417.324 0.261455 -0.436897 0.31088 0.802568 
3371 3 -527.624 2086.35 -447.346 0.018658 -0.491043 0.870517 0.0269871 
3476 2 -657.862 2216.98 -418.851 -0.619062 0.505722 0.57913 0.160048 
3414 2 -665.409 2147.75 -420.2 0.773086 -0.523325 -0.23763 0.268331 
3379 2 -573.649 2081.75 -475.89 -0.302539 -0.874541 -0.185455 0.330538 
3378 2 -568.688 2087.91 -469.909 0.1928 -0.283296 -0.866682 0.362537 
3413 2 -658.645 2140.58 -421.276 0.596682 -0.155335 -0.679567 -0.39753 
3370 1 -528.693 2083.57 -412.288 -0.00972259 -0.530485 0.845911 0.0540882 
3475 2 -654.219 2207.89 -417.114 -0.179878 -0.0609321 0.758899 0.6229 
3474 2 -650.757 2198.66 -416.75 0.337452 -0.536936 0.475181 0.609941 
3484 2 -617.388 2211.51 -488.501 0.722452 0.276715 0.409127 0.483847 
3485 2 -609.072 2212.07 -483.063 -0.105639 0.596702 0.00453222 0.795466 
3486 2 -600.178 2214.02 -479.237 -0.723496 0.500571 -0.354281 0.316965 
3487 2 -591.599 2218.66 -477.612 -0.592777 0.0548616 -0.724919 -0.346552 
3488 2 -583.851 2224.83 -478.372 -0.0251149 -0.543722 -0.581622 -0.604526 
3412 2 -649.937 2135.67 -421.603 0.162199 0.494829 -0.483749 -0.703436 
3372 2 -563.552 2113.97 -421.647 0.0147685 -0.869288 -0.48608 -0.0885866 
3373 2 -562.191 2114.22 -431.447 -0.124536 -0.880263 0.443994 -0.11179 
3374 2 -560.968 2111.73 -440.792 0.0331979 -0.227085 0.940394 -0.250978 
3375 2 -559.988 2107.23 -449.585 0.0688739 0.67927 0.663862 -0.305181 
3376 2 -563.361 2101.68 -457.052 0.357386 0.930153 -0.0384333 -0.0749157 
3377 2 -564.986 2094.53 -463.512 0.357779 0.521029 -0.747555 0.204169 
3411 2 -644.293 2127.49 -422.685 -0.606287 0.680055 -0.0452883 -0.409743 
3409 2 -632.289 2112 -422.284 -0.346769 -0.141979 0.700908 0.606894 
3410 2 -639.137 2119.02 -422.304 -0.659354 0.485673 0.522342 0.23777 
3408 2 -626.923 2103.92 -419.555 0.292418 -0.667374 0.442671 0.522634 
3407 2 -623.078 2094.82 -418.435 0.648339 -0.744099 -0.115649 0.112242 
3405 2 -608.833 2081.22 -419.12 0.222716 0.373487 -0.589572 -0.680669 
3406 2 -615.995 2088.02 -418.256 0.643136 -0.228884 -0.678548 -0.271222 
3467 2 -608.551 2155.44 -420.776 0.19894 -0.857494 0.164909 0.444895 
3468 2 -614.765 2160.32 -426.573 -0.250112 -0.396385 0.80223 0.369797 
3469 2 -621.976 2164.34 -432.118 -0.687042 0.367874 0.626527 -0.0103233 
3472 2 -642.989 2182.94 -425.176 0.742519 -0.182587 -0.437812 -0.472914 
3473 2 -647.537 2189.97 -419.891 0.796042 -0.568531 -0.0988026 0.182558 
3470 2 -630.259 2169.61 -431.902 -0.520976 0.642171 -0.0141467 -0.562139 
3471 2 -637.334 2176.1 -429.512 0.0618017 0.305303 -0.477143 -0.82177 
3466 2 -599.816 2151.83 -417.771 0.527134 -0.570282 -0.587609 0.22721 
3465 2 -592.459 2148.54 -411.918 0.414678 -0.0402697 -0.886117 -0.203019 
3479 3 -643.348 2204.05 -463.813 0.187817 -0.0923227 0.650434 -0.730162 
3464 2 -586.695 2145.84 -404.429 0.0696122 0.76231 -0.559041 -0.318609 
3463 2 -579.99 2141.41 -398.586 -0.266323 0.905642 0.165043 -0.285737 
3462 2 -573.028 2140.85 -391.423 -0.364079 0.321082 0.872472 -0.0560889 
3461 2 -564.013 2142.45 -387.762 -0.523576 -0.46597 0.686149 0.19478 
3460 2 -555.506 2139.84 -383.419 -0.056413 -0.785621 0.335473 0.516793 
3483 2 -625.699 2212.51 -493.563 0.788305 -0.109033 0.507302 -0.330653 
3459 2 -547.215 2141.06 -377.91 0.174477 -0.747876 -0.453551 0.452251 
3482 2 -631.565 2217.48 -499.861 0.19869 -0.254323 0.359659 -0.875493 
3458 2 -539.62 2143.46 -371.955 0.405313 -0.0836535 -0.887414 0.203025 
3457 2 -530.873 2146.97 -368.854 0.547032 0.570235 -0.564809 -0.237862 
3481 2 -636.258 2223.35 -506.385 -0.475873 -0.398781 0.116323 -0.775234 
3456 2 -522.198 2151.27 -366.399 0.178944 0.754968 0.166056 -0.608627 
3480 2 -644.484 2226.76 -510.52 -0.779489 -0.396854 -0.427402 -0.228542 
3477 2 -662.765 2225.4 -420.558 -0.550536 0.763558 -0.0243561 -0.336595 
3455 2 -512.659 2153.42 -366.143 -0.454959 0.424214 0.597805 -0.505652 
3454 2 -504.124 2158.23 -365.916 -0.675177 -0.261224 0.680536 -0.113005 
3453 2 -495.357 2161.35 -369.201 -0.601076 -0.553806 0.243028 0.52244 
3532 1 -545.23 2360.71 -513.624 -0.58707 -0.437533 -0.635449 -0.245191 
3489 2 -577.202 2231.63 -480.85 0.515001 -0.697086 0.102522 -0.488195 
3490 2 -569.371 2237.47 -479.636 0.623129 -0.40416 0.597803 0.301657 
3491 2 -564.258 2245.97 -479.867 0.0572539 0.207308 0.658406 0.721282 
3478 1 -656.573 2236.51 -466.014 0.114929 -0.150696 0.651961 -0.734185 
3492 2 -561.493 2255.49 -478.472 -0.515764 0.556864 0.297464 0.579142 
3493 2 -557.851 2264.6 -477.247 -0.823369 0.533903 -0.111543 -0.156744 
3494 2 -557.581 2273.94 -474.211 -0.331796 0.452515 -0.435136 -0.704129 
3502 2 -585.174 2313.83 -422.01 0.306837 -0.0346802 -0.318296 -0.89629 
3499 2 -581.323 2307.23 -450.319 -0.581697 0.0248279 0.221985 0.782135 
3500 2 -583.891 2310.61 -441.469 -0.993623 0.0706757 0.0878514 0.00027627 
3497 2 -571.257 2298.07 -464.446 0.705281 -0.417018 -0.0474756 0.571333 
3498 2 -576.833 2303.39 -458.336 0.0298763 -0.214113 0.205387 0.954505 
3501 2 -585.269 2312.63 -431.925 -0.569459 0.029536 -0.0558346 -0.819589 
3503 2 -586.394 2319.2 -413.981 0.781093 -0.343072 -0.187942 -0.486696 
3506 3 -542.593 2313.47 -431.207 0.0935119 0.692876 0.714582 -0.0234636 
3504 2 -586.623 2326.01 -406.896 0.894231 -0.373844 0.0912984 0.228595 
3505 1 -540.884 2320.03 -396.942 0.0351523 0.604272 0.790216 -0.0958074 
3496 2 -565.521 2291.22 -468.913 0.825043 -0.352522 -0.41613 -0.147881 
3495 2 -560.904 2283 -472.16 0.419673 -0.0764066 -0.610796 -0.667057 
3534 2 -520.657 2359.8 -473.402 0.326018 0.696152 0.421751 0.480844 
3535 2 -511.388 2359.09 -476.72 -0.246811 0.847771 -0.247844 0.398675 
3518 2 -475.629 2297.69 -504.971 0.0959433 -0.947997 0.295472 0.0692264 
3515 2 -477.614 2289.18 -477.486 -0.253768 0.679282 -0.685672 0.0634911 
3507 2 -496.221 2309.97 -408.327 0.11937 0.985513 -0.103779 -0.0611967 
3508 2 -497.494 2308.18 -417.919 0.134294 0.421168 -0.849448 0.288133 
3509 2 -497.224 2302.02 -425.674 -0.249586 -0.365733 -0.855181 0.269467 
3510 2 -494.478 2296.69 -433.639 -0.209919 -0.934461 -0.21885 -0.186607 