ITEM: TIMESTEP
100000000
ITEM: NUMBER OF ATOMS
4067
ITEM: BOX BOUNDS pp pp pp
-4.6310929470000001e+03 4.6704658980000004e+03
-4.6310929470000001e+03 4.6704658980000004e+03
-4.6310929470000001e+03 4.6704658980000004e+03
ITEM: ATOMS id type x y z c_q[1] c_q[2] c_q[3] c_q[4] 
3859 2 -616.626 2671.25 -672.928 -0.921048 -0.332181 0.0351189 -0.200235 
3858 2 -619.356 2676.52 -680.799 -0.732653 -0.0926256 -0.34398 0.579929 
3857 3 -570.066 2660.53 -683.933 0.769845 0.382796 -0.073953 0.505308 
3852 2 -523.001 2672.09 -691.209 -0.105919 -0.423982 0.868423 0.234224 
3853 2 -527.161 2675.19 -699.66 -0.308358 0.337975 0.888301 0.0401233 
3854 2 -532.062 2678.66 -707.539 -0.104897 0.946706 0.284458 -0.108761 
3851 2 -518.848 2668.11 -683.307 0.154117 -0.918829 0.202077 0.301937 
3856 1 -581.282 2683.37 -707.89 0.798841 0.377507 -0.0390591 0.466707 
3855 2 -535.001 2680.39 -716.879 0.0392238 0.768103 -0.612466 -0.182661 
3850 2 -515.526 2662.8 -675.585 0.305631 -0.723862 -0.612818 -0.0840665 
3849 2 -510.874 2658.53 -667.904 0.278901 0.14463 -0.888233 -0.335168 
4047 2 -538.444 2937.05 -674.347 -0.351723 0.177961 -0.344756 -0.851918 
4048 2 -538.92 2944.59 -667.575 0.472226 -0.179854 -0.421133 -0.753195 
3041 2 -393.854 1577.44 -569.1 -0.262073 -0.373853 0.828528 0.324182 
3042 2 -399.683 1581.16 -576.135 -0.262185 0.466168 0.84493 0.00638747 
3043 2 -404.354 1583.63 -584.425 -0.343774 0.844258 0.0988148 -0.399104 
3044 2 -411.082 1589.29 -589.188 0.053566 0.55018 -0.696998 -0.456756 
3045 2 -417.195 1595.09 -594.523 0.345677 -0.0555114 -0.879073 -0.323505 
3040 2 -387.445 1573.63 -562.663 0.102135 -0.900106 0.245949 0.3448 
3047 3 -373.416 1614.9 -574.735 -0.72249 -0.187096 -0.543263 0.384538 
3039 2 -381.465 1567.96 -557.077 0.45102 -0.729454 -0.506319 0.0901038 
3038 2 -375.912 1565.44 -549.332 0.229778 -0.00766234 -0.96137 -0.151364 
3037 2 -369.765 1561.46 -542.597 0.101143 0.703806 -0.579571 -0.398152 
3036 2 -362.627 1557.28 -537.258 -0.317688 0.847904 0.232594 -0.355011 
3035 2 -353.342 1555.82 -534.05 -0.598121 0.239162 0.760852 -0.0784652 
3034 2 -344.863 1556.32 -529.069 -0.388706 -0.576115 0.639648 0.328405 
3033 2 -335.302 1557.09 -526.587 0.0801952 -0.794419 -0.0881593 0.595563 
3032 2 -326.279 1553.06 -526.128 0.662932 -0.520202 -0.490127 0.222903 
3031 2 -316.604 1550.85 -525.283 0.585136 0.158393 -0.723448 -0.330379 
3021 2 -244.225 1599.66 -537.574 -0.476627 -0.00533848 0.820642 -0.315189 
3022 2 -251.644 1594.47 -541.609 0.0385589 0.524755 0.424127 -0.737062 
3024 2 -263.177 1578.61 -540.425 0.643429 0.55479 -0.472623 0.234167 
3029 2 -298.21 1551.78 -532.45 -0.468309 0.420305 0.341209 -0.698289 
3028 2 -288.723 1552.26 -534.831 -0.787794 -0.0242738 0.615136 0.0200045 
3023 2 -258.544 1587.42 -541.184 0.628069 0.688966 0.0567361 -0.357262 
3025 2 -266.722 1569.42 -540.382 0.441319 0.0712789 -0.655412 0.608763 
3026 2 -271.873 1561.11 -538.876 -0.0666664 -0.547386 -0.36009 0.752502 
3027 2 -279.549 1554.96 -537.834 -0.518582 -0.524771 0.247425 0.628068 
3030 2 -307.493 1550.95 -529.177 0.268997 0.499531 -0.142228 -0.811099 
3046 1 -399.096 1637.21 -583.232 -0.731938 -0.251646 -0.568703 0.278419 
3099 2 -483.06 1694.77 -579.744 -0.556286 0.563218 0.60062 -0.112193 
3098 2 -474.78 1690.14 -576.607 -0.431879 -0.146391 0.805481 0.378485 
3097 2 -467.053 1686.44 -571.748 -0.0565768 -0.758483 0.414715 0.499514 
3096 2 -459.044 1681.05 -569.004 0.508676 -0.712235 -0.315902 0.3663 
3100 1 -501.138 1699.37 -536.442 0.669383 0.375478 0.526217 0.366111 
3095 2 -450.329 1677.47 -565.977 0.543142 -0.175864 -0.814321 -0.104644 
3094 2 -443.791 1673.6 -559.806 0.086305 0.546538 -0.736686 -0.38877 
3093 2 -438.441 1670.06 -552.041 -0.261077 0.91368 0.2156 -0.22482 
3048 2 -365.816 1665.59 -565.696 0.371552 0.2997 -0.332713 0.813284 
3092 2 -431.144 1670.3 -545.339 -0.37229 0.364706 0.841182 -0.14423 
3091 2 -425.419 1668.38 -537.525 -0.166725 -0.500509 0.801707 0.280995 
3090 2 -418.989 1667.6 -530.087 -0.0288642 -0.931159 0.130415 0.339267 
3101 3 -466.612 1698.69 -530.5 0.66407 0.331938 0.569785 0.352381 
3089 2 -411.163 1669.29 -524.174 0.28734 -0.56094 -0.684284 0.366793 
3088 2 -404.515 1673.34 -517.996 0.402498 0.200057 -0.876891 0.170394 
3049 2 -362.98 1658.27 -559.772 -0.385851 -0.0915582 -0.41913 0.816741 
3050 2 -361.261 1650.48 -553.95 -0.933465 -0.338867 -0.0957298 0.068179 
3051 2 -360.198 1645.96 -545.235 -0.596866 -0.0997854 -0.128186 -0.785724 
3054 2 -352.588 1648.75 -516.707 0.905904 -0.0195302 0.182949 0.381426 
3053 2 -354.622 1646.76 -526.296 0.912999 -0.0747191 0.0208555 -0.400519 
3052 2 -357.369 1647.21 -535.843 0.327827 -0.099611 0.0349129 -0.938823 
3346 2 -357.055 1967.82 -514.935 0.354027 -0.183219 -0.493002 -0.773333 
3345 2 -359.228 1960.55 -521.348 -0.323191 0.0554724 -0.44269 -0.834564 
3871 2 -683.358 2659.53 -602.906 0.263503 -0.627614 0.0936614 0.726563 
3870 2 -677.02 2653.97 -608.19 0.841653 -0.408239 -0.272338 0.225372 
3872 2 -691.7 2664.12 -600.134 -0.146219 0.0359045 0.511104 0.846229 
3873 2 -693.564 2672.94 -596.035 -0.753028 0.551948 0.266755 0.239048 
3869 2 -670.112 2650.06 -614.24 0.698141 0.0412832 -0.49594 -0.514721 
3874 2 -695.279 2682.6 -594.113 -0.555134 0.634058 -0.353195 -0.406263 
3860 2 -616.499 2664.07 -666.009 -0.470921 -0.146582 0.597527 -0.632225 
3868 2 -663.444 2644.88 -619.259 -0.0627592 0.382843 -0.301548 -0.870954 
3867 2 -658.626 2641.16 -627.205 -0.800084 0.275675 0.0680317 -0.528431 
3861 2 -619.625 2655.11 -663.049 0.0516172 0.314128 0.349728 -0.881107 
3862 2 -624.517 2648.6 -657.351 0.756139 0.315098 -0.0380234 -0.572294 
3866 2 -650.899 2638.04 -632.656 -0.858581 0.0551922 0.456534 0.226647 
3863 2 -627.986 2644.05 -649.333 0.855655 0.0451847 -0.473538 0.2039 
3865 2 -643.479 2637.21 -639.129 -0.397945 -0.287437 0.244463 0.836216 
3864 2 -635.608 2640.76 -643.989 0.302434 -0.381069 -0.317269 0.81404 
3848 2 -507.161 2654.37 -659.756 -0.108859 0.859322 -0.442454 -0.23227 
3847 2 -501.747 2654.13 -651.602 -0.171923 0.815081 0.484194 -0.267659 
3846 2 -498.324 2651.06 -642.858 -0.200504 0.177515 0.952555 0.144654 
3845 2 -493.393 2645.27 -636.525 -0.0721309 -0.488032 0.756491 0.429352 
3844 2 -489.387 2639.11 -629.906 0.308087 -0.91294 0.149471 0.221994 
3843 2 -482.506 2633.98 -625.086 0.491755 -0.59115 -0.639297 0.00413327 
3842 2 -477.52 2628.27 -618.675 0.231447 0.0897851 -0.904641 -0.346404 
3838 2 -469.048 2616.3 -582.655 0.109375 -0.755142 0.638517 0.10047 
3837 2 -466.695 2613.56 -573.414 0.190778 -0.944011 -0.268375 0.0205407 
3836 2 -463.568 2609.1 -565.051 0.186555 -0.368161 -0.897999 -0.152489 
3835 2 -458.276 2601.67 -561.016 0.134564 0.31561 -0.769226 -0.539049 
3834 2 -452.387 2595.06 -556.727 -0.334051 0.819805 -0.158995 -0.437092 
3831 2 -426.852 2584.15 -564.347 -0.303085 -0.457261 0.208853 0.809588 
3832 2 -435.759 2585.18 -560.046 -0.711251 0.112528 0.599763 0.348917 
3833 2 -443.698 2590.42 -557.545 -0.639304 0.559706 0.43998 -0.290582 
3839 2 -469.165 2619.62 -592.012 -0.0822217 0.114076 0.976215 0.165016 
3840 2 -470.46 2623.34 -601.077 -0.224831 0.843314 0.48161 -0.0795304 
3841 2 -473.26 2626.85 -609.822 0.0372323 0.872522 -0.417534 -0.250968 
3830 3 -396.484 2602.87 -526.744 -0.7305 0.161241 0.119143 -0.652822 
3829 1 -382.933 2600.61 -558.825 -0.685419 0.22065 0.132153 -0.681212 
3827 2 -349.258 2613.48 -523.476 -0.109932 0.967972 0.130308 0.184295 
3828 2 -346.518 2615.47 -532.857 -0.158296 0.586347 -0.79435 0.0121396 
3826 2 -352.604 2611.86 -514.339 0.0884141 0.484145 0.855332 0.161846 
3875 2 -696.461 2692.27 -594.951 -0.184977 -0.0248553 -0.731347 -0.65597 
3876 2 -694.477 2702 -595.935 0.547822 -0.521495 -0.581634 -0.299393 
3877 2 -697.677 2711.25 -597.494 0.516275 -0.809593 0.00360224 0.279296 
3878 2 -702.729 2719.04 -600.943 0.120601 -0.480762 0.616002 0.612262 
3882 2 -706.217 2748.44 -620.528 -0.137741 -0.0547788 -0.974499 -0.168459 
3881 2 -708.771 2745.56 -611.396 -0.224222 0.770679 -0.596303 -0.0141797 
3880 2 -707.791 2737.51 -605.665 -0.47327 0.868907 0.14412 -0.0156541 
3879 2 -706.816 2727.9 -603.051 -0.265966 0.335679 0.729265 0.533623 
3884 3 -702.28 2784.98 -583.748 -0.860864 -0.156891 0.220204 0.431055 
3894 2 -703.019 2779 -524.297 -0.842313 -0.191271 0.318156 -0.390769 
3893 2 -698.916 2785.52 -530.473 -0.808844 -0.41897 0.0789958 0.404964 
3892 2 -697.476 2791.96 -537.65 -0.180472 -0.136134 -0.338403 0.913444 
3891 2 -693.847 2799.39 -543.158 0.53338 0.109052 -0.451611 0.706867 
3890 2 -689.13 2806.84 -547.577 0.864962 0.424336 -0.264752 0.0410591 
3889 2 -684.733 2813.26 -553.849 0.635909 0.461027 0.0631776 -0.615696 
3883 1 -683.324 2788.84 -612.903 -0.840725 -0.200459 0.259789 0.430706 
3895 2 -707.39 2773.27 -517.45 -0.149821 0.0696344 0.404123 -0.899661 
3888 2 -680.652 2819.3 -560.412 -0.253383 0.144309 0.356113 -0.887781 
3887 2 -678.093 2823.16 -569.1 -0.869356 -0.146712 0.194603 -0.429914 
3886 2 -675.501 2825.1 -578.352 -0.836209 -0.178251 0.0394626 0.517131 
3885 2 -670.79 2826.32 -587.053 0.0239424 -0.237993 -0.0686592 0.968541 
3939 2 -561.61 2720.06 -535.642 -0.10805 0.799202 -0.283981 -0.51861 
3940 2 -569.415 2724.8 -539.48 0.23095 0.18686 -0.813874 -0.499354 
3941 2 -575.037 2732.04 -543.462 0.622344 -0.48295 -0.597653 -0.149192 
3943 2 -584.719 2748.88 -543.392 0.152581 -0.506353 0.546671 0.649213 
3942 2 -581.265 2739.72 -543.425 0.644281 -0.659311 0.107215 0.372446 
3944 2 -588.929 2757.74 -544.905 -0.388944 0.116421 0.723238 0.558655 
3945 2 -593.93 2766.25 -545.558 -0.680394 0.661308 0.288762 0.12788 
3946 2 -596.81 2775.49 -546.097 -0.583238 0.632715 -0.423219 -0.283533 
3947 2 -596.209 2785.01 -548.318 0.0394222 0.0441742 -0.822644 -0.565466 
3948 2 -597.745 2794.24 -551.444 0.551829 -0.537268 -0.472879 -0.428034 
3950 2 -598.915 2813.86 -552.694 0.308129 -0.330961 0.649827 0.610939 
3949 2 -599.283 2803.93 -551.948 0.604026 -0.738451 0.227432 0.195238 
3951 2 -599.908 2823.82 -552.913 -0.301526 0.196389 0.608859 0.706968 
3952 2 -601.114 2833.4 -551.193 -0.712659 0.552141 0.430878 -0.0400056 
3963 2 -685.687 2882.46 -556.173 0.520616 -0.43711 -0.592508 0.432236 
3962 2 -675.952 2883.69 -555.104 0.67737 0.066783 -0.732598 0.00317382 
3961 2 -666.372 2886.42 -555.991 0.544244 0.590799 -0.279662 -0.525874 
3953 2 -607.464 2841 -550.17 -0.512069 0.567238 -0.117849 -0.634144 
4049 2 -539.916 2952.71 -662.081 0.89097 -0.410499 -0.193069 -0.0196908 
3954 2 -613.964 2847.9 -547.418 0.238969 0.282854 -0.652633 -0.661027 
3955 2 -621.059 2854.73 -547.168 0.642758 -0.256622 -0.6501 -0.313652 
3956 2 -627.921 2861.73 -548.486 0.521359 -0.73003 -0.281912 0.340246 
4050 2 -542.677 2959.52 -655.54 0.52683 -0.497109 0.22836 0.650526 
3957 2 -635.338 2867.84 -550.571 0.0165318 -0.64046 0.573258 0.510796 
3960 2 -656.757 2884.96 -557.776 -0.239646 0.618886 0.0773456 -0.744021 
3959 2 -648.692 2879.39 -559.464 -0.771596 0.460199 0.405402 -0.168837 
3958 2 -642.313 2873.41 -554.617 -0.377159 -0.00437473 0.84096 0.387967 
4011 2 -581.563 2948.5 -530.031 0.554274 0.284806 -0.544337 -0.561572 
4012 2 -590.764 2951.38 -527.681 0.772914 -0.126534 -0.520175 0.340604 
4010 2 -573.184 2943.55 -531.067 -0.212317 0.670616 -0.166825 -0.690916 
4009 2 -565.233 2937.79 -531.157 -0.741228 0.469204 0.451456 -0.163142 
4008 2 -556.58 2933.36 -533.519 -0.61138 -0.168303 0.584845 0.505811 
4007 2 -546.931 2931 -532.856 0.0754904 -0.727902 0.120587 0.67076 
4006 2 -537.881 2926.94 -532.926 0.6278 -0.575512 -0.394575 0.344912 
4005 2 -528.516 2923.78 -533.805 0.64106 0.109813 -0.669801 -0.35826 
4004 2 -519.757 2920.47 -537.064 0.157279 0.491004 -0.285202 -0.807984 
4051 2 -546.326 2967.41 -650.921 -0.120754 -0.129781 0.446412 0.877093 
4013 2 -599.732 2950.6 -523.413 0.262512 -0.246075 -0.259244 0.896285 
4052 2 -549.392 2974.75 -645.235 -0.675211 0.386667 0.27089 0.566742 
4053 2 -549.369 2982.66 -639.393 -0.823489 0.529869 -0.172437 -0.106636 
4054 2 -547.09 2991.53 -636.132 -0.447805 0.171829 -0.306584 -0.822163 
4028 2 -548.523 2984.62 -519.861 -0.0416931 -0.893306 -0.40794 -0.183985 
4029 2 -545.922 2986.46 -529.198 0.0640382 -0.886323 0.44786 -0.0987531 
4034 2 -520.696 2985.41 -569.835 -0.293987 -0.299953 -0.881069 -0.217525 
4030 2 -543.63 2986.42 -538.882 0.194558 -0.175199 0.960059 -0.0986919 
4032 2 -532.604 2985.7 -554.44 0.0653998 0.944928 -0.074997 0.311783 
4033 2 -526.33 2984.52 -561.867 -0.283059 0.510943 -0.801695 0.126882 
4031 2 -539.897 2986.42 -547.983 0.33756 0.563175 0.717466 0.232657 
4014 2 -606.042 2947.74 -516.262 -0.420067 -0.25414 -0.0404659 0.870241 
4035 2 -514.15 2987.06 -577.039 -0.10363 -0.861943 -0.355678 -0.346133 
4003 2 -511.713 2921.02 -542.639 -0.404132 0.311862 0.239051 -0.825999 
4002 2 -503.695 2918.79 -548.065 -0.844149 0.243093 0.386636 -0.280768 
4001 2 -494.617 2916.48 -551.484 -0.69151 -0.22917 0.551026 0.40702 
4045 1 -495.119 2943.3 -656.647 -0.63859 0.655972 -0.0593352 -0.397974 
3998 2 -467.824 2908.5 -561.693 0.789884 -0.0155435 -0.592247 -0.158384 
3997 2 -459.249 2903.57 -561.306 0.154642 0.481756 -0.565647 -0.651184 
3996 2 -450.939 2898.28 -561.109 -0.474635 0.720693 0.0284812 -0.504492 
3995 2 -441.936 2894.14 -561.744 -0.697028 0.354074 0.623207 -0.0199086 
3994 2 -432.437 2891.56 -562.551 -0.553387 -0.352169 0.564539 0.501034 
3993 2 -423.569 2887.38 -562.479 0.168835 -0.705199 0.162762 0.669102 
3999 2 -476.819 2911.01 -558.495 0.614418 -0.497344 -0.308938 0.528864 
4000 2 -485.672 2914.31 -555.198 -0.0139635 -0.544334 0.120084 0.830112 
3992 3 -463.092 2859.1 -544.492 0.481648 -0.251189 -0.833564 0.100449 
4044 2 -460.28 2969.21 -638.213 0.498645 0.27677 0.772651 -0.27886 
4046 3 -509.351 2975.14 -654.369 -0.587944 0.689204 -0.0730356 -0.417115 
4043 2 -466.788 2975.85 -634.905 0.133056 -0.399838 0.714313 -0.558732 
3991 1 -432.588 2857.17 -527.29 0.514043 -0.188855 -0.827794 0.121864 
4042 2 -473.908 2980.08 -629.368 -0.283038 -0.910294 -0.116133 -0.278869 
4041 2 -481.534 2981.06 -623.228 -0.425169 -0.276772 -0.852632 -0.125089 
4040 2 -487.619 2981.79 -615.548 -0.219584 0.5969 -0.757598 0.146758 
4039 2 -492.835 2985.68 -608.057 0.152136 0.923308 -0.190666 0.296654 
4038 2 -497.891 2989.6 -600.497 0.376404 0.669103 0.640171 0.0283129 
4037 2 -501.389 2990.33 -591.27 0.158573 -0.0365345 0.983495 -0.0791016 
4036 2 -507.176 2987.61 -583.946 0.296542 -0.840034 0.398361 -0.218434 
4055 2 -546.468 2997.74 -628.523 0.322618 0.0218113 -0.269843 -0.906988 
4056 2 -549.106 3002.86 -620.483 0.8316 -0.22807 -0.225198 -0.453554 
4057 2 -550.726 3008.67 -612.639 0.914409 -0.219578 0.00259915 0.340051 
4058 2 -551.88 3011.82 -603.288 0.19424 -0.186982 0.05597 0.961341 
4059 2 -555.892 3013.86 -594.534 -0.593099 -0.190546 0.267427 0.735124 
4066 2 -590.539 3026.89 -542.278 -0.676663 0.188209 0.295587 0.647559 
4067 2 -591.416 3033.36 -534.782 -0.926019 0.351134 -0.0213253 -0.136888 
4065 2 -590.295 3019.64 -548.987 0.0836719 -0.11375 0.382514 0.913095 
4064 2 -586.178 3016.06 -557.341 0.800901 -0.298399 -0.116951 0.505805 
4063 2 -583.178 3013.39 -566.397 0.878108 -0.0608101 -0.211772 -0.424712 
4062 2 -575.58 3014.04 -572.68 0.0862436 0.407009 0.0516372 -0.907876 
4060 2 -562.116 3014.71 -587.09 -0.902289 -0.119845 0.407328 0.0748071 
4061 2 -568.73 3013.38 -579.742 -0.695703 0.276041 0.270845 -0.605344 
2751 2 -324.392 1032.8 -432.562 0.483854 -0.687124 0.100747 0.532537 
2752 2 -329.939 1040.79 -431.513 0.260231 -0.241703 0.660536 0.661477 
2753 2 -329.293 1050.77 -431.584 -0.481861 0.409694 0.498967 0.592446 
2754 2 -328.956 1060.64 -429.699 -0.842388 0.509326 0.0833731 0.154978 
2749 1 -304.489 1024.56 -390.558 0.688568 -0.693852 -0.101785 0.184618 
2755 2 -328.957 1069.57 -425.562 -0.648488 0.339228 -0.343043 -0.58882 
2756 2 -328.572 1078.63 -421.275 0.0686322 -0.116675 -0.608028 -0.782291 
2750 3 -315.682 1057.56 -387.6 0.713057 -0.659952 -0.165004 0.169668 
2757 2 -327.771 1088.32 -419.397 0.699984 -0.544196 -0.188515 -0.422298 
2758 2 -325.748 1097.51 -416.178 0.831468 -0.381103 0.346012 0.209038 
2759 2 -321.653 1105.65 -412.353 0.338574 0.0581216 0.569791 0.746544 
2760 2 -317.474 1114.01 -409.204 -0.370785 0.356083 0.363525 0.7769 
2761 2 -314.221 1121.92 -403.864 -0.821329 0.514377 -0.0435036 0.242781 
2762 2 -311.105 1130.11 -399.251 -0.766405 0.164675 -0.300241 -0.543471 
2763 2 -307.806 1136.55 -392.517 -0.0392903 -0.20911 -0.313402 -0.925477 
2764 2 -303.913 1142.61 -385.708 0.697413 -0.346234 0.0161556 -0.627277 
2765 2 -299.972 1147.67 -378.046 0.77556 -0.308235 0.473005 0.282427 
2766 2 -294.639 1154.98 -373.847 0.283146 0.0780448 0.56466 0.771295 
2767 2 -290.304 1162.86 -369.719 -0.447417 0.445652 0.189635 0.751832 
2768 2 -285.208 1169.6 -364.798 -0.818351 0.496883 -0.18345 0.223058 
2991 2 -430.441 1442.45 -510.641 -0.0070143 -0.871595 0.280368 0.402078 
2990 2 -423.491 1440.75 -503.745 0.308365 -0.74776 -0.547631 0.214165 
2983 2 -399.681 1446.35 -448.686 -0.086402 -0.741105 -0.638803 -0.187691 
2981 2 -408.605 1444.38 -431.584 -0.0315353 0.804749 -0.567164 0.172367 
2982 2 -404.742 1443.77 -440.639 -0.204607 0.116948 -0.968644 -0.0786604 
2980 2 -414.861 1444.03 -423.922 0.0190843 0.936925 0.137986 0.320573 
2979 2 -420.103 1446.96 -416.085 0.290703 0.531805 0.795409 -0.00041325 
2984 2 -396.365 1446.96 -457.972 -0.0613169 -0.95526 0.272778 -0.0964916 
2978 2 -424.925 1449.88 -407.934 0.186919 -0.37433 0.885516 -0.201988 
2985 2 -395.386 1444.82 -467.568 -0.10756 -0.435598 0.881588 -0.146585 
2986 2 -396.193 1442.09 -477.055 -0.0848461 0.445771 0.874273 -0.172444 
2977 2 -429.932 1453.95 -400.636 -0.0999583 -0.897075 0.246811 -0.352633 
2976 2 -433.012 1457.29 -391.707 -0.254393 -0.777462 -0.574604 -0.0258365 
2987 2 -400.301 1439.71 -485.725 -0.0572596 0.888827 0.0942727 -0.44477 
2988 2 -408.448 1440.09 -491.064 0.284383 0.656368 -0.620079 -0.322196 
2989 2 -415.851 1439.74 -497.566 0.384264 0.0197223 -0.915847 -0.114791 
2975 2 -434.053 1459.69 -382.179 -0.04294 -0.170063 -0.977452 0.117568 
2974 2 -434.828 1461.13 -372.526 0.00219126 0.587149 -0.806869 0.0649191 
2973 2 -434.295 1460.29 -362.543 -0.107206 0.993617 -0.0227678 -0.0267124 
2992 1 -453.008 1477.28 -488.196 0.835026 0.0745975 0.50819 0.197255 
2993 3 -420.874 1478.31 -474.312 0.844145 0.0539522 0.514444 0.140909 
2994 2 -456.141 1511.89 -456.326 0.742934 -0.212713 0.513314 -0.373244 
2995 2 -446.955 1512.61 -452.72 0.667226 0.108913 0.673792 0.298247 
2996 2 -437.954 1516.55 -451.922 0.357535 0.639934 0.287347 0.61651 
2997 2 -428.019 1515.61 -451.529 -0.191174 0.791632 -0.242596 0.52718 
2998 2 -418.515 1516.15 -454.571 -0.501457 0.245711 -0.816731 0.145319 
2999 2 -409.48 1515.81 -458.687 -0.459803 -0.537132 -0.590181 -0.389559 
3000 2 -400.107 1516.35 -461.88 0.060786 -0.82815 -0.0864679 -0.550451 
3001 2 -391.06 1516.91 -465.415 0.461618 -0.581579 0.583292 -0.32931 
3002 2 -381.944 1518.24 -469.346 0.547066 0.0217203 0.836237 -0.030899 
3003 2 -372.649 1517.64 -472.803 0.426725 0.542457 0.547593 0.473063 
3142 2 -451.858 1593.68 -381.528 0.302935 0.0425028 0.704072 -0.640864 
3143 2 -448.42 1584.47 -381.904 0.751903 0.550914 0.270113 -0.241196 
3144 2 -446.713 1575.28 -378.685 0.643533 0.461436 -0.176602 0.584597 
3145 2 -442.919 1567.15 -374.366 -0.0411666 0.243121 -0.515619 0.820569 
3146 2 -438.323 1559.32 -370.826 -0.734585 -0.0956064 -0.422345 0.522369 
3147 2 -433.876 1553.97 -363.847 -0.824368 -0.384664 -0.337316 -0.242217 
3141 2 -454.416 1603.09 -379.731 -0.319985 -0.524177 0.548487 -0.567459 
3140 2 -456.379 1612.79 -378.721 -0.660738 -0.748664 -0.00645981 -0.0537193 
3004 2 -362.8 1518.42 -474.077 -0.00896574 0.749055 -0.0591736 0.659799 
3005 2 -353.054 1517.08 -476.016 -0.377832 0.460352 -0.639184 0.486584 
2913 2 -335.786 1484.9 -386.355 -0.853913 0.0430814 0.244666 -0.457291 
2914 2 -339.769 1483.92 -377.193 0.0668068 0.232595 0.100503 -0.965057 
3006 2 -343.614 1514.5 -477.793 -0.670375 -0.132625 -0.728506 -0.0478315 
3007 2 -333.809 1513.3 -478.239 -0.418754 -0.513386 -0.391123 -0.638829 
3008 2 -324.04 1514.78 -477.044 0.447108 -0.619314 0.0622162 -0.642397 
3009 2 -315.624 1519.61 -475.565 0.771461 -0.43053 0.467839 0.0248675 
3010 2 -308.434 1526.3 -473.957 0.371605 -0.0815264 0.627396 0.679439 
3019 1 -254.005 1605.22 -491.757 -0.191761 0.239624 0.780399 -0.54478 
3020 3 -271.995 1576.6 -500.435 -0.17688 0.293674 0.717279 -0.606614 
3011 2 -304.231 1535.2 -472.577 -0.163904 0.392208 0.497289 0.756315 
3012 2 -300.498 1544.09 -470.513 -0.749375 0.587393 -0.00796216 0.305522 
3013 2 -296.591 1552.8 -467.936 -0.734781 0.282765 -0.404733 -0.465116 
3014 2 -293.269 1560.62 -463.165 -0.0874168 -0.17549 -0.534369 -0.822199 
3015 2 -288.876 1569.2 -460.799 0.469311 -0.486813 -0.2032 -0.708146 
3016 2 -284.568 1577.34 -456.943 0.783695 -0.537688 0.309372 0.0316694 
3017 2 -280.662 1585.94 -454.182 0.341993 -0.160683 0.616672 0.690606 
3018 2 -277.882 1595.37 -452.274 -0.274111 0.380142 0.5338 0.703855 
2911 1 -297.788 1507.76 -370.3 -0.593401 0.0352969 0.260231 -0.760861 
2915 2 -344.118 1482.18 -368.469 0.88214 0.212938 -0.0607514 -0.415688 
3139 2 -458.684 1622.22 -376.895 -0.563052 -0.540769 -0.519127 0.34792 
3087 2 -397.834 1674.79 -510.942 0.263682 0.76673 -0.549033 -0.202879 
3086 2 -393.859 1677.74 -502.376 0.131736 0.932253 0.20288 -0.269054 
3117 2 -427.559 1646.59 -394.261 0.0345632 -0.345744 0.374173 -0.859803 
3118 2 -421.687 1640.5 -389.066 0.700695 -0.0755448 0.443014 -0.554129 
3119 2 -414.905 1636.8 -383.006 0.836522 0.0471357 0.454513 0.302371 
3120 2 -406.965 1638.65 -377.287 0.189676 0.456963 0.282026 0.821991 
3102 2 -498.12 1704.77 -489.637 -0.500907 -0.655327 -0.0279882 -0.564672 
3103 2 -490.322 1698.86 -488.254 0.0299848 -0.445343 0.316382 -0.837062 
3104 2 -482.525 1693.97 -484.445 0.607755 -0.082779 0.538185 -0.578047 
3109 2 -446.837 1679.45 -456.571 -0.838295 -0.126504 -0.150084 -0.508659 
3110 2 -443.343 1678.64 -447.297 -0.0303439 -0.198755 0.0950808 -0.974954 
3111 2 -439.297 1677.09 -438.419 0.812754 -0.0938578 0.161511 -0.551848 
3112 2 -435.766 1675.31 -429.492 0.908763 0.163535 0.258509 0.283864 
3113 2 -431.108 1673.86 -420.913 0.433976 0.317212 -0.168702 0.826185 
3108 2 -452.903 1681.25 -464.417 -0.837298 0.0551383 -0.380677 0.388557 
3107 2 -459.732 1682.4 -471.551 -0.187829 0.338355 -0.191702 0.901935 
3106 2 -468.033 1682.97 -476.87 0.447233 0.402935 0.225175 0.766108 
3105 2 -475.613 1688.3 -480.355 0.822251 0.391437 0.395661 0.118881 
3114 2 -427.271 1668.48 -413.479 -0.344224 -0.22967 -0.368279 0.832545 
3115 2 -428.248 1660.78 -407.404 -0.837821 -0.446211 -0.0489334 0.310737 
3116 2 -429.672 1653.09 -401.294 -0.798361 -0.345543 0.0866659 -0.485498 
3085 2 -386.482 1676.51 -495.983 -0.353116 0.540455 0.744601 -0.169669 
3084 2 -381.263 1673.1 -488.156 -0.254569 -0.166249 0.934065 0.187291 
3083 2 -380.519 1670.85 -478.573 0.150088 -0.860674 0.482684 0.0610716 
3082 2 -376.863 1668.3 -469.742 0.176204 -0.915952 -0.335933 0.130895 
3121 2 -398.546 1640.99 -372.57 -0.458897 0.547575 -0.0763633 0.695516 
3075 2 -362.166 1641.73 -411.063 0.113225 -0.968514 -0.171415 -0.14063 
3081 2 -374.092 1666.75 -460.319 0.139372 -0.361429 -0.918069 -0.0842287 
3080 2 -368.676 1663.18 -452.774 0.208262 0.406717 -0.847338 -0.270604 
3138 2 -458.693 1631.96 -374.805 -0.0194543 -0.0672817 -0.759108 0.647186 
3079 2 -365.337 1659.27 -444.407 -0.162767 0.930985 -0.269384 -0.18495 
3078 2 -362.69 1656.28 -435.294 -0.151085 0.83741 0.525202 -0.00896156 
3122 2 -391.166 1644.66 -367.083 -0.835537 0.324888 -0.421231 0.137445 
3123 2 -383.421 1648.95 -362.652 -0.537347 -0.0115119 -0.513729 -0.668736 
3137 2 -461.747 1639.34 -368.972 0.246049 0.699682 -0.525838 0.416412 
3076 2 -359.484 1644.84 -419.931 0.160918 -0.62397 0.658914 0.388071 
3077 2 -361.407 1652.38 -426.254 -0.0805336 0.217395 0.956028 0.179623 
3055 2 -348.738 1650.44 -507.749 0.259108 0.321547 0.295768 0.86139 
3056 2 -341.428 1653.52 -501.938 -0.502966 0.416471 0.178959 0.735902 
3072 2 -273.553 1621.57 -397.894 -0.868985 -0.43025 0.202729 -0.136571 
3057 2 -336.795 1659.7 -495.78 -0.89067 0.246491 -0.291908 0.246451 
3058 2 -330.593 1663.73 -489.188 -0.746884 -0.0369194 -0.511106 -0.423759 
3071 2 -271.112 1629.64 -403.15 -0.584261 -0.414389 -0.221899 0.661574 
3059 2 -323.208 1668.29 -484.467 -0.327152 -0.229118 -0.294396 -0.868221 
3070 2 -268.028 1634.54 -410.987 0.0889947 -0.172714 -0.309055 0.930986 
3069 2 -268.002 1641.2 -418.333 0.859879 0.275301 -0.206924 0.376829 
3068 2 -269.897 1648.78 -424.4 0.825332 0.382006 0.246268 -0.335038 
3067 2 -270.333 1654.93 -432.206 0.250628 0.0759075 0.334889 -0.905137 
3066 2 -273.792 1660.11 -439.964 -0.584406 -0.262059 0.153402 -0.752504 
3065 2 -280.182 1663.27 -446.768 -0.909593 -0.199544 -0.358161 0.0673987 
3073 1 -320.272 1627.39 -394.923 -0.211553 0.732959 -0.63721 -0.109455 
3074 3 -312.989 1638.96 -427.175 -0.183962 0.74855 -0.630675 -0.0898943 
3064 2 -287.426 1664.93 -453.36 -0.684511 0.204668 -0.348298 0.606832 
3063 2 -294.495 1668.42 -459.213 0.0956322 0.433088 -0.180491 0.877902 
3060 2 -316.523 1671.29 -477.832 0.45739 -0.321653 0.118934 -0.820481 
3061 2 -310.573 1672.03 -469.732 0.861583 -0.0303366 0.452217 -0.228592 
3062 2 -302.83 1671.71 -463.623 0.722657 0.373083 0.349171 0.465462 
3208 1 -233.371 1666.39 -413.179 0.860483 -0.451812 -0.175558 -0.15689 
3210 2 -235.867 1702.59 -443.299 0.689859 -0.518617 -0.157951 -0.479774 
3211 2 -233.658 1711.1 -438.828 0.875165 -0.367606 0.259002 0.178523 
3209 3 -237.009 1693.99 -392.083 0.883992 -0.430541 -0.137351 -0.119702 
3212 2 -230.259 1718.29 -432.857 0.303057 0.088991 0.403097 0.858924 
3213 2 -226.17 1724.57 -426.386 -0.40367 0.311853 0.228895 0.829099 
3207 2 -236.413 1646.99 -370.241 -0.432302 -0.849279 0.185406 -0.239718 
3214 2 -222.283 1730.86 -419.734 -0.747606 0.610754 -0.132194 0.224921 
3206 2 -238.361 1654.66 -364.231 -0.387731 -0.728814 -0.531911 0.18859 
3215 2 -218.554 1739.64 -417.198 -0.511024 0.184218 -0.697402 -0.467492 
3216 2 -212.226 1747.05 -417.653 -0.030391 -0.477364 -0.436823 -0.76183 
3217 2 -205.644 1754.3 -416.307 0.55325 -0.614477 0.197769 -0.526516 
3218 2 -196.863 1758.54 -414.985 0.683907 -0.205164 0.699596 0.0272934 
3219 2 -187.865 1762.54 -416.042 0.376886 0.303631 0.736021 0.473327 
3220 2 -179.835 1767.32 -419.143 -0.0985755 0.599246 0.198547 0.769263 
3221 2 -171.196 1772.21 -417.588 -0.620198 0.611675 -0.295482 0.392299 
3318 2 -511.464 1896.47 -404.725 -0.228709 -0.696957 -0.117578 -0.669417 
3326 2 -437.133 1875.1 -401.445 0.233637 -0.584904 0.511601 -0.584436 
3327 2 -428.082 1871.83 -403.686 0.474437 -0.127146 0.870205 -0.0385553 
3319 2 -501.631 1895.29 -404.215 0.477463 -0.553464 0.479141 -0.485933 
3320 2 -491.781 1895.56 -404.829 0.706107 -0.0435736 0.695801 -0.123998 
3325 2 -445.514 1880.15 -400.483 -0.35507 -0.734082 -0.0680769 -0.574817 
3324 2 -455.093 1882.22 -401.848 -0.752776 -0.231017 -0.602257 -0.131323 
3323 2 -463.755 1886.58 -403.28 -0.48503 0.236798 -0.566091 0.623068 
3321 2 -482.101 1893.68 -404.963 0.524226 0.585856 0.337352 0.517835 
3322 2 -472.517 1891.09 -404.649 0.0143541 0.564079 -0.306148 0.766735 
3328 2 -420.082 1872.9 -409.532 0.202644 0.586678 0.543184 0.565416 
3329 2 -411.571 1876.52 -413.131 -0.467846 0.724544 -0.100877 0.495964 
3330 2 -403.857 1882.54 -414.462 -0.621805 0.389917 -0.678823 -0.0228594 
3331 2 -395.626 1887.88 -416.34 -0.29011 -0.280489 -0.742442 -0.534736 
3332 2 -388.157 1893.6 -419.513 0.194275 -0.743804 -0.123384 -0.627526 
3333 2 -379.89 1898.32 -421.736 0.522271 -0.571996 0.609336 -0.169595 
3317 3 -480.303 1910.97 -365.781 -0.476645 0.775356 -0.252629 0.328345 
3334 2 -371.405 1902.39 -425 0.602236 0.168262 0.731061 0.273037 
3335 2 -361.965 1905.3 -426.826 -0.0170748 0.737323 0.499784 0.454179 
3264 2 -365.024 1803.81 -395.674 0.33197 0.245931 0.21602 0.884675 
3336 2 -355.473 1910.6 -431.973 -0.376861 0.887673 -0.186657 0.187543 
3265 2 -359.38 1805.97 -387.874 -0.472469 0.308133 0.0175098 0.825543 
3337 2 -351.055 1917.08 -438.17 -0.504242 0.443447 -0.73581 0.0876292 
3338 2 -342.855 1920.41 -442.66 -0.511323 -0.218484 -0.808536 -0.192571 
3262 1 -340.709 1826.28 -429.253 -0.48184 0.0547907 -0.239936 -0.840987 
3263 3 -331.634 1843.26 -400.094 -0.53259 0.0681129 -0.281837 -0.795158 
3261 2 -310.531 1859 -444.904 0.117215 -0.136194 -0.969264 0.168044 
3260 2 -307.792 1861.73 -435.766 0.21691 0.724843 -0.653661 -0.0167449 
3259 2 -303.267 1866.73 -428.486 0.210833 0.926683 0.193397 -0.243734 
3256 2 -281.053 1875.92 -411.362 -0.290541 -0.788677 0.3444 0.418285 
3258 2 -295.696 1869.88 -423.015 -0.294769 0.443303 0.781658 -0.324967 
3257 2 -289.433 1873.63 -416.253 -0.381092 -0.364904 0.845485 -0.0822765 
3255 2 -272.212 1875.23 -406.977 0.325937 -0.733451 -0.403234 0.439565 
3254 2 -267.391 1871.88 -399.157 0.27081 -0.153107 -0.948239 -0.0637356 
3253 2 -260.124 1868.55 -393.626 0.124514 0.67246 -0.567893 -0.45803 
3252 2 -254.444 1862.07 -388.746 -0.420396 0.859412 0.0731484 -0.28165 
3266 2 -354.517 1808.73 -379.72 -0.967272 0.0304018 -0.234817 0.091223 
3267 2 -349.737 1809.47 -371.035 -0.705586 -0.251039 -0.23691 -0.618871 
3251 2 -248.308 1854.72 -386.826 -0.618819 0.38585 0.654908 0.198188 
3250 2 -239.704 1851.52 -383.171 -0.312667 -0.416415 0.740226 0.425328 
3248 2 -222.922 1851.11 -372.867 0.301354 -0.545252 -0.730613 0.279449 
3249 2 -230.773 1850.72 -379.068 0.0232953 -0.851779 -0.0199364 0.523003 
3268 2 -343.14 1808.97 -363.662 0.0140098 -0.317237 0.173502 -0.932235 
3247 2 -213.567 1850.99 -369.359 0.604155 0.133205 -0.778824 -0.10337 
3342 2 -306.082 1923.8 -456.089 0.419134 0.520374 0.682066 0.297193 
3339 2 -333.599 1922.1 -446.072 -0.208249 -0.70305 -0.318939 -0.600526 
3340 2 -323.985 1924.17 -447.838 0.337239 -0.669351 0.487294 -0.448089 
3341 2 -314.735 1924.54 -451.589 0.515955 -0.140348 0.839087 -0.10013 
3222 2 -162.98 1777.63 -416.37 -0.701393 0.016451 -0.698962 -0.138671 
3246 2 -204.29 1850.55 -366.244 0.187531 0.735341 -0.354378 -0.546371 
3245 2 -194.469 1850.79 -367.421 -0.38578 0.543544 0.36206 -0.651648 