ITEM: TIMESTEP
100000000
ITEM: NUMBER OF ATOMS
4067
ITEM: BOX BOUNDS pp pp pp
-4.6310929470000001e+03 4.6704658980000004e+03
-4.6310929470000001e+03 4.6704658980000004e+03
-4.6310929470000001e+03 4.6704658980000004e+03
ITEM: ATOMS id type x y z c_q[1] c_q[2] c_q[3] c_q[4] 
3990 2 -838.65 3092.33 -693.34 0.14932 -0.7844 -0.0135306 0.601862 
3989 2 -829.085 3090.51 -691.484 0.511627 -0.553819 -0.581033 0.306468 
3991 1 -866.357 3062.71 -669.218 -0.514569 -0.399465 -0.312949 -0.691165 
3988 2 -821.374 3087.43 -686.097 0.423372 0.0527201 -0.875709 -0.226076 
3987 2 -814.123 3083.55 -680.633 -0.00371476 0.771703 -0.418802 -0.478608 
3986 2 -806.341 3082.56 -674.537 -0.211291 0.821088 0.344892 -0.402766 
3985 2 -799.76 3079 -668.108 -0.383775 0.194846 0.892412 0.135474 
4059 2 -840.349 3158.23 -685.877 0.0208866 0.804331 0.577199 0.139485 
4058 2 -845.791 3161.28 -678.085 0.292852 0.0598733 0.943595 -0.142415 
4060 2 -837.435 3158.59 -695.394 -0.134344 0.875751 -0.320328 0.335263 
4061 2 -830.823 3158.37 -702.735 -0.284638 0.248644 -0.903474 0.20222 
4057 2 -850.381 3165.12 -670.221 0.0317714 -0.741029 0.589639 -0.319675 
4062 2 -824.155 3156.68 -709.627 -0.339158 -0.456469 -0.809591 -0.145499 
4063 2 -817.356 3155.76 -716.722 -0.123213 -0.852676 -0.343834 -0.373552 
4064 2 -810.061 3155.24 -723.456 0.23161 -0.746716 0.483482 -0.393723 
4065 2 -801.596 3154.15 -728.625 0.386003 0.0329702 0.908438 -0.157017 
4067 2 -786.708 3150.32 -741.13 0.0225295 0.867972 -0.146211 0.474068 
4066 2 -794.455 3152.18 -735.223 0.340103 0.680874 0.586415 0.277234 
3367 2 -531.604 1921.62 -524.692 -0.447705 -0.680251 -0.476317 -0.331574 
3368 2 -522.808 1918.83 -528.13 -0.0837689 -0.796873 0.227765 -0.553262 
3366 2 -538.417 1925.67 -518.562 -0.3802 0.0238619 -0.892723 0.240675 
3369 2 -514.438 1914.6 -531.333 0.384393 -0.262468 0.781179 -0.416068 
3365 2 -546.235 1930.75 -515.192 0.00900063 0.645687 -0.491394 0.584413 
3377 2 -564.53 1999.48 -552.222 -0.967669 0.248971 0.0399144 0.00613598 
3376 2 -562.64 1993.26 -559.785 -0.565833 0.103322 0.326664 0.749965 
3375 2 -559.838 1986.44 -566.449 0.1634 -0.213198 0.348589 0.897961 
3378 2 -565.646 2004.26 -543.677 -0.408971 0.14715 -0.281741 -0.855401 
3379 2 -566.366 2010.79 -536.13 0.392547 -0.127814 -0.239534 -0.878746 
3380 2 -565.969 2015.53 -527.388 0.935522 -0.152306 -0.165359 -0.272504 
3374 2 -552.132 1985.33 -572.544 0.629678 -0.354525 -0.352977 0.594327 
3371 3 -548.184 1950.66 -547.579 -0.830452 0.152424 0.499107 -0.194957 
3373 2 -546.003 1983.88 -580.214 0.926135 -0.0209261 -0.331958 -0.177876 
3372 2 -540.226 1982.11 -588.106 0.428699 0.214735 -0.239972 -0.844109 
3370 1 -518.008 1947.38 -565.055 -0.863962 0.130126 0.446273 -0.193592 
3381 2 -566.798 2020.09 -518.682 0.867823 -0.245914 0.129784 0.411783 
3621 2 -647.027 2365.13 -528.136 -0.600738 0.764895 0.232013 0.0147917 
3619 2 -644.884 2346.11 -523.441 0.222523 -0.20476 0.733844 0.608301 
3620 2 -645.169 2355.92 -525.201 -0.362973 0.317121 0.751362 0.45071 
3618 2 -642.372 2336.54 -522.765 0.629434 -0.72506 0.107994 0.257757 
3617 2 -642.493 2326.9 -524.842 0.635004 -0.543804 -0.344617 -0.42695 
3616 2 -639.922 2317.58 -526.032 0.143567 0.087201 -0.637668 -0.751774 
3615 2 -637.288 2307.95 -526.514 -0.549081 0.615252 -0.300685 -0.479128 
3613 1 -601.154 2312.02 -556.546 0.479304 -0.402979 0.45972 0.629709 
3614 3 -605.094 2344.63 -544.286 0.424513 -0.312846 0.468847 0.708589 
3612 2 -566.89 2335.99 -578.524 0.285982 0.860196 0.342899 -0.246368 
3611 2 -564.81 2342.59 -571.503 -0.02444 0.282982 0.883107 -0.373425 
3610 2 -561.593 2346.66 -563.019 -0.250063 -0.502483 0.823031 -0.0871777 
3609 2 -562.562 2350.17 -553.877 -0.189665 -0.978065 0.0598704 -0.0619057 
3608 2 -565.091 2354.43 -545.21 -0.207979 -0.772631 -0.598959 0.0321581 
3622 2 -648.92 2374.37 -531.603 -0.434218 0.677476 -0.414436 -0.425116 
3607 2 -566.869 2359.68 -537.088 -0.136444 -0.0620654 -0.935084 0.321169 
3606 2 -569.367 2365.27 -529.273 0.151952 0.709345 -0.620843 0.297144 
3605 2 -573.907 2370.83 -522.562 0.379137 0.881438 0.201198 0.197083 
3604 2 -576.41 2377.93 -516.102 0.241789 0.33162 0.847244 -0.337259 
3639 2 -742.159 2482.73 -520.932 0.101422 -0.870026 0.0772534 0.476235 
3638 2 -734.686 2480.09 -515.065 0.410798 -0.697241 -0.528747 0.255981 
3628 2 -671.279 2425.55 -525.16 -0.851388 0.471435 0.221547 -0.061686 
3629 2 -674.876 2433.65 -520.784 -0.465275 0.426301 -0.33224 -0.701002 
3627 2 -667.848 2418.35 -530.987 -0.710259 0.21181 0.399311 0.539648 
3630 2 -678.458 2441.61 -516.226 0.320095 0.0671562 -0.545773 -0.771467 
3623 2 -651.054 2383.57 -534.598 0.100237 0.0911639 -0.758353 -0.637607 
3626 2 -663.604 2410.08 -534.465 0.0365864 -0.172438 0.545382 0.819442 
3625 2 -659.293 2401.23 -535.78 0.596731 -0.640055 0.104129 0.472651 
3624 2 -653.765 2393.06 -535.635 0.7159 -0.530343 -0.453455 -0.0245207 
3583 2 -579.517 2528.64 -519.154 0.0442287 -0.495426 0.497411 0.710759 
3582 2 -574.988 2521.58 -514.042 0.444035 -0.858883 -0.0349825 0.252843 
3585 2 -588.196 2544.89 -514.878 -0.81112 0.559796 0.154481 0.069632 
3584 2 -586.261 2535.7 -518.14 -0.455933 0.228169 0.537157 0.671957 
3992 3 -837.514 3064.89 -649.251 -0.486337 -0.392049 -0.272079 -0.731947 
4036 2 -835.044 3113.25 -639.33 -0.223036 0.411056 0.617284 -0.632652 
4037 2 -843.323 3107.98 -640.875 0.415446 0.784706 0.0945756 -0.450217 
4035 2 -826.961 3119 -638.62 -0.650144 -0.189734 0.689923 -0.255578 
4038 2 -849.534 3100.75 -643.53 0.55371 0.506603 -0.658598 0.0548375 
3993 2 -875.878 3033.6 -633.32 0.83286 -0.081185 0.523636 0.159868 
3994 2 -868.038 3036.95 -628.05 0.32783 0.198131 0.397494 0.833829 
3995 2 -861.752 3041.97 -622.201 -0.346234 0.565338 0.0907462 0.743155 
4039 2 -856.447 3094.17 -646.04 0.406696 -0.191363 -0.630955 0.632357 
4040 2 -864.194 3088 -646.012 -0.202803 -0.62713 -0.270146 0.701855 
4041 2 -872.664 3082.95 -645.266 -0.338225 -0.628366 0.588527 0.379994 
4042 2 -881.77 3082.62 -649.153 -0.700759 0.0802298 0.70604 0.0633062 
4043 2 -891.35 3084.72 -650.495 -0.319703 0.708459 0.263632 -0.571292 
4044 2 -900.999 3086.2 -651.979 0.30231 0.612696 -0.439984 -0.582775 
3996 2 -854.508 3047.54 -618.283 -0.877312 0.372945 -0.229717 0.196125 
3997 2 -848.59 3052.52 -612.057 -0.746533 0.127228 -0.467066 -0.456455 
3998 2 -842.064 3058.75 -608.134 -0.0413337 -0.335837 -0.538817 -0.77148 
3999 2 -836.956 3066.59 -605.601 0.6394 -0.621385 0.00132797 -0.45282 
4000 2 -831.859 3074.68 -602.712 0.770702 -0.501073 0.381276 0.0978432 
4046 3 -881.42 3129.76 -631.693 -0.574936 0.00921008 -0.806369 -0.13832 
4045 1 -914.629 3121.57 -623.855 -0.566342 0.0272129 -0.816894 -0.10583 
4001 2 -826.84 3082.84 -600.183 0.321471 0.0309157 0.557797 0.764567 
4002 2 -822.828 3091.31 -596.912 -0.23782 0.617596 0.339083 0.66861 
4034 2 -821.789 3125.99 -643.183 -0.785098 -0.485135 0.110265 0.368927 
4003 2 -816.334 3098.78 -596.306 -0.685111 0.623459 -0.371926 0.0599388 
4033 2 -814.449 3132.28 -644.938 -0.124952 -0.582935 -0.332503 0.730764 
4032 2 -810.132 3141.15 -645.466 0.280305 -0.000577554 -0.718067 0.637031 
4004 2 -810.812 3107.02 -596.499 -0.57283 0.128293 -0.562708 -0.582037 
4005 2 -805.718 3115.03 -593.764 0.153997 -0.268451 -0.61548 -0.724847 
4006 2 -803.879 3124.64 -592.115 0.738343 -0.54209 -0.0954817 -0.389706 
4007 2 -801.041 3133.33 -588.469 0.621981 -0.509936 0.502151 0.317724 
3984 2 -793.761 3075.62 -660.968 -0.124133 -0.679988 0.633837 0.347071 
3983 2 -789.748 3073.51 -652.127 0.182639 -0.956709 -0.129254 0.18613 
3982 2 -782.968 3072.25 -645.023 0.36085 -0.495886 -0.77306 0.162054 
3981 2 -778.389 3070.76 -636.202 0.175094 0.287864 -0.934057 -0.118382 
3980 2 -772.2 3071.43 -628.425 0.138795 0.913132 -0.237011 -0.301249 
3979 2 -768.666 3072.32 -619.227 -0.133316 0.818958 0.513956 -0.217678 
3978 2 -764.399 3075.46 -610.94 -0.181553 0.0893468 0.958403 -0.201295 
3977 2 -758.333 3079.87 -604.365 -0.389838 -0.682665 0.606884 0.116992 
3976 2 -751.141 3083.02 -598.247 -0.099956 -0.89294 -0.162688 0.407675 
3975 2 -744.203 3084.06 -591.08 0.271617 -0.466154 -0.803473 0.251706 
3974 2 -738.197 3084.21 -583.109 0.306082 0.319045 -0.880679 -0.170086 
3973 2 -735.282 3086.9 -574.06 0.188099 0.921161 -0.333005 -0.0720334 
3972 2 -735.118 3091.29 -565.263 0.172927 0.748713 0.629659 -0.114254 
3971 2 -736.84 3094.91 -556.231 0.0343056 -0.160962 0.966148 -0.198678 
3970 2 -742.599 3100.78 -550.693 -0.1426 -0.791503 0.400868 -0.43874 
3969 2 -749.962 3106.86 -548 -0.572908 -0.679112 -0.419991 -0.184906 
3968 2 -756.759 3113.88 -549.264 -0.561676 -0.0612729 -0.660617 0.494319 
3967 2 -765.478 3118.45 -550.486 -0.104174 0.530982 -0.393952 0.742972 
3966 2 -774.292 3122.87 -549.46 0.431087 0.740196 0.161085 0.49023 
4008 2 -797.677 3142.72 -588.225 0.0398733 -0.0298538 0.585933 0.808827 
4056 2 -855.465 3169.17 -662.714 -0.281994 -0.902311 -0.255537 -0.202521 
4055 2 -859.162 3174.19 -655.055 -0.309809 -0.336138 -0.861467 0.221144 
4054 2 -862.969 3174.66 -645.865 -0.131522 0.579451 -0.785103 0.174792 
4053 2 -866.938 3174.59 -636.859 0.0243843 0.975504 -0.103956 0.192331 
4052 2 -871.203 3173.06 -628.045 0.0964761 0.694207 0.688988 0.184567 
4051 2 -877.473 3171.76 -620.456 0.354526 -0.102338 0.92894 0.0301462 
4048 2 -897.694 3161.87 -602.358 -0.459975 0.0633797 -0.864195 -0.193837 
4049 2 -889.858 3165.97 -607.036 -0.0810738 -0.646101 -0.577312 -0.492636 
4050 2 -882.892 3170.81 -612.105 0.104267 -0.800011 0.533663 -0.253602 
4047 2 -907.382 3161.57 -599.829 -0.412993 0.568891 -0.556174 0.44325 
4017 2 -835.66 3208.12 -552.936 -0.771174 0.556256 0.217304 -0.220565 
4018 1 -827.202 3238.1 -588.418 -0.148541 0.119143 -0.846202 0.497677 
4016 2 -829.849 3200.83 -556.004 -0.684958 0.220197 0.569569 0.397413 
4015 2 -821.587 3195.54 -558.077 -0.211311 -0.39375 0.464637 0.764475 
4031 2 -808.296 3150.9 -643.968 0.598862 0.6537 -0.39896 0.234247 
4019 3 -815.99 3207.5 -601.138 -0.0699679 0.142219 -0.835923 0.525462 
4020 2 -813.39 3249.19 -632.083 -0.605819 -0.693738 -0.14974 -0.359568 
4009 2 -797.821 3152.18 -585.437 -0.578839 0.303914 0.38616 0.650739 
4021 2 -806.669 3241.98 -631.75 -0.171815 -0.617562 0.491779 -0.589279 
4022 2 -800.674 3234.66 -634.727 0.260629 0.0971944 0.794443 -0.539894 
4014 2 -815.22 3188.8 -561.584 0.565446 -0.552321 0.0789497 0.607437 
4013 2 -810.758 3180.58 -564.762 0.782638 -0.426031 -0.408089 -0.198592 
4030 2 -804.869 3159.84 -641.605 0.518167 0.800178 0.0825942 -0.29051 
4029 2 -802.307 3169.37 -640.984 0.136427 0.374642 0.688853 -0.605403 
4012 2 -805.153 3175.28 -570.952 0.379172 0.190628 -0.333748 -0.841726 
4028 2 -802.972 3179.13 -641.752 -0.386421 -0.390197 0.534369 -0.642553 
4027 2 -804.707 3188.71 -643.181 -0.73389 -0.662666 -0.134042 -0.0656704 
4010 2 -798.385 3160.77 -580.352 -0.83735 0.537708 0.0857085 0.0486748 
4011 2 -798.73 3169.89 -576.196 -0.419794 0.472206 -0.128112 -0.764449 
4023 2 -797.965 3225.66 -638.08 0.452407 0.816536 0.206192 -0.293399 
4024 2 -800.579 3216.8 -641.12 0.542268 0.674969 -0.496097 0.0651872 
4025 2 -804.662 3208.22 -644.285 0.254356 0.145977 -0.733689 0.612939 
4026 2 -806.008 3198.37 -643.874 -0.440946 -0.329242 -0.597262 0.583476 
2452 1 -234.889 475.844 -399.977 -0.821402 0.153387 -0.190941 -0.515085 
2454 2 -277.228 488.763 -383.487 0.933989 -0.315878 0.164697 -0.0275664 
2455 2 -273.077 494.606 -376.6 0.674745 -0.0618086 0.309592 0.667122 
2456 2 -270.651 499.392 -368.377 -0.184305 0.230732 0.280276 0.913367 
2453 3 -227.458 489.185 -368.575 -0.809098 0.210371 -0.18722 -0.515803 
2451 2 -188.31 469.974 -396.687 0.00821237 -0.986236 0.16421 0.0174835 
2450 2 -187.71 469.767 -386.767 0.0406357 -0.700336 -0.712633 0.00573649 
2449 2 -185.31 472.337 -377.545 0.165683 0.210483 -0.952039 0.14788 
2448 2 -182.815 475.679 -368.733 0.162156 0.959012 -0.21188 -0.0954385 
2586 2 -95.462 789.094 -362.873 0.0328703 -0.955488 -0.2343 -0.176255 
2666 2 -317.253 994.065 -374.599 0.018515 0.977001 0.17092 -0.126147 
2665 2 -314.489 996.051 -365.235 -0.0221537 0.590787 0.793966 -0.141768 
2667 2 -318.793 993.002 -384.285 0.0780921 0.766802 -0.636961 -0.0140712 
2669 3 -272.072 1013.56 -374.977 0.66066 -0.0904931 0.355556 -0.654919 
2672 2 -241.878 1043.67 -387.257 -0.749767 -0.246072 0.0184324 -0.613969 
2671 2 -245.989 1047.23 -395.398 -0.928137 -0.126489 -0.257682 0.236985 
2668 1 -289.757 1025.25 -402.883 0.694159 0.0148505 0.364916 -0.620289 
2670 2 -249.872 1050.55 -403.917 -0.410287 0.112327 -0.233357 0.87441 
2673 2 -239.254 1039.63 -378.601 -0.148695 -0.17079 0.237966 -0.944507 
2674 2 -236.994 1034.3 -370.551 0.716096 0.0349397 0.192647 -0.66998 
2675 2 -234.788 1030.39 -361.663 0.895876 0.356825 0.0821104 0.251673 
2994 2 -541.42 1360.32 -382.944 0.316876 -0.550064 0.191583 -0.748542 
2995 2 -532.067 1360.74 -379.836 0.743875 -0.122455 0.581763 -0.305298 
2996 2 -522.774 1359.34 -377.016 0.586658 0.510136 0.46343 0.425236 
2997 2 -513.004 1357.77 -375.893 0.0128535 0.588505 -0.000846089 0.808391 
2998 2 -503.834 1356.47 -372.513 -0.712981 0.284632 -0.337024 0.54503 
2999 2 -496.038 1356.1 -366.564 -0.809632 -0.222439 -0.463975 -0.28239 
3000 2 -487.467 1354.68 -361.757 -0.183405 -0.631164 -0.249038 -0.711319 
3011 2 -404.097 1388.69 -402.578 -0.591039 0.777614 -0.177804 -0.119892 
3012 2 -404.447 1398.02 -406.02 -0.356034 0.358997 -0.647791 -0.569849 
3010 2 -407.056 1380.02 -398.958 -0.284368 0.614107 0.535651 0.50506 
3013 2 -403.181 1407.83 -406.947 0.365236 -0.175422 -0.712766 -0.572534 
3009 2 -413.037 1373.92 -393.914 0.226138 0.0918381 0.834937 0.493262 
3014 2 -406.573 1417.08 -407.212 0.670535 -0.635843 -0.382129 -0.00801028 
3008 2 -419.173 1369.43 -387.631 0.406185 -0.717697 0.54962 -0.133575 
3007 2 -426.685 1367.78 -381.527 -0.0467328 -0.858744 -0.20871 -0.465634 
3006 2 -433.801 1369.45 -374.871 -0.441499 -0.488522 -0.744506 -0.110159 
3005 2 -441.306 1367.8 -368.519 -0.384111 0.436028 -0.810792 0.070389 
3004 2 -450.537 1366.59 -365.063 -0.199594 0.803336 -0.134654 0.544685 
3003 2 -459.667 1363.41 -362.481 0.375447 0.484935 0.561219 0.555798 
3015 2 -411.022 1425.87 -407.892 0.374794 -0.699709 0.0161677 0.60801 
3016 2 -419.347 1431.02 -407.405 -0.212657 -0.383646 0.673512 0.594958 
3017 2 -427.146 1436.95 -409.375 -0.648293 0.00464504 0.760112 0.0438708 
3018 2 -436.896 1437.37 -410.877 -0.482004 0.537017 0.550996 -0.419151 
3066 2 -214.842 1436.74 -374.038 -0.768384 -0.435802 0.115647 0.45419 
3067 2 -219.239 1430.99 -367.39 -0.822842 -0.24131 0.358689 -0.368839 
3065 2 -209.886 1441.91 -380.847 -0.0796718 -0.255871 -0.259839 0.927721 
3064 2 -208.751 1448.02 -388.446 0.630329 0.180447 -0.256296 0.710237 
3063 2 -207.398 1454.39 -395.685 0.931378 0.358789 -0.0609051 -0.00979593 
3062 2 -201.808 1459.64 -402.039 0.36544 0.44601 0.127059 -0.807084 
3061 2 -201.241 1465 -410.427 -0.316997 -0.0736187 0.279431 -0.903334 
3081 2 -149.431 1466.51 -364.775 0.100502 -0.798886 0.590049 0.0593504 
3020 3 -400.646 1472.37 -398.538 -0.587685 -0.12983 -0.798266 -0.0232797 
3019 1 -433.589 1479 -388.791 -0.589553 -0.0948555 -0.801423 -0.0339269 
3022 2 -400.643 1515.9 -374.514 -0.13953 -0.889871 0.130924 -0.41415 
3023 2 -392.774 1513.04 -379.82 0.479 -0.503511 0.645841 -0.316108 
3024 2 -383.41 1513.89 -382.785 0.61909 0.215005 0.715285 0.242626 
3025 2 -373.692 1514.02 -384.255 0.0931388 0.643321 0.118389 0.750631 
3026 2 -364.048 1514.67 -382.359 -0.625072 0.540763 -0.377583 0.417483 
3021 2 -409.378 1514.9 -370.008 -0.330001 -0.635478 -0.570788 -0.401831 
3027 2 -354.673 1517.47 -381.045 -0.548258 0.00707821 -0.801581 -0.238392 
3033 2 -297.501 1525.09 -385.225 -0.336698 0.610117 -0.564858 0.441959 
3032 2 -306.942 1523.5 -382.59 0.0113073 0.788042 0.116661 0.604361 
3030 2 -326.599 1523.27 -382.696 0.705416 -0.230953 0.619641 -0.255133 
3031 2 -316.84 1523.5 -381.273 0.603616 0.320131 0.650399 0.331881 
3029 2 -336.383 1523.08 -384.507 0.24678 -0.613847 0.237489 -0.71126 
3034 2 -288.189 1525.49 -388.793 -0.587697 0.0487097 -0.806043 0.0503496 
3035 2 -278.621 1525.43 -391.491 -0.364653 -0.514983 -0.549331 -0.547773 
3036 2 -268.886 1527.12 -392.085 0.0989035 -0.777269 0.0473819 -0.619537 
3037 2 -259.493 1527.72 -395.213 0.423805 -0.310648 0.652219 -0.54635 
3038 2 -250.995 1522.69 -395.06 0.675506 0.293428 0.66723 0.111337 
3039 2 -241.504 1519.42 -395.302 0.431348 0.672656 0.0676393 0.597409 
3028 2 -346.18 1521.6 -384.161 -0.233274 -0.624781 -0.361601 -0.651518 
3040 2 -232.653 1515.32 -394.324 -0.496197 0.251209 -0.294022 0.777324 
3041 2 -225.043 1513.77 -388.116 -0.815626 -0.0576023 -0.575645 -0.0083221 
3049 2 -217.14 1564.65 -449.495 0.671225 0.669173 0.305136 -0.0925006 
3042 2 -215.542 1513.98 -385.083 -0.446846 -0.564782 -0.337351 -0.606255 
3050 2 -214.606 1555.2 -450.811 0.4384 0.532585 -0.550261 0.470501 
3048 2 -219.396 1573.94 -446.827 0.297943 0.294191 0.743055 -0.522064 
3054 2 -213.889 1518.43 -445.138 -0.424153 -0.338576 0.446776 -0.711233 
3053 2 -214.753 1526.8 -450.426 -0.822127 -0.517535 0.0996982 -0.215235 
3055 2 -213.007 1509.16 -441.521 0.311087 0.112751 0.566732 -0.754537 
3051 2 -213.957 1545.36 -452.723 0.0110881 -0.296608 -0.700764 0.648715 
3052 2 -217.066 1535.94 -453.568 -0.692503 -0.443532 -0.414582 0.389668 
3056 2 -210.147 1500.83 -437.171 0.811085 0.353902 0.393653 -0.248863 
3047 3 -214.475 1528.45 -422.194 -0.334876 -0.199834 0.832187 -0.394194 
3060 2 -199.047 1468.98 -419.177 -0.8999 -0.165528 0.113667 -0.387118 
3043 2 -205.892 1513.66 -383.206 0.419065 -0.632166 0.159723 -0.631854 
3057 2 -205.512 1493.56 -432.432 0.699333 0.503404 -0.188643 0.471096 
3082 2 -148.426 1469.36 -374.276 0.317252 0.0211906 0.826772 0.464058 
3059 2 -198.715 1476.91 -425.158 -0.7654 -0.396649 -0.247891 0.442021 
3058 2 -203.472 1485.11 -427.707 -0.107299 0.282701 -0.591968 0.747088 
3083 2 -143.497 1476.14 -379.577 -0.235745 0.642226 0.498331 0.532575 
3046 1 -201.807 1557.08 -406.376 -0.354057 -0.189632 0.836964 -0.371719 
3044 2 -196.982 1517.5 -381.443 0.848205 -0.259036 0.460962 -0.0310254 
3045 2 -189.223 1522.2 -377.269 0.49549 0.202522 0.538127 0.651072 
3093 2 -105.368 1551.19 -417.785 0.195288 -0.505783 -0.649231 -0.533428 
3092 2 -105.903 1542.69 -412.743 -0.253655 0.432653 -0.749594 -0.431949 
3094 2 -102.663 1560.19 -421.481 0.602459 -0.774479 -0.0253435 -0.191269 
3095 2 -99.7937 1569.69 -422.632 0.546226 -0.404117 0.573005 0.458248 
3091 2 -108.172 1536.38 -405.562 -0.323784 0.91335 -0.245921 0.02188 
3090 2 -111.34 1531.25 -397.568 -0.116357 0.754235 0.564435 0.314648 
3096 2 -97.7458 1579.4 -422.497 0.0839627 0.157461 0.573062 0.799847 
3089 2 -111.85 1523.62 -391.145 -0.02978 0.0732291 0.915208 0.395153 
3088 2 -117.265 1516.43 -387.05 0.48249 -0.64797 0.586572 0.0571975 
3097 2 -94.3868 1588.3 -419.693 -0.494878 0.663725 0.316027 0.46335 
3087 2 -123.835 1509.11 -385.274 0.338798 -0.78114 -0.146286 -0.503624 
3086 2 -130.258 1501.52 -384.845 -0.00850959 -0.376148 -0.567574 -0.732325 
3085 2 -136.272 1493.58 -385.287 -0.569017 0.162041 -0.683691 -0.427235 
3098 2 -91.4096 1597.83 -419.287 -0.694795 0.589267 -0.412155 -0.0123867 
3099 2 -86.1905 1606.18 -419.918 -0.417312 0.0533619 -0.724546 -0.545927 
3084 2 -139.171 1484.32 -382.943 -0.621266 0.76566 -0.165517 0.0199557 
3101 3 -124.716 1632.29 -396.83 0.818182 0.381129 -0.430476 0.00307673 
3100 1 -97.8957 1650.71 -409.715 0.831623 0.367116 -0.404564 -0.0997859 
3102 2 -126.505 1683.99 -392.578 0.289344 -0.245744 -0.403371 0.832575 
3103 2 -132.782 1679.47 -386.288 -0.58271 -0.400116 -0.078563 0.702983 
3104 2 -136.739 1672.95 -379.866 -0.919483 -0.380159 0.0937657 -0.0351969 
3105 2 -138.494 1665.8 -373.168 -0.685576 -0.169755 0.316572 -0.633206 
3106 2 -141.087 1658.9 -366.533 0.171055 -0.0608645 0.354743 -0.917166 
3331 2 -673.245 1913.4 -413.244 -0.0873777 -0.920183 0.135758 0.356649 
3332 2 -679.854 1914.26 -420.329 -0.402607 -0.251206 0.794992 0.377878 
3333 2 -688.167 1918.09 -424.271 -0.431133 0.460657 0.774846 -0.0391446 
3334 2 -695.296 1921.89 -429.923 -0.312324 0.791389 0.155556 -0.501956 
3335 2 -703.674 1925.44 -433.908 0.232541 0.56144 -0.614785 -0.502741 
3330 2 -666.468 1912.74 -405.86 0.182632 -0.794684 -0.485676 0.315026 
3329 2 -660.644 1910.18 -398.294 0.396419 -0.196198 -0.896708 -0.0165205 
3328 2 -654.532 1909.37 -390.608 0.171087 0.691442 -0.657917 -0.244502 
3327 2 -650.369 1910.89 -381.739 0.0238262 0.945897 0.236795 -0.220544 
3326 2 -642.164 1914.59 -377.636 -0.372901 0.207067 0.845504 -0.321234 
3325 2 -634.837 1918.39 -372.278 -0.468824 -0.471252 0.745851 0.0428009 
3324 2 -628.557 1921.68 -365.223 -0.25169 -0.907653 0.133447 0.308236 
3342 2 -740.471 1976.08 -455.74 -0.13563 0.516554 -0.578791 -0.616261 
3341 2 -735.582 1967.74 -453.85 -0.604617 0.752342 0.13535 -0.223832 
3343 1 -710.55 2003.01 -431.229 0.582303 0.431841 0.56689 -0.391244 
3340 2 -732.24 1958.68 -452.321 -0.560055 0.429757 0.639964 0.303467 
3339 2 -728.451 1949.8 -450.204 -0.134109 -0.0664573 0.775463 0.613397 
3338 2 -725.717 1941.58 -445.524 0.310847 -0.682457 0.532009 0.393184 
3337 2 -718.816 1935.08 -442.418 0.473345 -0.804457 -0.193128 0.302482 
3336 2 -711.587 1929.55 -438.278 0.566854 -0.295909 -0.754973 -0.145361 
3344 3 -694.131 1972.19 -432.485 0.57217 0.466648 0.568216 -0.363306 
3345 2 -671.075 2010.75 -406.525 -0.274409 0.138706 -0.706194 0.63777 
3364 2 -554.786 1934.47 -512.011 0.551764 0.632294 0.456481 0.295611 
3346 2 -665.889 2002.41 -407.303 -0.560908 -0.62784 -0.51398 0.164389 
3363 2 -560.928 1937.55 -504.748 0.340615 0.147413 0.91778 -0.141177 
3347 2 -662.091 1993.66 -409.72 -0.350642 -0.907912 0.0335367 -0.227202 
3382 2 -567.028 2025.02 -510.015 0.0459531 0.0773716 0.222329 0.97081 
3362 2 -567.432 1940.67 -497.877 0.126258 -0.670638 0.617566 -0.391044 
3383 2 -565.958 2029.63 -501.248 -0.745201 0.160172 -0.0863056 0.641539 
3357 2 -600.864 1951.93 -466.105 0.235971 0.819434 -0.155728 0.498593 
3358 2 -594.224 1946.02 -470.409 -0.21679 0.54434 -0.675732 0.447305 
3360 2 -578.953 1941.76 -481.934 -0.21577 -0.662502 -0.681741 -0.22308 
3359 2 -586.091 1942.85 -474.978 -0.378556 -0.00236198 -0.924632 0.0417732 
3361 2 -573.648 1942.14 -490.335 -0.0961333 -0.950265 0.0336373 -0.294318 
3356 2 -608.179 1958.26 -464.195 0.599871 0.623155 0.473025 0.167569 
3355 2 -614.162 1966.06 -463.057 0.413649 0.0304051 0.767858 -0.488225 
3354 2 -622.493 1969.69 -458.955 0.104766 -0.707203 0.446242 -0.53829 
3353 2 -629.968 1971.57 -452.82 -0.273935 -0.799171 -0.370105 -0.386404 
3349 2 -654.242 1981.93 -423.552 0.268235 0.389625 0.879143 -0.0578786 
3350 2 -649.96 1978.74 -431.722 0.198554 0.906083 0.150845 0.341812 
3351 2 -643.867 1976.51 -439.209 -0.203761 0.65963 -0.620961 0.371184 
3352 2 -636.574 1974.64 -445.862 -0.382328 -0.115851 -0.912349 0.0895729 
3348 2 -657.473 1987.44 -416.046 -0.00202101 -0.402813 0.857608 -0.319761 
3385 2 -556.906 2032.11 -483.949 -0.561124 -0.197548 -0.289755 -0.749772 
3384 2 -562.457 2031.03 -492.089 -0.946243 0.0412186 -0.273514 -0.167677 
3386 2 -550.398 2033.51 -476.607 0.380704 -0.362584 -0.00800744 -0.850608 
3387 2 -544.222 2035.52 -469.016 0.923146 -0.0683847 0.352123 -0.138325 
3388 2 -537.641 2036.72 -461.741 0.765979 0.197098 0.239463 0.563104 
3389 2 -531.936 2037.2 -453.628 0.0168553 0.304223 -0.120772 0.944764 
3390 2 -525.602 2034.39 -446.46 -0.748156 0.150807 -0.220193 0.607483 
3391 2 -520.741 2034.12 -437.912 -0.933689 0.046833 -0.284799 -0.211947 
3392 2 -515.451 2035.53 -429.536 -0.415406 -0.314173 -0.097731 -0.848046 
3393 2 -509.816 2034.58 -421.435 0.383977 -0.13113 0.132297 -0.904359 
3398 3 -506.257 2071.66 -428.607 -0.765237 0.292608 0.571493 -0.046796 
3394 2 -505.75 2032.97 -412.416 0.915961 0.0348364 0.312068 -0.249829 
3395 2 -499.833 2031.36 -404.614 0.576984 0.368634 0.369971 0.627949 
3396 2 -491.293 2031.42 -399.475 -0.244397 0.498617 -0.0840507 0.827398 
3397 1 -473.416 2060.11 -432.346 -0.727773 0.250156 0.634952 -0.067853 
3405 2 -522.903 2114.85 -435.284 -0.305751 -0.207931 0.207679 0.905621 
3406 2 -527.23 2117.86 -426.961 -0.87516 -0.17546 0.112187 0.436719 
3407 2 -530.867 2115.68 -417.97 -0.87406 -0.0925503 0.210795 -0.427806 
3408 2 -534.085 2112.25 -409.372 -0.186107 -0.0632489 0.224495 -0.954445 
3409 2 -533.17 2107.74 -400.617 0.669133 0.0131959 0.175955 -0.721891 
3404 2 -517.939 2112.66 -443.613 0.531418 -0.296795 -0.0491567 0.791891 
3410 2 -531.301 2105.23 -391.244 0.979128 0.153912 0.0808295 -0.105287 
3411 2 -530.039 2102.28 -381.923 0.693176 0.130903 0.171957 0.687607 
3438 2 -532.824 2223.65 -365.954 -0.216139 0.425194 0.869174 0.130502 
3412 2 -526.361 2102.93 -372.644 -0.185108 0.270075 0.111539 0.938272 
3439 2 -536.48 2227.32 -374.288 -0.291602 0.941751 0.0623559 -0.155516 
3413 2 -521.205 2106.63 -365.027 -0.734304 0.372084 -0.170202 0.541648 
3403 2 -510.146 2110.69 -449.387 0.886641 -0.163991 -0.431226 0.0319278 
3402 2 -500.946 2109.06 -453.016 0.593322 0.325264 -0.402961 -0.616275 
3401 2 -491.542 2107.57 -455.811 -0.102082 0.597426 -0.0361183 -0.79458 
3399 2 -474.604 2098.26 -460.106 -0.646672 -0.0129257 0.637696 0.418321 
3400 2 -482.645 2103.79 -457.912 -0.775779 0.399742 0.399026 -0.281341 
3506 3 -426.673 2172.06 -393.528 -0.158932 0.277437 0.742854 0.588164 
3504 2 -458.898 2142.25 -421.308 0.764364 0.474387 -0.367997 0.235121 
3503 2 -455.173 2151.29 -422.995 0.618668 0.606944 0.1487 -0.47619 
3502 2 -451.924 2159.87 -426.793 0.0538992 0.297096 0.508886 -0.806142 
3501 2 -447.532 2167.28 -431.65 -0.68272 -0.19003 0.469562 -0.526587 
3505 1 -431.148 2138.87 -383.228 -0.0333697 0.161218 0.783866 0.598706 
3500 2 -444.222 2176.18 -434.423 -0.794531 -0.574087 0.1246 0.153687 
3499 2 -442.767 2185.64 -436.589 -0.433898 -0.390467 -0.471669 0.660906 
3498 2 -444.596 2195.11 -438.587 0.222387 0.236864 -0.562874 0.760008 
3497 2 -448.358 2203.64 -441.97 0.727635 0.588606 0.0164192 0.351881 
3496 2 -451.913 2212.93 -440.7 0.605677 0.48565 0.565701 -0.277996 
3495 2 -451.316 2222.07 -437.072 -0.047663 -0.0743708 0.792054 -0.604026 
3512 2 -412.248 2200.82 -363.329 0.175743 -0.431004 0.581149 0.667545 
3513 2 -416.135 2209.92 -364.236 -0.54101 0.0704155 0.548236 0.633867 
3440 2 -540.538 2231.92 -382.201 0.0232075 0.614083 -0.69101 -0.380616 
3445 2 -577.902 2250.67 -405.561 -0.539573 0.506073 0.659105 -0.135393 
3448 2 -603.644 2262.22 -412.839 0.823569 -0.245692 -0.509019 0.0476428 
3449 2 -612.357 2265.8 -409.776 0.350226 -0.670803 -0.23447 0.610236 
3450 2 -622.045 2267.8 -409.865 -0.275629 -0.582066 0.39622 0.654399 
3447 2 -595.531 2256.46 -412.378 0.309398 0.435391 -0.636295 -0.55663 
3446 2 -586.471 2253.83 -409.333 -0.17989 0.829869 0.0876611 -0.520838 
3444 2 -569.579 2246.09 -402.95 -0.471891 -0.135537 0.784936 0.37792 
3452 3 -583.813 2288.11 -381.347 -0.665732 -0.22633 -0.710729 0.0209689 
3451 1 -615.904 2301.17 -377.094 -0.664543 -0.240517 -0.707455 0.00651707 
3443 2 -560.715 2243.53 -399.19 0.0062057 -0.78441 0.272091 0.557342 
3442 2 -551.692 2241.07 -395.665 0.347785 -0.745853 -0.42266 0.379615 
3441 2 -545.454 2236.92 -389.119 0.412381 -0.184497 -0.883643 -0.122794 
3562 2 -518.752 2359.98 -466.609 0.518102 -0.36423 0.4476 0.631317 
3460 2 -527.321 2337.21 -372.59 0.453637 -0.312115 0.646965 -0.527479 
3461 2 -518.383 2333.05 -372.43 0.721028 0.431342 0.504108 -0.199847 
3459 2 -537.087 2335.76 -371.024 0.204645 -0.754725 0.118991 -0.611843 
3561 2 -519.492 2351.7 -471.909 0.899819 -0.429759 0.00985771 -0.0743969 
3458 2 -546.534 2334.93 -368.172 -0.331302 -0.610149 -0.55016 -0.463983 
3563 2 -518.127 2369.36 -463.781 -0.114266 0.311944 0.592033 0.734255 
3564 2 -514.437 2378.66 -462.994 -0.664201 0.656519 0.238835 0.26604 
3457 2 -553.697 2332.39 -361.861 -0.373456 0.0813374 -0.91549 -0.125674 
3462 2 -512.856 2324.91 -371.302 0.610174 0.625522 -0.27838 0.398641 
3463 2 -510.976 2315.27 -369.556 0.158887 0.249347 -0.6588 0.691783 
3464 2 -509.719 2305.51 -369.351 -0.46801 -0.389234 -0.672947 0.420246 
3466 2 -503.432 2287.08 -372.958 -0.361587 -0.620606 0.52275 -0.459167 
3494 2 -449.59 2231.74 -437.656 -0.593668 -0.518078 0.452455 -0.417657 
3493 2 -450.216 2241.53 -438.46 -0.659223 -0.483889 -0.368834 0.441858 
3559 1 -476.302 2355.47 -490.628 -0.753177 0.124031 -0.124722 -0.633865 
3492 2 -449.84 2251.49 -438.788 -0.00142418 0.023727 -0.68544 0.727741 
3491 2 -448.491 2261.24 -439.041 0.584274 0.516567 -0.453142 0.431791 
3490 2 -447.331 2270.81 -436.806 0.600774 0.788901 0.104375 -0.0762368 
3489 2 -451.061 2279.91 -435.62 0.514521 0.311998 0.6546 -0.457629 
3488 2 -455.213 2288.6 -433.445 -0.0391957 -0.348138 0.721297 -0.59749 
3487 2 -460.421 2296.73 -431.147 -0.530376 -0.756096 0.0145218 -0.383157 
3486 2 -468.839 2301.69 -430.255 -0.679183 -0.35216 -0.641156 0.0601059 
3479 3 -463.18 2300.47 -414.548 -0.792265 -0.284409 0.534615 -0.074927 
3478 1 -433.044 2316.73 -421.499 -0.727655 -0.285732 0.60225 -0.161773 
3485 2 -476.26 2308.3 -429.163 -0.300063 0.286728 -0.688349 0.594916 
3484 2 -480.913 2316.81 -429.004 0.467904 0.627409 -0.238841 0.574785 
3483 2 -480.903 2326.62 -427.028 0.612778 0.762009 0.175868 -0.113645 
3482 2 -478.591 2336.1 -426.258 0.228052 0.490986 0.584254 -0.604626 
3481 2 -472.349 2343.81 -426.778 -0.502137 -0.0370198 0.667135 -0.549016 
3480 2 -465.218 2350.6 -428.174 -0.702305 -0.585289 0.304636 0.267208 
3472 2 -462.789 2258.15 -393.856 -0.190582 -0.651446 -0.451374 -0.579274 
3473 2 -453.633 2260.34 -397.19 0.299016 -0.753729 0.187829 -0.554257 
3474 2 -444.168 2262.08 -399.751 0.535186 -0.378737 0.751756 -0.0706884 
3475 2 -435.156 2263.53 -403.52 0.220498 0.425811 0.727216 0.491144 
3470 2 -481.173 2259.91 -387.048 -0.380525 0.459405 -0.680187 0.42602 
3471 2 -472.168 2257.71 -390.429 -0.560737 -0.177788 -0.803208 -0.0939298 
3469 2 -489.649 2263.4 -383.212 0.235704 0.816969 0.0177742 0.526013 
3468 2 -495.659 2270.47 -379.72 0.513926 0.520917 0.669366 -0.128351 
3476 2 -427.303 2268.33 -407.406 -0.0615065 0.780607 0.295462 0.547332 
3477 2 -419.372 2272.94 -410.929 -0.435758 0.747924 -0.396325 0.306027 