ITEM: TIMESTEP
100000000
ITEM: NUMBER OF ATOMS
4067
ITEM: BOX BOUNDS pp pp pp
-4.6310929470000001e+03 4.6704658980000004e+03
-4.6310929470000001e+03 4.6704658980000004e+03
-4.6310929470000001e+03 4.6704658980000004e+03
ITEM: ATOMS id type x y z c_q[1] c_q[2] c_q[3] c_q[4] 
3858 2 -716.787 2602.46 -717.527 -0.83901 0.107222 -0.464293 -0.262673 
3856 1 -730.794 2563.56 -694.802 -0.890697 0.277147 -0.0295976 0.359128 
3859 2 -709.784 2607.22 -712.341 -0.273378 -0.460665 -0.28182 -0.796009 
3860 2 -701.327 2608.74 -707.326 0.487715 -0.208964 0.218563 -0.818962 
3861 2 -695.173 2607.32 -699.574 0.903765 -0.111776 0.379368 -0.16369 
3862 2 -687.935 2607.17 -692.865 0.686559 0.24401 0.203316 0.654033 
3857 3 -719.047 2584.1 -668.843 -0.875024 0.294736 -0.032432 0.382639 
3863 2 -681.746 2605.92 -685.245 -0.0289885 0.448796 -0.0317587 0.892599 
3864 2 -673.696 2605.51 -679.523 -0.75873 0.195906 -0.231452 0.576524 
3865 2 -667.923 2605.24 -671.536 -0.893134 -0.199078 -0.388625 -0.107935 
3917 2 -691.063 2818.54 -697.68 -0.0350836 -0.194383 -0.612977 -0.765012 
3916 2 -698.347 2811.93 -698.853 -0.725791 0.33822 -0.556537 -0.221587 
3915 2 -705.851 2806.75 -702.62 -0.649713 0.508335 -0.124311 0.551376 
3914 2 -711.511 2799.13 -705.402 -0.0115626 0.295013 0.508049 0.809148 
3913 2 -719.681 2793.77 -706.182 0.622158 0.00682019 0.66217 0.417617 
3912 2 -725.768 2786.88 -710.016 0.772376 -0.502622 0.264068 -0.284736 
3918 2 -686.71 2827.32 -695.844 0.5597 -0.502201 -0.304982 -0.584394 
3919 2 -684.458 2836.68 -693.35 0.780229 -0.624716 -0.011292 0.0290596 
3970 2 -855.45 2916.5 -790.277 -0.272409 -0.509184 -0.290695 -0.762904 
3971 2 -846.556 2919.3 -786.579 0.377541 -0.629225 0.141486 -0.66447 
3972 2 -837.22 2922.1 -784.751 0.748628 -0.395158 0.51166 -0.147007 
3969 2 -865.134 2914.93 -791.96 -0.745441 -0.125358 -0.58891 -0.285987 
3968 2 -873.552 2919.4 -794.724 -0.585293 0.13678 -0.597492 0.53078 
3967 2 -881.447 2923.41 -799.219 0.0608619 0.491105 -0.232734 0.837225 
3966 2 -889.286 2927.48 -803.645 0.609061 0.502877 0.207642 0.5771 
3973 2 -828.449 2926.21 -783.286 0.490605 0.379609 0.666508 0.413486 
3965 3 -870.834 2946.75 -759.154 0.329374 -0.530551 0.326392 -0.709575 
3964 1 -904.935 2950.81 -765.768 0.205862 -0.575769 0.312698 -0.726863 
3957 2 -844.049 2957.19 -721.629 -0.246782 0.631621 0.157239 -0.717934 
3958 2 -853.717 2958.69 -721.599 0.431919 0.427933 -0.47484 -0.636276 
3959 2 -862.883 2960.36 -718.291 0.611009 -0.0994808 -0.768056 -0.163894 
3960 2 -871.821 2964.07 -720.548 0.44169 -0.649573 -0.3454 0.513482 
3961 2 -881.365 2966.36 -721.371 -0.0860775 -0.781788 0.258016 0.561094 
3962 2 -890.754 2968.26 -723.954 -0.574162 -0.150078 0.712235 0.374882 
3963 2 -899.503 2972.9 -724.517 -0.662884 0.47203 0.562135 -0.147569 
3956 2 -835.317 2955.1 -717.63 -0.5341 0.384251 0.740236 -0.138345 
3955 2 -826.095 2952.74 -714.864 -0.471691 -0.273854 0.754409 0.365212 
3974 2 -818.851 2927.53 -785.433 0.0121131 0.741485 0.209902 0.637177 
3975 2 -809.692 2930.77 -787.146 -0.381852 0.568948 -0.472234 0.554511 
3920 2 -684.864 2846.27 -691.272 0.608892 -0.268908 0.415312 0.620045 
3954 2 -816.474 2951.82 -712.552 -0.154761 -0.780109 0.203613 0.570982 
3921 2 -683.423 2855.37 -687.68 -0.0970703 0.248741 0.612559 0.74396 
3922 2 -680.338 2864.71 -685.649 -0.599127 0.684722 0.164132 0.381133 
3976 2 -799.753 2930.51 -787.323 -0.848211 0.0532368 -0.525742 0.0360362 
3977 2 -790.824 2930.86 -783.082 -0.468072 -0.377631 -0.485711 -0.634341 
3978 2 -781.285 2933.55 -781.802 0.123481 -0.667636 -0.161065 -0.716291 
3979 2 -772.488 2938.12 -781.243 0.710215 -0.505618 0.368698 -0.322502 
3923 2 -677.311 2874.08 -685.517 -0.633928 0.599599 -0.371417 -0.317278 
3980 2 -764.31 2943.25 -779.101 0.860719 0.0159489 0.419014 0.288679 
3984 2 -737.512 2946.14 -750.968 -0.801662 -0.207805 -0.246942 -0.503164 
3983 2 -742.41 2946.4 -759.524 -0.92459 0.0373322 -0.24556 0.28886 
3982 2 -748.496 2944.95 -767.126 -0.416913 0.308094 -0.127568 0.84557 
3985 2 -731.214 2945.61 -743.356 -0.152061 -0.293597 -0.0346862 -0.94312 
3986 2 -726.164 2946.42 -734.724 0.723721 -0.160102 0.267305 -0.615747 
3987 2 -720.497 2944.61 -726.707 0.909894 0.240925 0.297716 0.159416 
3988 2 -714.015 2941.37 -719.944 0.47321 0.353112 0.173289 0.788261 
3981 2 -756.857 2944.46 -772.616 0.328888 0.462869 0.236072 0.788577 
3989 2 -707.448 2940.74 -712.701 -0.468773 0.424726 -0.146515 0.760521 
3924 2 -676.352 2883.93 -686.481 -0.0656899 0.153908 -0.748529 -0.641639 
3925 2 -677.231 2893.63 -687.892 0.707303 -0.419333 -0.365869 -0.435914 
3926 2 -679.02 2902.91 -684.947 0.835517 -0.452018 0.18952 0.24834 
3927 2 -678.141 2911.42 -680.045 0.359391 0.0512969 0.461275 0.809588 
3928 2 -674.62 2918.95 -674.612 -0.344843 0.346105 0.271037 0.829357 
3990 2 -699.491 2942.19 -706.989 -0.876182 0.160155 -0.436027 0.12859 
3952 2 -800.243 2945.87 -704.179 0.393022 -0.205642 -0.89529 0.0412408 
3951 2 -791.744 2947.24 -699.265 0.465493 0.49007 -0.706762 -0.20889 
3950 2 -785.163 2951.43 -693.263 0.218264 0.895258 0.0395182 -0.38641 
3953 2 -808.149 2947.14 -710.024 0.415856 -0.770557 -0.26334 0.404917 
3992 3 -722.179 2985.39 -724.702 0.53044 0.0399816 -0.846748 -0.00727978 
3991 1 -690.856 2988.53 -709.24 0.574854 0.0614308 -0.815933 -0.00479687 
3949 2 -777.566 2954.27 -687.588 -0.225199 0.631964 0.610515 -0.420926 
3948 2 -768.686 2957.35 -684.46 -0.564956 -0.0298404 0.798746 -0.204792 
3947 2 -762.819 2958.87 -676.587 -0.280503 -0.692285 0.644739 0.162396 
3929 2 -670.823 2925.06 -667.73 -0.88317 0.444925 -0.0708914 0.130489 
3946 2 -758.985 2959.73 -667.539 -0.0264358 -0.981604 -0.147519 0.118294 
4009 2 -786.757 3125.92 -705.669 -0.544916 0.522388 -0.541633 -0.36988 
4008 2 -788.709 3116.62 -702.773 -0.5288 0.799787 0.176266 0.222805 
4007 2 -787.441 3107.13 -700.492 -0.267332 0.205529 0.752858 0.56524 
4006 2 -784.551 3097.67 -700.799 0.302438 -0.477809 0.485174 0.66696 
4005 2 -780.615 3088.61 -701.107 0.703524 -0.679589 -0.0657278 0.197212 
4004 2 -776.865 3079.5 -701.243 0.481777 -0.329555 -0.633513 -0.507884 
4003 2 -771.241 3071.5 -699.33 0.039316 0.37883 -0.658845 -0.648742 
3999 2 -750.742 3041.02 -713.068 0.429636 -0.416958 0.223972 0.769022 
4000 2 -755.672 3048.58 -708.846 -0.341029 -0.021952 0.50688 0.791385 
4001 2 -759.576 3056.76 -704.66 -0.828713 0.319931 0.403272 0.21966 
4002 2 -765.073 3064 -700.678 -0.57948 0.649677 0.00237473 -0.492055 
3996 2 -727.223 3026.97 -723.422 -0.0586276 0.51826 -0.255777 -0.81397 
3995 2 -717.807 3026.94 -726.433 -0.551363 0.406366 0.439603 -0.581046 
3998 2 -743.748 3034.65 -715.81 0.777298 -0.492747 -0.361316 0.149865 
3997 2 -735.435 3031.48 -720.255 0.716352 0.106522 -0.527938 -0.443592 
3994 2 -707.872 3027.16 -725.726 -0.704439 -0.0273758 0.709003 -0.0182032 
3993 2 -699.301 3032.04 -725.436 -0.462421 -0.697005 0.177321 0.518563 
4010 2 -784.817 3135.62 -706.407 0.0534222 -0.122431 -0.756976 -0.639643 
4011 2 -784.124 3145.18 -708.566 0.508604 -0.644358 -0.523533 -0.228121 
4017 2 -809.075 3195.47 -714.672 0.33702 -0.0709537 -0.819731 -0.457629 
4035 2 -674.061 3153.28 -673.304 -0.618801 -0.0418543 -0.76888 0.155425 
4012 2 -786.679 3153.81 -712.716 0.370766 -0.77589 0.134514 0.492374 
4034 2 -682.321 3157.8 -669.92 -0.242315 0.503826 -0.627832 0.541544 
4016 2 -804.247 3187.45 -711.33 -0.0833884 0.511387 -0.643916 -0.56294 
4033 2 -690.997 3161.22 -673.22 0.204497 0.588474 -0.040826 0.781161 
4015 2 -802.333 3177.78 -711.574 -0.659034 0.706446 -0.134006 -0.22057 
4032 2 -699.195 3166.18 -675.596 0.724832 0.478935 0.406185 0.28329 
4031 2 -704.955 3174.28 -675.884 0.526382 0.129529 0.709548 -0.450206 
4014 2 -798.252 3169.2 -714.32 -0.719691 0.405061 0.487594 0.283238 
4013 2 -793.47 3160.58 -715.347 -0.145919 -0.214513 0.633272 0.729149 
4018 1 -796.013 3226.22 -681.386 -0.809692 -0.384122 -0.364688 0.25269 
4030 2 -711.998 3181.19 -675.869 -0.00477409 -0.483222 0.519532 -0.704671 
4029 2 -719.815 3185.87 -672.037 -0.306601 -0.835897 -0.0678815 -0.450182 
4019 3 -785.438 3195.42 -668.405 -0.758848 -0.407806 -0.443014 0.248157 
4028 2 -727.841 3190.13 -668.161 -0.556569 -0.388712 -0.734242 -0.00472241 
4051 2 -704.112 3205.09 -702.825 -0.991053 0.130886 -0.020812 -0.0158331 
4050 2 -705.385 3204.21 -712.558 -0.689613 0.0124344 -0.025054 0.723638 
4049 2 -703.933 3202.82 -722.199 0.153642 -0.0778377 0.107471 0.979176 
4052 2 -704.269 3206.57 -693.001 -0.608019 0.0447042 -0.140534 -0.780106 
4048 2 -706.022 3203.71 -731.785 0.794716 0.101112 0.0375899 0.597319 
4053 2 -704.413 3209.37 -683.519 0.260863 -0.0160762 -0.204093 -0.943418 
4047 2 -704.141 3204.96 -741.417 0.991713 0.0431975 -0.031917 -0.116705 
4054 2 -704.835 3212.88 -674.299 0.940312 -0.0831832 -0.184777 -0.273406 
4046 3 -666.997 3185.73 -710.75 0.866559 0.0745964 -0.187911 0.45629 
4036 2 -664.814 3150.27 -675.411 -0.315762 -0.693494 -0.534457 -0.365674 
4037 2 -656.439 3150.61 -680.627 0.261234 -0.836849 0.180337 -0.446004 
4038 2 -647.911 3153.02 -685.296 0.499497 -0.269454 0.818201 -0.0918939 
4039 2 -639.808 3153.72 -690.77 0.146404 0.445941 0.779613 0.414616 
4040 2 -633.646 3158.35 -696.969 -0.255625 0.833056 0.263361 0.413902 
4041 2 -628.289 3164.63 -702.481 -0.396025 0.719531 -0.565602 -0.0743864 
4042 2 -624.958 3171.44 -708.877 -0.276568 0.10821 -0.932372 -0.206114 
4043 2 -620.462 3176.36 -716.125 0.0231518 -0.623461 -0.715773 -0.313734 
4045 1 -657.922 3195.66 -742.98 0.860014 0.042352 -0.209381 0.463401 
4044 2 -617.144 3180.79 -724.302 0.272276 -0.944778 0.029935 -0.179899 
3154 1 -525.322 1674.62 -532.473 -0.830416 0.144078 -0.312368 -0.438267 
3153 2 -480.354 1660.64 -535.56 0.0303843 0.7157 0.650592 -0.252151 
3152 2 -477.302 1664.9 -527.108 -0.180982 -0.0977246 0.960462 -0.187637 
3151 2 -475.975 1665.69 -517.416 -0.0778818 -0.737141 0.671093 -0.0138702 
3424 1 -454.209 2067.02 -630.196 -0.934783 -0.0362111 -0.252206 -0.247513 
3423 2 -417.244 2037.78 -630.892 0.0452527 -0.573853 -0.815014 0.0663016 
3422 2 -415.941 2038.39 -621.062 0.0505381 0.26016 -0.964235 -0.0036113 
3421 2 -412.801 2038 -611.689 0.0452711 0.94298 -0.304419 -0.126764 
3420 2 -412.316 2038.2 -601.791 -0.0168983 0.776669 0.629522 -0.0142135 
3419 2 -411.789 2038.59 -591.98 0.0351198 0.220871 0.974161 -0.0315178 
3418 2 -410.175 2040.1 -582.334 -0.114332 -0.618315 0.776197 -0.0461932 
3417 2 -410.269 2042.83 -572.826 -0.158431 -0.985796 0.0505434 -0.0234801 
3425 3 -438.09 2073.85 -599.885 -0.932142 -0.0164119 -0.268702 -0.24216 
3416 2 -409.671 2045.05 -563.102 -0.0608173 -0.561382 -0.821509 0.0792121 
3415 2 -408.74 2047.18 -553.482 0.0456543 0.320507 -0.942027 0.0881858 
3414 2 -406.187 2049.76 -544.26 0.204746 0.923234 -0.316603 -0.0740273 
3413 2 -400.323 2050.62 -536.387 -0.13513 0.783146 0.535882 -0.285049 
3412 2 -395.804 2052.16 -527.76 -0.191081 0.0964362 0.972126 -0.095698 
3411 2 -395.317 2052.67 -517.847 -0.0255299 -0.798281 0.6016 0.0131278 
3426 2 -483.367 2097.61 -609.157 0.500605 0.130282 0.287831 0.805962 
3427 2 -478.251 2100.74 -601.348 -0.283154 0.429766 0.0740891 0.854187 
3428 2 -471.572 2104.41 -595.005 -0.79986 0.298888 -0.324665 0.406795 
3429 2 -463.758 2106.03 -589.108 -0.841646 -0.00695678 -0.319431 -0.435371 
3430 2 -457.236 2108.75 -582.01 -0.229948 -0.176373 -0.192449 -0.937539 
3431 2 -452.621 2111.03 -573.511 0.568853 -0.279479 0.0910951 -0.768114 
3432 2 -447.241 2113.79 -565.602 0.891858 -0.232705 0.387714 0.0107863 
3433 2 -440.577 2117.92 -559.579 0.502948 0.0194034 0.504298 0.701676 
3435 2 -429.775 2128.99 -547.501 -0.797294 0.489791 0.150434 0.319055 
3434 2 -434.791 2123.95 -554.407 -0.155519 0.259038 0.181429 0.93584 
3444 2 -391.232 2200.39 -554.969 -0.507227 -0.321142 -0.773253 -0.20413 
3445 2 -381.766 2200.56 -558.138 -0.0200725 -0.733789 -0.497804 -0.46189 
3446 2 -374.58 2204.73 -563.545 0.502783 -0.78661 0.169275 -0.315912 
3443 2 -399.203 2196.04 -551.064 -0.492558 0.519254 -0.697701 0.0312455 
3436 2 -429.267 2137.78 -542.884 -0.72338 0.39963 -0.383316 -0.412415 
3437 2 -426.956 2146.64 -539.3 -0.0831405 -0.225692 -0.723851 -0.646677 
3438 2 -422.338 2155.31 -540.485 0.464746 -0.702871 -0.300366 -0.44695 
3442 2 -406.131 2189.57 -548.645 -0.414727 0.759083 0.0597453 0.498222 
3441 2 -412.546 2182.8 -545.239 -0.0363098 0.505502 0.623072 0.59576 
3440 2 -415.068 2173.58 -542.623 0.355182 -0.229216 0.748418 0.511055 
3439 2 -418.895 2164.44 -541.87 0.708806 -0.639631 0.29625 0.0264957 
3447 2 -368.164 2211.62 -566.295 0.592368 -0.350426 0.689408 0.225872 
3448 2 -361.462 2218.61 -568.48 0.276815 0.402685 0.616419 0.617451 
3449 2 -352.861 2223.57 -569.522 -0.367931 0.682882 0.0774213 0.626343 
3450 2 -345.007 2229.58 -569.194 -0.710079 0.45341 -0.537009 0.0427652 
3452 3 -390.912 2245.92 -552.003 0.78615 0.403661 -0.453934 0.113888 
3453 2 -402.352 2295.51 -540.924 -0.478659 -0.279943 -0.487224 0.674633 
3454 2 -402.088 2286.44 -537.061 -0.781529 -0.483387 -0.393929 0.0192152 
3455 2 -397.532 2277.92 -535.127 -0.551453 -0.552562 0.229663 -0.581231 
3451 1 -366.1 2270.12 -557.317 0.75318 0.461756 -0.46279 0.0729868 
3456 2 -393.484 2269.01 -533.313 0.0535765 -0.250273 0.491637 -0.832338 
3457 2 -389.193 2260.97 -529.394 0.758575 0.219399 0.345359 -0.507105 
3458 2 -385.589 2254.53 -522.83 0.893949 0.189091 -0.0383052 0.404515 
3831 2 -849.933 2612.36 -521.378 0.197607 -0.478185 -0.112786 -0.848274 
3832 2 -842.619 2615.67 -515.379 0.552871 -0.509298 0.561772 -0.345486 
3834 2 -823.422 2620.2 -515.559 0.390505 0.589542 0.332061 0.624245 
3829 1 -871.185 2654.1 -515.467 0.0182716 -0.567456 0.0044955 -0.823189 
3833 2 -833.087 2618.38 -516.089 0.690725 0.1266 0.684465 0.195906 
3835 2 -813.676 2619.43 -514.268 -0.0842153 0.685977 -0.332472 0.641721 
3855 2 -741.699 2539.3 -655.784 0.35527 0.889269 0.00827053 -0.287951 
3836 2 -804.433 2616.58 -516.262 -0.474307 0.128521 -0.79344 0.35912 
3854 2 -737.517 2545.88 -649.885 0.0673297 0.588864 0.666382 -0.452373 
3837 2 -796.074 2612.07 -519.361 -0.58742 -0.522788 -0.614664 -0.0617898 
3838 2 -788.914 2605.6 -521.854 -0.138811 -0.881997 0.0606944 -0.446239 
3853 2 -735.44 2548.8 -640.69 -0.182124 -0.172284 0.957507 -0.142585 
3852 2 -737.11 2548.58 -630.818 0.0917766 -0.847288 0.522566 -0.0245904 
3851 2 -738.986 2549.81 -621.155 -0.0789911 -0.895272 -0.438268 -0.0130092 
3850 2 -739.212 2551.84 -611.385 -0.0649286 -0.239938 -0.961388 0.118099 
3849 2 -739.45 2557.09 -603 0.0868936 0.539637 -0.803979 0.234222 
3839 2 -781.661 2602.2 -527.632 0.0212788 -0.513714 0.761498 -0.394672 
3840 2 -777.014 2596.84 -534.636 0.224263 0.302408 0.922441 -0.0857797 
3841 2 -772.741 2594.17 -543.096 0.322729 0.869731 0.371025 0.0418704 
3842 2 -769.705 2589.51 -551.243 0.0484065 0.79579 -0.498159 0.3409 
3848 2 -741.512 2562.8 -595.128 0.314453 0.9419 -0.0308416 0.113986 
3847 2 -745.401 2567.86 -587.403 0.31868 0.54438 0.766943 -0.117861 
3843 2 -765.138 2584.36 -558.492 -0.321001 0.16887 -0.904548 0.224129 
3846 2 -748.917 2570.34 -578.468 0.0883667 -0.485822 0.843799 -0.210173 
3845 2 -755.044 2574.43 -571.808 -0.232558 -0.904882 0.0488956 -0.353149 
3844 2 -759.047 2581.08 -565.63 -0.462625 -0.680531 -0.553635 0.127843 
3866 2 -660.471 2603.08 -665.349 -0.534371 -0.441189 -0.221037 -0.686252 
3867 2 -651.84 2601.97 -660.768 0.0277426 -0.512766 -0.00572944 -0.858061 
3868 2 -642.946 2601.37 -656.606 0.7057 -0.243159 0.344958 -0.569091 
3869 2 -634.546 2600.58 -651.385 0.809702 0.243437 0.505148 0.173049 
3870 2 -625.598 2599.17 -647.394 0.329619 0.361868 0.240507 0.838188 
3871 2 -617.958 2599.55 -641.222 -0.444573 0.395269 0.126624 0.793778 
3872 2 -612.59 2603.69 -634.037 -0.863268 0.342212 -0.272479 0.251823 
3873 2 -606.18 2608.09 -627.731 -0.643782 0.0798424 -0.353474 -0.673963 
3874 2 -602.028 2613.95 -620.947 0.075175 -0.238645 -0.164535 -0.95411 
3875 2 -597.771 2618.11 -613.049 0.757448 -0.455826 -0.148525 -0.44321 
3876 2 -596.224 2625.8 -607.017 0.806539 -0.362465 0.286301 0.36898 
3877 2 -593.879 2633.08 -600.685 0.18784 0.0794335 0.285401 0.936457 
3878 2 -590.595 2637.4 -592.382 -0.533321 0.245053 -0.0440444 0.808442 
3879 2 -585.76 2638.72 -583.838 -0.972069 0.190085 -0.127434 0.0520583 
3880 2 -581.827 2642.74 -575.56 -0.718775 0.0524251 -0.339325 -0.604544 
3881 2 -577.396 2647.63 -568.321 -0.0896513 -0.283663 -0.238364 -0.924489 
3884 3 -576.753 2678.72 -605.157 -0.50072 0.244195 0.807271 -0.194836 
3883 1 -545.964 2679.46 -588.648 -0.521452 0.258205 0.799402 -0.149584 
3882 2 -572.153 2651.63 -560.949 0.757468 -0.340618 0.120562 -0.54377 
3911 3 -708.954 2800.07 -662.659 -0.597403 0.698033 -0.202069 0.339159 
3904 2 -686.668 2793.26 -634.092 -0.209807 0.566394 0.19966 -0.771566 
3807 2 -718.806 2741.13 -562.586 -0.88266 -0.421274 -0.165954 0.126093 
3903 2 -677.56 2789.08 -634.013 -0.715637 0.451017 0.509593 -0.157361 
3905 2 -696.406 2792.75 -632.287 0.363628 0.515322 -0.313163 -0.710033 
3806 2 -720.362 2748.68 -568.793 -0.449242 -0.0813327 -0.417608 0.785602 
3906 2 -705.748 2793.37 -629.057 0.786976 0.0745132 -0.603271 -0.105736 
3910 1 -736.754 2778.98 -664.788 -0.570567 0.697801 -0.161141 0.401946 
3909 2 -731.607 2785.25 -618.302 -0.811813 -0.329927 0.446283 0.181492 
3908 2 -723.364 2789.23 -621.65 -0.313297 -0.560065 -0.058196 0.764713 
3907 2 -715.042 2792.81 -625.768 0.500576 -0.278943 -0.453392 0.682678 
3802 1 -772.581 2767.95 -562.272 -0.411051 0.106966 -0.304264 0.852654 
3805 2 -724.452 2754.38 -575.853 0.327964 0.295298 -0.262136 0.858209 
3804 2 -732.015 2754.24 -582.203 0.770903 0.211714 0.365436 0.476804 
3808 2 -717.408 2733.51 -556.581 -0.71764 -0.260502 0.112789 -0.635933 
3809 2 -717.208 2728.28 -548.034 0.112924 0.201329 0.151009 -0.961203 
3803 3 -757.249 2749.35 -537.034 -0.425171 0.0822252 -0.305561 0.847999 
3810 2 -720.417 2724.72 -539.473 0.760389 0.338667 0.0730259 -0.549346 
3801 2 -803.168 2770.93 -526.452 0.145908 -0.871525 -0.359898 0.299382 
3800 2 -797.083 2769.43 -518.82 0.302068 -0.231693 -0.924575 0.0152977 
3811 2 -723.515 2719.47 -531.691 0.931063 0.110364 -0.324006 0.126337 
3902 2 -669.802 2782.96 -635.317 -0.539751 -0.0833778 0.668779 0.504432 
3812 2 -729.377 2716.51 -524.292 0.474204 -0.313259 -0.238823 0.787377 
3813 2 -736.928 2715.78 -517.938 -0.27126 -0.327367 0.104028 0.899126 
3901 2 -662.151 2776.6 -634.433 0.160941 -0.669249 0.302543 0.659297 
3900 2 -654.411 2771.73 -630.695 0.484115 -0.750212 -0.348737 0.284952 
3899 2 -647.277 2767.93 -625.113 0.430299 -0.0804809 -0.889139 -0.133407 
3898 2 -640.695 2763.84 -619.124 0.15761 0.56934 -0.657666 -0.467425 
3897 2 -633.894 2759.12 -613.613 -0.253508 0.869597 -0.0262154 -0.422904 
3896 2 -625.568 2756.24 -609.04 -0.504846 0.467983 0.697295 -0.199756 
3895 2 -616.766 2752.02 -607.649 -0.531101 -0.145056 0.736544 0.392931 
3894 2 -608.624 2746.97 -605.347 0.0258817 -0.679414 0.387779 0.622378 
3885 2 -538.17 2705.1 -627.46 0.61278 0.260773 -0.690341 -0.282712 
3886 2 -547.988 2706.54 -628.355 0.676696 -0.482002 -0.520567 0.196892 
3890 2 -576.892 2726.03 -613.63 -0.66308 0.493714 0.228633 -0.5141 
3889 2 -569.357 2722.71 -619.279 -0.831778 0.0700053 0.497796 0.235465 
3888 2 -564.128 2717.38 -625.816 -0.164564 -0.240751 0.403971 0.867044 
3891 2 -585.371 2729.66 -610.134 -0.0295208 0.476677 -0.350833 -0.805496 
3887 2 -556.67 2711.09 -628.318 0.370518 -0.610367 0.0627509 0.697303 
3892 2 -592.586 2735.7 -607.212 0.63518 -0.0442799 -0.644501 -0.423325 
3893 2 -600.043 2742 -606.014 0.646331 -0.617492 -0.244146 0.375968 
3930 2 -669.162 2932.29 -661.146 -0.689282 0.146119 -0.3248 -0.630907 
3941 2 -744.133 2945.13 -625.475 -0.11887 0.195079 0.919892 0.318767 
3940 2 -743.847 2939.13 -617.499 0.179739 -0.57476 0.741966 0.294672 
3938 3 -701.931 2955.67 -631.781 -0.191768 0.782373 -0.549439 -0.221887 
3937 1 -697.238 2938.5 -601.71 -0.200189 0.84548 -0.473833 -0.143424 
3939 2 -743.07 2932.13 -610.48 0.367675 -0.925808 0.0211195 0.0851353 
3942 2 -745.061 2950.83 -633.455 -0.254824 0.787444 0.559326 0.0463805 
3943 2 -747.082 2955.81 -641.735 -0.143765 0.918028 -0.256538 -0.265977 
3944 2 -751.377 2960.24 -649.423 0.168528 0.290305 -0.928606 -0.158153 
3945 2 -755.226 2961.29 -658.536 0.156868 -0.534615 -0.816476 0.151481 
3931 2 -666.344 2938 -653.615 0.0693869 -0.0740041 -0.220763 -0.970037 
3932 2 -664.214 2941.95 -645.033 0.662075 -0.255478 0.0954361 -0.698054 
3933 2 -659.58 2943.5 -636.377 0.965124 -0.125235 0.156066 0.168806 
3934 2 -656.407 2946.71 -627.513 0.403006 -0.116529 0.246261 0.873706 
3935 2 -654.934 2951.82 -619.08 -0.487275 0.15021 0.234031 0.827786 
3936 2 -654.599 2956.71 -610.471 -0.964213 0.254175 -0.0579976 -0.0482248 
4027 2 -735.242 3195.03 -664.019 -0.25827 0.433553 -0.717022 0.48084 
4026 2 -741.666 3197.73 -657.002 0.0462527 0.928165 -0.0959896 0.356589 
4055 2 -707.574 3215.28 -665.194 0.817541 -0.0475784 -0.0458503 0.572067 
4025 2 -749.289 3201.18 -651.665 0.42532 0.649801 0.60014 0.191554 
4024 2 -756.192 3206.7 -647.275 0.383603 0.0553941 0.858476 -0.335856 
4023 2 -759.487 3216.04 -646.848 -0.195694 -0.392009 0.610709 -0.659596 
4022 2 -761.994 3225.53 -645.182 -0.618795 -0.772982 -0.0424384 -0.133379 
4021 2 -768.643 3231.98 -641.903 -0.491427 -0.249675 -0.800273 0.23606 
4020 2 -776.39 3237.95 -640.162 -0.174852 0.414573 -0.595748 0.665312 
4065 2 -757.185 3219.76 -588.146 -0.902745 -0.0773142 0.33921 0.253004 
4062 2 -736.287 3217.8 -607.851 0.845813 -0.317152 -0.336621 0.265898 
4063 2 -743.341 3221.47 -602.106 0.265687 -0.330913 -0.161645 0.890942 
4061 2 -727.654 3217.7 -612.736 0.777464 0.215764 -0.452466 -0.379829 
4056 2 -708.672 3215.52 -655.382 0.0455023 -0.0372137 0.0708259 0.995755 
4064 2 -750.212 3220.79 -595.092 -0.402488 -0.298507 0.0509612 0.863886 
4060 2 -719.549 3217.57 -618.339 0.149265 0.485972 -0.121335 -0.852543 
4059 2 -714.25 3217.42 -626.649 -0.628827 0.203175 0.234709 -0.712887 
4058 2 -711.313 3218.31 -635.959 -0.978082 -0.0481601 0.150796 -0.135263 
4057 2 -709.854 3215.91 -645.521 -0.756879 0.0282969 0.122999 0.641252 
4066 2 -763.293 3220.06 -580.468 -0.768818 0.115319 0.235012 -0.583429 
4067 2 -768.765 3219.22 -572.269 0.010923 0.269689 0.0534245 -0.961402 
2209 1 -344.52 238.315 -371.174 0.539217 -0.0208176 0.707951 -0.455651 
2210 3 -315.14 219.314 -369.74 0.617816 -0.0168777 0.665632 -0.418273 
2236 1 -106.475 242.761 -398.758 0.856956 -0.446262 -0.234405 -0.107379 
2213 2 -293.146 263.448 -380.498 0.696581 0.426961 0.446048 0.365405 
2211 2 -311.301 268.997 -384.786 0.124307 -0.381436 0.41522 -0.816485 
2212 2 -302.976 264.421 -381.72 0.691213 -0.189615 0.657947 -0.231035 
2214 2 -284.144 260.059 -377.927 0.0206226 0.573233 -0.00854189 0.819089 
2215 2 -274.706 258.778 -375.215 -0.520888 0.431992 -0.371864 0.635434 
2216 2 -265.31 258.502 -371.832 -0.726309 -0.0411629 -0.668182 -0.155929 
2217 2 -255.673 259.731 -370.669 -0.370681 -0.587703 -0.404573 -0.594577 
2218 2 -245.932 260.195 -370.634 0.311184 -0.608973 0.233303 -0.691293 
2219 2 -236.213 260.984 -369.022 0.808899 -0.213213 0.504779 -0.213123 
2220 2 -227.461 262.32 -364.919 0.751714 0.113285 0.495422 0.420297 
2238 2 -108.864 279.119 -428.659 -0.900761 0.35835 -0.105769 0.221421 
2239 2 -106.184 285.374 -421.602 -0.823137 0.114322 -0.232015 -0.505514 
2240 2 -104.008 289.346 -412.708 -0.0873906 -0.0467159 -0.23331 -0.96734 
2241 2 -101.808 293.96 -404.188 0.6649 -0.165355 -0.283645 -0.670903 
2242 2 -103.527 300.368 -396.839 0.916063 -0.372929 -0.0982061 0.110033 
2243 2 -105.662 306.417 -389.332 0.51709 -0.417409 0.0396273 0.746202 
2244 2 -111.308 311.786 -383.393 -0.275944 -0.193887 0.379992 0.861318 
2237 3 -120.014 268.43 -379.323 0.894561 -0.383246 -0.205601 -0.103016 
2245 2 -115.813 318.073 -377.173 -0.826459 0.118623 0.465237 0.294021 
2246 2 -122.609 323.059 -371.867 -0.725116 0.488004 0.0450505 -0.483765 
2247 2 -127.65 329.7 -366.434 0.0464162 0.282276 -0.482852 -0.827659 
2248 2 -132.727 337.461 -362.87 0.616015 -0.239158 -0.53268 -0.528754 
2292 2 -73.4928 310.095 -399.203 0.957823 0.25405 0.0667802 0.116512 
2290 1 -73.7836 354.531 -383.453 0.120166 0.327381 -0.117476 0.929829 
2293 2 -71.8218 305.485 -390.68 0.45048 0.029211 -0.237764 0.860048 
2294 2 -73.1415 301.149 -382.006 -0.384387 0.00986161 -0.11546 0.91587 
2295 2 -72.0509 298.948 -372.424 -0.91767 -0.0857396 -0.259142 0.288748 
2296 2 -68.5258 295.279 -364.015 -0.760404 -0.269948 -0.0621655 -0.587409 
2803 1 -360.715 1305.39 -386.741 -0.322173 -0.00903499 -0.638782 0.698627 
2806 2 -317.376 1292.8 -403.357 0.849158 0.425048 0.283639 0.133468 
2807 2 -310.892 1287.07 -398.718 0.319892 0.514153 -0.210548 0.767454 
2808 2 -304.565 1281.07 -394.177 -0.350739 0.0124264 -0.405796 0.843894 
2809 2 -301.436 1274.15 -387.784 -0.936109 -0.243589 -0.161661 0.195524 
2810 2 -299.779 1269.04 -379.404 -0.847834 -0.20383 0.0331195 -0.488399 
2811 2 -298.131 1264.26 -370.911 0.0681351 0.0378326 0.227579 -0.970636 
2805 2 -319.529 1300.56 -409.32 0.630478 0.263405 0.393541 -0.615012 
2804 3 -350.673 1272.75 -378.575 -0.290384 -0.0170591 -0.673141 0.679902 
2812 2 -299.045 1258.94 -362.579 0.838024 0.317425 0.0804401 -0.436448 
2911 1 -464.087 1384.76 -364.382 -0.812838 -0.0468595 0.141925 0.562988 
2857 1 -294.395 1375.48 -399.065 0.684149 -0.037856 -0.324027 0.652314 
2859 2 -334.781 1355.13 -412.513 -0.977676 0.0573179 0.199076 -0.0351191 
2860 2 -339.459 1355.49 -403.727 -0.565353 0.24251 -0.00583494 -0.788372 
2861 2 -343.351 1357.86 -394.928 0.302628 0.193705 -0.110374 -0.926667 
2862 2 -346.39 1360.09 -385.796 0.95937 -0.047076 -0.0688481 -0.269544 
2863 2 -347.963 1362.09 -376.193 0.755094 -0.0851414 -0.12219 0.638477 
2858 3 -305.755 1360.24 -369.691 0.664979 -0.0240612 -0.258321 0.700353 
2856 2 -260.364 1385.23 -367.896 -0.317819 0.917177 0.0215334 0.239402 
2864 2 -351.165 1361.97 -366.825 -0.078854 -0.0574101 -0.0638111 0.993184 
2855 2 -264.477 1378.76 -361.801 -0.0311625 0.570631 0.697642 0.432093 
3102 2 -452.092 1567.16 -497.66 0.911353 -0.202091 0.331498 -0.13676 
3113 2 -429.729 1538.71 -408.973 -0.721164 -0.203422 -0.01019 -0.662146 
3114 2 -426.331 1536.1 -399.973 0.00032031 -0.0122694 0.0965614 -0.995251 
3107 2 -425.299 1568.61 -458.331 -0.252018 0.0455047 0.159844 -0.953345 
3108 2 -426.457 1565.09 -449.039 0.671506 0.167455 0.0641278 -0.718976 
3109 2 -428.37 1561.31 -440.136 0.906288 0.385381 -0.160373 -0.0663606 
3112 2 -432.683 1542.38 -417.844 -0.93173 -0.17895 -0.175011 0.26311 
3111 2 -431.694 1549.18 -424.897 -0.289578 -0.185713 -0.369867 0.863049 
3110 2 -430.843 1554.71 -433.182 0.585215 0.140953 -0.210016 0.770421 
3105 2 -432.767 1572.38 -475.722 -0.827783 0.128827 -0.272865 0.472995 
3106 2 -427.217 1572.08 -467.419 -0.95113 -0.186513 -0.060117 -0.238644 
3104 2 -439.37 1571.32 -483.031 -0.109238 0.32396 0.0210497 0.939507 
3100 1 -437.306 1523.27 -488.827 0.857217 -0.33667 0.389385 0.014567 
3103 2 -445.464 1569.59 -490.614 0.751538 0.128738 0.354044 0.541544 
3099 2 -409.07 1491.58 -468.164 -0.291629 -0.859156 0.31592 0.277486 
3098 2 -402.659 1495.28 -461.42 0.0361204 -0.743053 -0.508042 0.434121 
3097 2 -395.772 1498.96 -455.399 0.34717 -0.109327 -0.896874 0.251272 
3101 3 -414.628 1543.17 -470.807 0.842764 -0.349864 0.406769 -0.0433885 
3096 2 -390.681 1502.14 -447.373 0.297119 0.725047 -0.604089 -0.145272 
3115 2 -426.78 1534.15 -390.244 0.711301 0.304034 0.120487 -0.622172 
3116 2 -429.524 1529.98 -381.687 0.864735 0.244575 -0.415437 -0.140815 
3117 2 -436.89 1526.25 -376.22 0.673697 -0.0979624 -0.474721 0.557831 
3095 2 -384.376 1505.53 -440.562 0.0854362 0.894053 0.186004 -0.398463 
3135 2 -484.555 1610.19 -387.053 0.119019 -0.902099 -0.201785 -0.362401 
3094 2 -378.687 1512.38 -436.436 -0.134756 0.416356 0.733337 -0.520294 
3093 2 -375.185 1517.5 -428.691 -0.310717 -0.393763 0.829593 -0.245319 
3134 2 -488.309 1604.59 -379.798 -0.108609 -0.2247 -0.90916 -0.333381 
3092 2 -372.625 1522.73 -420.797 -0.338799 -0.897237 0.278992 0.0484141 
3136 2 -478.975 1614.23 -394.271 0.243967 -0.632855 0.723757 -0.127087 
3137 2 -473.873 1615.77 -402.749 0.174185 0.0682209 0.975695 0.114123 
3118 2 -444.334 1522.33 -370.922 0.138063 -0.483905 -0.00985507 0.864105 
3119 2 -452.674 1523.86 -365.728 -0.496879 -0.483946 0.401144 0.598323 
3133 2 -490.05 1600.92 -370.835 -0.162252 0.563473 -0.8071 -0.0690044 
3138 2 -470.908 1617.87 -412.018 0.028538 0.817838 0.523356 0.237538 
3091 2 -368.448 1527 -412.858 -0.0916316 -0.881285 -0.353531 0.299927 
3120 2 -462.142 1524.7 -363.361 -0.719117 0.0529826 0.692829 0.00721044 
3090 2 -362.922 1531.74 -406.225 0.240384 -0.0869343 -0.938071 0.233838 
3139 2 -466.824 1620.46 -420.815 -0.322525 0.85057 -0.323789 0.260131 
3121 2 -471.894 1525.27 -362.548 -0.442679 0.405723 0.34738 -0.720244 
3089 2 -356.491 1532.66 -398.694 0.233137 0.708523 -0.613059 -0.260385 
3088 2 -349.309 1534.71 -392.281 -0.0105417 0.831359 0.332411 -0.445235 
3087 2 -343.671 1538.58 -385.092 -0.331067 0.153875 0.89962 -0.239584 
3086 2 -339.578 1541.76 -376.611 -0.203499 -0.663439 0.72001 -0.00472823 
3085 2 -333.109 1544.2 -369.536 -0.117601 -0.911975 -0.0654698 0.387538 
3084 2 -325.365 1546.9 -364.074 0.326996 -0.343597 -0.837631 0.270903 
3083 2 -316.316 1550.56 -362.737 0.618827 0.418628 -0.642985 -0.168446 
3156 2 -561.432 1695.65 -510.638 -0.748657 0.014201 -0.48233 -0.454608 
3157 2 -554.729 1700.3 -505.188 0.0150782 -0.459563 -0.315031 -0.830259 
3158 2 -547.846 1706.16 -501.219 0.6906 -0.371349 -0.0459261 -0.618921 
3159 2 -543.873 1712.43 -494.697 0.87621 -0.235492 0.405492 0.111247 
3160 2 -536.913 1717.39 -489.654 0.481879 0.0851879 0.57597 0.654823 
3161 2 -530.123 1724.13 -486.975 -0.195877 0.524168 0.2798 0.780123 
3162 2 -522.646 1730 -483.92 -0.740125 0.659177 -0.0123912 0.132468 
3196 2 -533.635 1706.21 -379.902 -0.740199 -0.0101707 0.284695 -0.609057 
3163 2 -520.799 1739.5 -481.976 -0.539319 0.385297 -0.388367 -0.640197 
3197 2 -536.297 1701.89 -371.346 -0.0574832 0.187336 0.183847 -0.963224 
3164 2 -521.412 1748.93 -479.126 0.158758 -0.208372 -0.536754 -0.802043 
3198 2 -540.066 1698.28 -362.835 0.748239 0.274648 -0.0751826 -0.599211 