ITEM: TIMESTEP
100000000
ITEM: NUMBER OF ATOMS
4067
ITEM: BOX BOUNDS pp pp pp
-4.6310929470000001e+03 4.6704658980000004e+03
-4.6310929470000001e+03 4.6704658980000004e+03
-4.6310929470000001e+03 4.6704658980000004e+03
ITEM: ATOMS id type x y z c_q[1] c_q[2] c_q[3] c_q[4] 
3232 2 -290.91 1907.57 -526.845 -0.0315852 0.236352 -0.957378 0.162994 
3233 2 -290.44 1904.76 -536.14 -0.128262 -0.662326 -0.738078 0.0106687 
3234 2 -287.949 1902.97 -545.411 -0.0932177 -0.986787 -0.0108957 -0.132073 
3235 1 -249.479 1876.29 -539.551 -0.343646 -0.102218 0.146337 0.921979 
3231 2 -294.998 1907.81 -517.784 -0.0632378 0.934669 -0.267126 0.225915 
3534 2 -380.761 2138.28 -550.84 0.634064 -0.414628 -0.12876 0.639897 
3535 2 -387.019 2142.52 -544.502 0.109884 -0.321545 0.23127 0.911619 
3536 2 -391.779 2147.85 -537.752 -0.553355 0.0235379 0.668905 0.495793 
3540 2 -418.469 2176.2 -535.878 0.62668 -0.292007 -0.646567 -0.322421 
3541 2 -423.907 2184.54 -535.075 0.75748 -0.576232 -0.257913 0.166319 
3539 2 -413.793 2167.81 -537.993 0.1556 0.189543 -0.605473 -0.757143 
3537 2 -398.802 2154.74 -537.163 -0.696646 0.534993 0.473929 -0.0621185 
3538 2 -406.299 2161.3 -537.155 -0.365133 0.746907 -0.0300524 -0.554891 
3532 1 -380.764 2100.18 -523.039 -0.853786 0.375127 0.324212 0.158795 
3542 2 -429.02 2192.78 -532.935 0.304982 -0.353711 0.536547 0.702845 
3543 2 -430.83 2202.08 -530.382 -0.505252 0.173633 0.69297 0.484111 
3544 2 -436.218 2210.36 -530.318 -0.674953 0.654227 0.24117 -0.241375 
3545 2 -442.228 2218.18 -530.71 -0.426804 0.430341 -0.564405 -0.560439 
3546 2 -442.633 2228.02 -531.047 0.328856 -0.0310753 -0.589217 -0.737368 
3558 2 -463.237 2337.2 -521.277 -0.554718 0.576705 0.581437 0.147069 
3550 2 -443.304 2264.61 -517.256 -0.407601 0.338012 0.539312 0.654792 
3548 2 -444.87 2246.19 -524.142 0.725984 -0.542064 0.268137 0.32744 
3547 2 -445.023 2237.09 -527.872 0.71846 -0.551952 -0.235874 -0.351465 
3549 2 -444.408 2255.66 -521.279 0.251669 -0.0658845 0.56821 0.780679 
3551 2 -442.474 2274.34 -516.103 -0.797049 0.56271 0.13936 0.169262 
3556 2 -453.976 2320.87 -516.136 0.258762 -0.623464 0.406659 0.6156 
3557 2 -458.219 2329.64 -517.746 -0.227408 -0.100134 0.819213 0.516864 
3555 2 -452.043 2311.26 -514.846 0.670157 -0.731551 -0.0318353 0.121284 
3804 2 -680.12 2736.52 -514.749 -0.483577 -0.190692 0.07202 0.851236 
3802 1 -644.533 2705.71 -517.842 -0.934811 -0.111023 0.303126 -0.148047 
3856 1 -560.361 2745.8 -579.471 -0.676261 0.377113 -0.0536292 -0.630541 
3857 3 -572.886 2767.88 -555.328 -0.679289 0.295561 -0.0837449 -0.666481 
3855 2 -521.551 2766.67 -562.71 0.292888 -0.16137 0.93905 -0.0797588 
3854 2 -526.781 2766.78 -554.226 0.127561 -0.860515 0.429449 -0.242519 
3853 2 -532.437 2767.22 -546.103 -0.174252 -0.744936 -0.620262 -0.17315 
3852 2 -539.562 2767.55 -539.269 -0.363911 -0.124233 -0.9231 -0.00471775 
3851 2 -544.896 2766.35 -530.947 -0.245001 0.698903 -0.654307 0.152941 
3858 2 -606.94 2738.42 -581.105 0.0819345 0.264402 -0.289579 -0.916255 
3850 2 -547.425 2763.86 -521.719 -0.128532 0.976168 0.121818 0.125447 
3859 2 -612.166 2743.02 -574.06 0.75351 -0.19651 -0.241956 -0.578846 
3860 2 -614.452 2749.04 -566.57 0.877708 -0.460284 -0.00490482 0.133205 
3861 2 -615.646 2756.55 -560.223 0.352909 -0.161777 0.198003 0.900043 
3862 2 -616.436 2761.83 -551.87 -0.418015 0.0621508 0.31301 0.850544 
3863 2 -617.933 2767.09 -543.694 -0.97039 0.051672 0.142718 0.187894 
3864 2 -620.469 2768.69 -534.233 -0.736467 0.202957 -0.0943653 -0.638373 
3865 2 -621.882 2772.9 -525.327 0.168094 0.185103 -0.138257 -0.958314 
3866 2 -625.888 2775.22 -516.475 0.745075 -0.137054 -0.492454 -0.428448 
3993 2 -601.652 3153.71 -649.41 0.58923 -0.1159 -0.495811 -0.627334 
3990 2 -533.585 3177.08 -592.327 0.161005 -0.719827 0.615107 -0.278513 
3991 1 -560.376 3161.2 -627.738 -0.721927 0.416002 0.16604 -0.52744 
3994 2 -605.755 3161.26 -644.602 0.933204 -0.283173 -0.197761 -0.0991677 
3984 2 -578.41 3181.8 -555.48 0.407603 0.085931 0.884799 0.208822 
3983 2 -584.181 3178.2 -548.419 0.394764 -0.644553 0.654748 0.00413647 
3995 2 -608.073 3167.31 -637.115 0.59724 -0.350285 0.165694 0.702246 
3996 2 -611.265 3174.13 -630.599 -0.315546 0.102067 0.311061 0.890648 
3997 2 -611.983 3180.45 -622.988 -0.925791 0.308457 0.084281 0.201646 
3992 3 -583.519 3177.63 -606.955 -0.721747 0.393497 0.11832 -0.556994 
3998 2 -612.736 3186.9 -615.683 -0.647462 0.26001 -0.244393 -0.673395 
3999 2 -612.966 3193.52 -608.229 0.0351666 -0.256881 -0.391138 -0.883055 
4001 2 -606.925 3209.31 -598.295 0.901127 -0.361099 0.0910576 0.222007 
4000 2 -608.654 3200.94 -603.297 0.731153 -0.467904 -0.162919 -0.468976 
4002 2 -606.856 3216.35 -591.36 0.346289 -0.0695285 0.370215 0.85918 
4003 2 -606.236 3223.1 -584.31 -0.525693 0.202943 0.401671 0.721888 
4004 2 -607.159 3230.71 -578.088 -0.915275 0.364129 0.171694 -0.0142564 
4006 2 -613.528 3242.39 -563.683 0.386348 -0.00922031 -0.0406204 -0.921412 
4005 2 -610.489 3237.16 -571.435 -0.494606 0.295471 -0.0722978 -0.814146 
3985 2 -571.453 3184.09 -562.257 0.297562 0.724233 0.465715 0.412375 
3986 2 -562.855 3184.12 -567.175 -0.0577711 0.856098 -0.250021 0.448607 
3982 2 -590.347 3175.25 -541.296 0.115015 -0.917883 -0.135545 -0.35481 
3981 2 -596.6 3176.13 -533.71 -0.308198 -0.557178 -0.754603 -0.158561 
3987 2 -555.029 3183.23 -573.091 -0.38271 0.24858 -0.831517 0.316732 
3988 2 -547.654 3180.23 -579.133 -0.443524 -0.450424 -0.762592 -0.137329 
3980 2 -602.557 3177.05 -525.88 -0.274603 0.27633 -0.912513 0.124719 
4007 2 -613.837 3242.95 -553.802 0.931654 0.0139184 0.0903481 -0.351661 
3989 2 -539.887 3178.49 -584.84 -0.0942577 -0.92889 -0.108871 -0.341211 
4008 2 -611.242 3240.47 -544.478 0.832599 0.237537 -0.00753528 0.500298 
4009 2 -608.214 3237.03 -535.73 0.181598 0.225929 -0.24578 0.92497 
4010 2 -605.436 3231.89 -527.721 -0.611156 -0.0384709 -0.247481 0.75084 
4011 2 -602.533 3227.08 -519.639 -0.928119 -0.281069 -0.243629 -0.0154803 
3979 2 -605.8 3176.94 -516.412 -0.0685097 0.947265 -0.263572 0.168896 
4064 2 -696.146 3346.22 -562.701 0.529026 0.49654 -0.0923238 -0.68195 
4063 2 -689.315 3350.79 -567.94 -0.183061 0.353146 0.339534 -0.852346 
4062 2 -683.681 3357.86 -572.093 -0.69369 -0.132312 0.50086 -0.500426 
4065 2 -703.698 3342.35 -557.614 0.806985 0.168286 -0.563137 -0.0577301 
4066 2 -712.817 3339.68 -555.201 0.468258 -0.193524 -0.665814 0.547699 
4067 2 -721.035 3334.23 -554.403 -0.109369 -0.589746 -0.332657 0.727721 
4061 2 -677.846 3364.41 -576.836 -0.817448 -0.46854 0.262979 0.207583 
4060 2 -672.704 3372.4 -579.635 -0.377705 -0.53733 -0.254641 0.70977 
4059 2 -666.986 3380.07 -582.45 0.372345 -0.0941482 -0.577415 0.720477 
4058 2 -658.756 3385.57 -582.669 0.663576 0.458666 -0.590951 -0.00826704 
4057 2 -649.33 3388.47 -583.827 0.432782 0.599538 -0.248182 -0.625827 
4056 2 -640.604 3392.82 -582.632 -0.0855738 0.566967 0.434553 -0.694542 
4034 2 -598.055 3355.3 -527.472 0.269688 -0.57727 0.768022 -0.0645785 
4055 2 -631.957 3396.56 -579.418 -0.493731 0.141174 0.828535 -0.223224 
4046 3 -580.281 3401.84 -544.655 -0.0591648 -0.664021 0.741446 0.0763818 
4037 2 -584.849 3369.42 -549.084 -0.503878 0.732416 -0.381792 0.252802 
4038 2 -576.866 3373.59 -553.368 -0.637089 0.0771238 -0.761457 -0.0913942 
4039 2 -567.531 3376.77 -554.28 -0.343661 -0.407693 -0.647531 -0.544415 
4040 2 -558.942 3381.39 -555.593 0.296991 -0.656888 0.0596828 -0.690458 
4042 2 -542.781 3386.09 -547.258 0.747451 0.00299969 0.310338 0.587365 
4041 2 -549.709 3384.32 -554.081 0.888429 -0.17935 0.277101 -0.318971 
4043 2 -537.708 3388.64 -539.051 0.0953163 0.358777 0.169741 0.912898 
4036 2 -590.455 3364.16 -542.95 -0.153963 0.791785 0.408596 0.427107 
4035 2 -592.984 3358.65 -535.215 0.0402493 0.146679 0.949012 0.276117 
4054 2 -625.827 3402.85 -574.772 -0.549759 -0.631951 0.545722 0.024295 
4053 2 -620.646 3406.37 -567.104 -0.178723 -0.917725 -0.00476229 0.354705 
4049 2 -618.25 3417.48 -530.056 0.097142 0.806836 0.580706 0.0485714 
4048 2 -617.571 3418.63 -520.24 0.0156948 0.0430279 0.998395 -0.0333269 
4052 2 -619.523 3410.84 -558.293 -0.102362 -0.464159 -0.851351 0.221989 
4050 2 -616.867 3415.48 -539.626 0.00965342 0.92661 -0.375726 -0.0114387 
4051 2 -616.76 3414.65 -549.611 0.177365 0.441164 -0.872496 0.112543 
4033 2 -604.13 3351.53 -520.751 0.22211 -0.913767 0.000818085 -0.340141 
4044 2 -531.112 3390.78 -532.075 -0.647074 0.358968 -0.154029 0.654761 
2346 2 50.6061 466.958 -381.931 -0.406753 -0.0726947 0.349567 0.840875 
2347 2 46.5307 471.597 -374.297 -0.927917 0.158361 0.254517 0.221616 
2344 1 53.4364 422.082 -367.485 0.932889 -0.158168 -0.29658 -0.129388 
2348 2 43.1049 475.478 -365.849 -0.754009 0.19209 -0.0869304 -0.622105 
2748 2 -252.422 1062.52 -507.738 0.0855944 0.876259 0.201815 -0.429086 
2749 1 -277.675 1102.07 -512.888 0.900915 -0.164408 0.3929 0.0833809 
2747 2 -244.987 1065.71 -501.958 -0.234655 0.586583 0.671929 -0.386483 
2752 2 -277.987 1150.57 -501.48 -0.37114 -0.236738 -0.39518 -0.806253 
2751 2 -286.693 1147.73 -504.896 -0.838385 0.159562 -0.515016 -0.0800503 
2746 2 -238.111 1067.48 -495.014 -0.403691 -0.0263934 0.913277 -0.047561 
2750 3 -252.46 1111.36 -490.389 0.888798 -0.141913 0.399185 0.174787 
2745 2 -233.966 1070.56 -486.667 -0.248265 -0.710741 0.656991 0.0396755 
2744 2 -229.364 1072.65 -478.053 -0.171034 -0.967188 0.00584517 0.187777 
2743 2 -225.17 1074.8 -469.322 0.053235 -0.676917 -0.699482 0.222878 
2742 2 -224.617 1078.06 -459.933 0.0713666 0.0974586 -0.981104 0.151143 
2854 2 -245.248 1132.82 -408.13 0.553144 0.259696 -0.694082 0.38058 
2853 2 -238.177 1139.51 -406.146 0.570675 0.706451 -0.353828 -0.223747 
2855 2 -251.267 1125.11 -410.134 0.317432 -0.566144 -0.568741 0.505225 
2856 2 -260.395 1122.47 -412.802 -0.320703 -0.756395 0.193394 0.536298 
2753 2 -270.941 1154.79 -495.868 0.298284 -0.509854 -0.0611014 -0.804576 
2754 2 -262.944 1158.26 -491.089 0.792337 -0.276072 0.349467 -0.416964 
2755 2 -255.186 1159.69 -484.972 0.857589 0.00453267 0.266749 0.439733 
2756 2 -250.757 1161.16 -476.271 0.145795 0.487722 0.0199278 0.860508 
2757 2 -242.759 1160.5 -470.553 -0.609635 0.286686 -0.512006 0.532923 
2852 2 -234.427 1145.21 -398.891 0.163421 0.800823 0.477916 -0.321826 
2741 2 -222.482 1083.06 -451.559 0.274464 0.865177 -0.419266 -0.0188259 
2732 2 -220.701 1057.15 -370.741 -0.0309537 0.334709 0.909787 0.243516 
2733 2 -219.298 1063.09 -378.52 -0.288406 0.898007 0.253668 0.214609 
2857 1 -290.87 1154.8 -396.89 -0.832646 0.107983 -0.473754 -0.265701 
2851 2 -230.666 1145.14 -389.864 -0.240836 0.154624 0.95644 -0.0575432 
2734 2 -217.264 1069.8 -385.547 -0.246037 0.743604 -0.601634 -0.156704 
2758 2 -233.765 1158.07 -467.218 -0.865124 -0.138612 -0.478979 0.054097 
2759 2 -225.534 1155.45 -462.178 -0.474742 -0.532938 -0.220864 -0.664692 
2735 2 -216.957 1075.4 -393.693 -0.0474261 0.0277316 -0.986322 -0.155406 
2736 2 -216.117 1079.29 -402.766 0.0635455 -0.66999 -0.739004 -0.0307964 
2760 2 -216.41 1153.06 -459.229 0.353742 -0.6048 0.311871 -0.641732 
2737 2 -215.88 1080.98 -412.691 0.0929835 -0.985781 0.127407 0.0579403 
2738 2 -217.225 1082.4 -422.381 -0.0306047 -0.595833 0.789742 0.142666 
2740 2 -220.011 1083 -441.912 -0.0946334 0.877227 0.463213 -0.0833742 
2739 2 -218.999 1083.14 -432.095 -0.00515254 0.242963 0.968512 -0.0541077 
2850 2 -223.491 1144.95 -383.174 -0.222633 -0.687145 0.609867 0.326082 
2849 2 -216.668 1142.06 -376.652 0.18176 -0.915761 -0.0196364 0.357714 
2731 2 -222.801 1050.8 -363.534 0.287121 -0.530667 0.752636 0.263614 
2858 3 -261.34 1162.33 -379.628 -0.829334 0.0770553 -0.522195 -0.183248 
2848 2 -209.805 1137.6 -371.233 0.502675 -0.573567 -0.644421 0.0553162 
2775 2 -81.599 1131.09 -483.17 0.167891 -0.553136 0.715183 -0.392894 
2774 2 -88.3471 1135.08 -477.055 -0.205535 -0.888955 0.0703953 -0.403185 
2768 2 -138.358 1150.79 -452.639 0.569348 -0.191367 0.785106 -0.151099 
2769 2 -128.784 1151.05 -454.783 0.500056 0.487514 0.6814 0.219018 
2770 2 -119.848 1149.06 -458.542 0.266286 0.869173 0.162395 0.383743 
2773 2 -96.8113 1138.98 -473.586 -0.559103 -0.524741 -0.630094 -0.122609 
2772 2 -104.524 1143.85 -469.723 -0.476023 0.0764367 -0.79131 0.376017 
2771 2 -112.531 1146.38 -464.594 -0.154104 0.715527 -0.515961 0.445036 
2845 2 -182.531 1126.82 -372.938 -0.608096 0.540433 0.426818 -0.39494 
2844 2 -173.542 1122.7 -373.408 -0.643333 -0.0502914 0.708186 0.286472 
2847 2 -200.74 1133.87 -369.855 0.486259 0.162251 -0.748321 -0.421 
2767 2 -147.845 1150.46 -455.118 0.385886 -0.566735 0.267579 -0.676982 
2846 2 -191.887 1130.07 -372.36 -0.126568 0.593508 -0.155204 -0.779513 
2766 2 -157.498 1150.86 -456.503 -0.271456 -0.609528 -0.18806 -0.720709 
2762 2 -196.923 1151.57 -458.396 0.490798 0.53177 0.567173 0.39326 
2764 2 -177.219 1150.84 -458.182 -0.649895 0.34344 -0.576241 0.357255 
2761 2 -206.574 1152.92 -457.711 0.654296 -0.131385 0.722315 -0.181373 
2843 2 -164.179 1120.24 -374.982 -0.113937 -0.591417 0.280575 0.747343 
2841 2 -145.083 1115.59 -374.928 0.660957 -0.0455955 -0.725784 -0.185188 
2842 2 -154.615 1118.35 -375.719 0.575783 -0.531089 -0.342985 0.51844 
2840 2 -135.262 1115.43 -373.413 0.258066 0.722423 -0.310659 -0.561247 
2777 3 -72.0697 1157.44 -439.397 0.868552 0.245857 -0.12791 -0.410866 
2763 2 -187.041 1149.89 -458.936 -0.122972 0.695907 -0.113346 0.698387 
2839 2 -126.369 1111.39 -371.755 -0.512951 0.652777 0.329905 -0.449363 
2838 2 -117.418 1108.16 -368.989 -0.577733 0.0927074 0.801757 0.121719 
2765 2 -167.377 1151.4 -457.616 -0.68588 -0.272896 -0.607709 -0.292892 
2836 2 -102.169 1096.01 -366.759 0.370971 -0.758082 0.0281618 0.535629 
2837 2 -109.418 1102.3 -368.523 -0.136699 -0.41026 0.545304 0.718083 
2835 2 -95.8264 1089.49 -362.701 0.586327 -0.58144 -0.564031 0.00417857 
2984 2 -516.441 1315.34 -441.223 0.114512 -0.751714 0.487999 0.428569 
2983 2 -512.982 1306.82 -437.509 0.547444 -0.782037 -0.297146 -0.0206835 
2982 2 -507.918 1299.11 -433.744 0.411783 -0.135263 -0.799957 -0.414979 
2981 2 -503.273 1291.26 -430.148 -0.123191 0.587714 -0.581195 -0.549207 
2978 2 -478.498 1280.55 -418.402 -0.474857 -0.327151 0.718543 0.388817 
2974 2 -442.342 1286 -405.77 0.399072 0.786212 -0.21481 -0.420083 
2971 2 -421.604 1285.78 -386.107 -0.0935349 -0.720551 0.58609 0.358547 
2970 2 -414.351 1283.85 -379.852 0.240171 -0.863432 -0.319038 0.308248 
2972 2 -427.47 1289.14 -393.373 -0.366926 0.128605 0.918565 -0.0711633 
2973 2 -434.893 1289.04 -400.071 -0.0841304 0.748245 0.476197 -0.45419 
2975 2 -450.913 1282.31 -409.269 0.563929 0.151037 -0.810338 0.0502337 
2976 2 -459.837 1279.73 -412.809 0.411259 -0.50064 -0.565369 0.510474 
2977 2 -469.651 1279.1 -414.224 0.0431578 -0.821794 0.136215 0.551578 
2979 2 -487.985 1282.58 -420.948 -0.506425 0.3919 0.767249 -0.0357245 
2980 2 -495.638 1286.91 -425.613 -0.352628 0.849924 0.200479 -0.336291 
2969 2 -407.244 1278.54 -375.345 0.512999 -0.343466 -0.779245 -0.107896 
2968 2 -401.608 1271.44 -371.705 0.162112 0.339042 -0.736927 -0.561879 
2967 2 -397.735 1262.76 -369.335 -0.3701 0.682028 -0.399197 -0.48837 
3017 2 -374.374 1314.25 -362.967 -0.2164 0.856658 0.0530972 0.465283 
2859 2 -303.086 1191.54 -369.815 0.847709 -0.231183 0.412559 -0.24029 
2870 2 -216.205 1237.83 -381.095 -0.681494 0.356599 -0.636548 -0.0566502 
2869 2 -223.422 1231.11 -380.086 -0.485967 0.730865 0.00205572 0.479237 
2860 2 -295.758 1194.29 -363.79 0.684416 0.10964 0.576549 0.432602 
2868 2 -230.33 1224.12 -379.103 -0.0693945 0.589009 0.483709 0.643645 
2867 2 -236.223 1216.31 -377.21 0.41707 0.0739854 0.764696 0.485613 
2866 2 -243.059 1209.56 -374.59 0.618917 -0.569175 0.540608 0.0269306 
2865 2 -250.325 1205.47 -369.264 0.229816 -0.89244 -0.00106883 -0.388246 
2864 2 -258.453 1203.03 -364.067 -0.215338 -0.593603 -0.66908 -0.391913 
2871 2 -208.183 1243.7 -381.467 -0.470729 -0.490069 -0.565815 -0.467012 
2885 3 -135.187 1284.46 -415.059 0.957745 -0.0858213 -0.270912 0.0443299 
2884 1 -116.11 1286.21 -444.303 0.951753 -0.0072531 -0.303471 -0.044934 
2883 2 -106.481 1243 -427.964 -0.159363 0.884358 -0.299199 0.320928 
2882 2 -113.003 1242.21 -420.497 0.133219 0.779399 0.510766 0.337503 
2881 2 -118.472 1240.3 -412.488 0.365427 -0.0474658 0.925458 0.0879657 
2880 2 -126.986 1241.26 -407.551 0.270292 -0.596541 0.661549 -0.365286 
2879 2 -135.51 1241.01 -402.506 -0.0312431 -0.860477 -0.141768 -0.48837 
2878 2 -143.216 1241.55 -396.234 -0.421126 -0.516071 -0.726251 -0.169948 
2877 2 -151.241 1243.21 -390.655 -0.413097 0.196512 -0.870492 0.181598 
2876 2 -160.472 1246.52 -389.593 -0.0564945 0.662628 -0.25807 0.700808 
2875 2 -169.731 1249.17 -387.418 0.462835 0.664219 0.381541 0.44612 
2874 2 -179.413 1249.4 -385.9 0.667539 0.0466795 0.740376 0.0636928 
2873 2 -188.95 1247.56 -384.583 0.494365 -0.572934 0.537589 -0.371952 
2872 2 -198.497 1245.36 -383.019 0.0798046 -0.764389 -0.0767283 -0.63518 
2787 2 -70.9216 1165.39 -364.825 -0.0575925 -0.151038 0.0092998 0.986805 
2786 2 -70.1457 1168.91 -374.058 0.825406 0.144277 -0.157041 0.522711 
2785 2 -70.1798 1173.1 -382.88 0.911941 0.153727 0.0583825 -0.375929 
2784 2 -67.6187 1178.34 -390.838 0.154869 0.15769 0.261234 -0.939631 
2783 2 -63.8667 1184.47 -397.72 -0.698683 -0.094123 0.404608 -0.582473 
2782 2 -59.3824 1186.72 -406.355 -0.909217 -0.187357 0.169982 0.330648 
2776 1 -53.8566 1166.19 -468.139 0.832873 0.269712 -0.130762 -0.465274 
2781 2 -51.9847 1189.45 -412.298 -0.325513 -0.475558 -0.0198823 0.817001 
2780 2 -48.121 1192.56 -420.809 0.43599 -0.0452668 -0.235126 0.867513 
2779 2 -42.7144 1194.34 -428.919 0.949753 0.0368892 -0.286422 0.120713 
2778 2 -34.6774 1193.27 -434.536 0.607241 0.293797 -0.40185 -0.619241 
2990 2 -523.616 1363.93 -465.529 0.563701 -0.772886 -0.0536503 -0.286374 
2992 1 -545.48 1390.05 -431.723 0.78976 0.600774 0.0610735 0.107793 
2993 3 -537.656 1357.59 -421.25 0.800761 0.580874 0.08999 0.115189 
2994 2 -567.657 1386.18 -390.273 0.866011 0.251965 0.423016 0.0871511 
2995 2 -559.836 1383.7 -384.807 0.558802 0.532805 0.136345 0.620701 
2996 2 -552.35 1378.73 -380.821 -0.0172843 0.464168 -0.359103 0.809502 
2997 2 -545.009 1373.19 -377.272 -0.704258 0.217 -0.474751 0.481189 
2998 2 -536.326 1372.29 -372.61 -0.810196 -0.233717 -0.437248 -0.312688 
2999 2 -527.711 1372.77 -367.746 -0.324876 -0.572324 -0.145041 -0.738826 
2991 2 -520.087 1372.98 -467.739 0.600641 -0.49331 0.566945 0.272854 
2989 2 -527.292 1354.86 -464.321 0.133338 -0.420566 -0.631774 -0.637344 
2988 2 -527.999 1345.51 -460.982 -0.299657 0.286018 -0.757546 -0.504503 
2987 2 -528.81 1336.33 -457.463 -0.507516 0.809526 -0.242885 -0.167638 
2986 2 -526.141 1328.35 -452.167 -0.437162 0.700072 0.530364 0.193659 
2985 2 -521.428 1322.12 -446.24 -0.287937 -0.0841837 0.877553 0.37404 
3000 2 -518.373 1371.78 -364.423 0.262521 -0.339192 0.410726 -0.804572 
3018 2 -366.24 1318.05 -367.336 -0.480416 0.649826 -0.544385 0.22488 
3020 3 -402.7 1354.91 -369.565 -0.873951 0.14353 0.430722 -0.173458 
3023 2 -406.743 1392.56 -384.882 0.0149933 0.244122 -0.0360208 -0.968959 
3024 2 -411.58 1393.41 -376.161 0.755713 0.1977 -0.22849 -0.581038 
3025 2 -417.501 1392.96 -368.304 0.916576 -0.0646132 -0.271316 0.286534 
3022 2 -403.732 1391.73 -394.308 -0.816489 0.152372 0.0967765 -0.548418 
3021 2 -402.91 1393.83 -403.979 -0.939311 -0.116508 0.00566448 0.322629 
3019 1 -376.403 1356.56 -392.566 -0.893856 0.0364278 0.429941 -0.121844 
2913 2 -315.955 1408.9 -397.959 0.627354 0.651192 -0.322959 0.279416 
2914 2 -315.827 1398.94 -397.731 0.232975 0.130393 -0.521324 0.81052 
2915 2 -315.697 1389.84 -393.874 -0.5779 -0.132411 -0.577166 0.561585 
2916 2 -311.185 1381.39 -390.975 -0.772184 -0.591251 -0.14193 -0.184418 
2917 2 -307.026 1372.75 -388.339 -0.312782 -0.322915 0.405765 -0.795769 
2918 2 -304.434 1364.42 -383.531 0.460105 0.131415 0.279637 -0.832369 
2919 2 -303.811 1358.44 -375.632 0.927339 0.224 0.133661 -0.268329 
2920 2 -302.742 1352.73 -367.579 0.779812 0.321568 -0.215001 0.492201 
2893 2 -166.2 1333.08 -381.894 -0.766869 0.128555 0.436902 0.452219 
2892 2 -163.521 1329.46 -390.708 -0.220996 -0.101412 0.238242 0.940275 
2886 2 -135.071 1329.3 -440.8 -0.88983 -0.164314 0.288376 0.313119 
2887 2 -140.405 1327.77 -432.582 -0.897041 0.0585175 0.25524 -0.356013 
2888 2 -145.145 1326.87 -423.957 -0.222579 0.279126 0.170638 -0.918384 
2889 2 -151.859 1324.42 -417.035 0.768936 0.0702594 -0.0695117 -0.63164 
2890 2 -154.585 1324.69 -407.646 0.957271 -0.120812 -0.210039 0.157862 
2894 2 -171.795 1338.54 -375.894 -0.907948 0.263559 0.199869 -0.257331 
2891 2 -159.762 1326.13 -399.324 0.491168 -0.23492 0.0639263 0.836349 
2895 2 -177.255 1342.31 -368.552 -0.278478 0.382322 0.0249912 -0.880713 
3073 1 -380.439 1543.49 -382.851 -0.866158 -0.211802 0.410454 -0.190885 
3075 2 -416.172 1574.26 -385.572 -0.821864 -0.176537 0.199296 0.503641 
3076 2 -421.074 1572.31 -377.272 -0.938276 0.00883569 0.122768 -0.323245 
3071 2 -369.74 1500.52 -366.682 -0.102971 -0.728317 -0.320172 -0.597027 
3070 2 -378.737 1496.53 -365.938 -0.58368 -0.0758038 -0.695488 -0.412151 
3069 2 -387.016 1490.96 -366.381 -0.673072 0.472885 -0.56042 0.0963503 
3077 2 -423.696 1570.87 -367.917 -0.444839 -0.086986 0.114176 -0.884034 
3074 3 -406.363 1527.14 -365.97 -0.841264 -0.272501 0.429024 -0.184275 
3068 2 -395.057 1485.89 -363.713 -0.252038 0.802433 0.144286 0.521306 
3072 2 -360.487 1503.04 -369.231 0.394237 -0.723769 0.305877 -0.476629 
3181 1 -530.667 1818.64 -381.066 -0.36439 0.260218 0.158816 0.879934 
3180 2 -569.55 1844.53 -374.568 0.365358 0.720675 -0.588893 0.0185817 
3179 2 -565.342 1849.92 -367.386 0.246439 0.899294 0.225301 -0.28245 
3183 2 -486.652 1805.22 -370.469 -0.855677 0.411077 0.0686865 0.306781 
3184 2 -484.416 1812.72 -364.515 -0.642027 0.317138 -0.384313 -0.58269 
3220 2 -378.631 1913.95 -464.676 -0.544506 -0.575487 -0.481688 -0.374573 
3219 2 -387.369 1918.31 -463.298 -0.575018 -0.0927992 -0.781972 0.221951 
3221 2 -369.228 1911.24 -466.684 0.00776107 -0.774614 0.0818441 -0.627069 
3218 2 -395.541 1923.41 -460.771 -0.207586 0.478818 -0.61391 0.592246 
3230 2 -297.423 1908.74 -508.163 0.173807 0.811163 0.554882 0.0625496 
3237 2 -214.802 1857.61 -513.558 0.962249 -0.186149 -0.189243 0.0601052 
3229 2 -303.582 1910.24 -500.518 0.292161 0.0432905 0.95534 -0.00962727 
3236 3 -259.579 1883.02 -506.879 -0.455083 -0.12335 0.191905 0.86073 
3228 2 -309.883 1912.76 -493.434 0.037997 -0.786909 0.500032 -0.35958 
3226 2 -322.817 1915.7 -479.317 -0.316942 0.000532708 -0.947776 -0.0355941 
3227 2 -316.924 1915.75 -487.198 -0.359068 -0.811607 -0.378028 -0.26355 
3225 2 -330.549 1912.58 -473.958 -0.376122 0.783117 -0.436523 0.233897 
3239 2 -220.324 1864.6 -496.061 -0.139667 -0.0497525 0.194409 0.969651 
3240 2 -222.514 1868.87 -487.5 -0.809702 0.29479 0.00340656 0.507415 
3238 2 -218.349 1861.82 -505.377 0.670103 -0.193366 0.027078 0.716128 
3224 2 -340.103 1910.75 -472.266 0.119721 0.728427 0.297073 0.605647 
3241 2 -221.015 1873.78 -478.938 -0.863456 0.12668 -0.333923 -0.356218 
3242 2 -216.777 1877.76 -470.907 -0.0602864 -0.0404838 -0.163057 -0.983941 
3243 2 -215.577 1880.64 -461.436 0.813449 -0.260395 -0.0233107 -0.519568 
3244 2 -213.04 1885.32 -453.062 0.858202 -0.318689 0.191813 0.353744 
3223 2 -349.951 1910.66 -470.349 0.555464 0.235811 0.758238 0.246835 
3222 2 -359.578 1909.37 -468.325 0.534238 -0.440999 0.63806 -0.336138 
3245 2 -211.985 1892.44 -446.258 0.284576 0.0817547 0.362 0.883905 
3246 2 -208.726 1897.5 -438.373 -0.439807 0.317644 0.130408 0.829859 
3247 2 -205.821 1902.92 -430.774 -0.820413 0.331894 -0.331519 0.326902 
3248 2 -198.649 1906.55 -425.191 -0.790297 -0.00897079 -0.352739 -0.500924 
3249 2 -193.128 1910.39 -417.937 -0.23397 -0.218045 -0.110541 -0.941007 
3250 2 -189.326 1912.46 -409.082 0.44291 -0.437754 0.127404 -0.771991 
3251 2 -181.384 1914.98 -403.73 0.876771 -0.115618 0.453721 -0.109738 
3252 2 -172.956 1916.85 -398.604 0.715077 0.0871278 0.153868 0.676312 
3255 2 -164.672 1914.52 -371.478 -0.848345 -0.240861 -0.265328 -0.389741 
3253 2 -169.487 1918.3 -389.531 -0.0546439 0.128162 0.0307639 0.989769 
3254 2 -167.101 1918.52 -380.021 -0.807543 -0.0780144 -0.204565 0.547668 
3256 2 -158.917 1912.25 -363.773 -0.243327 -0.250821 0.0408177 -0.936063 
3489 2 -558.465 2061.92 -370.474 0.390933 -0.739973 -0.535391 -0.113873 
3490 2 -562.042 2067.86 -377.597 0.198326 -0.91587 0.106002 0.332585 
3491 2 -567.702 2072.29 -384.369 -0.15141 -0.492396 0.801751 0.303013 
3492 2 -573.575 2075.66 -391.526 -0.467815 0.248799 0.841308 0.106999 
3488 2 -553.914 2057.7 -362.674 0.264741 -0.120662 -0.943643 -0.157769 
3217 2 -401.856 1931.01 -461.048 0.483718 0.703676 -0.0738431 0.515174 
3216 2 -408.285 1938.37 -459.946 0.671689 0.523221 0.521479 -0.0559701 
3204 2 -450.384 1990.07 -373.924 -0.621055 0.774862 -0.0500573 0.106648 
3205 2 -448.252 1999.54 -376.012 -0.300881 0.658642 -0.58955 -0.357899 
3206 2 -449.02 2007.73 -381.609 0.0197701 0.0303443 -0.831166 -0.554844 
3208 1 -449.568 2008.59 -431.888 -0.073647 0.384277 -0.433245 0.811915 
3209 3 -423.135 1988.67 -420.423 -0.103409 0.38795 -0.416845 0.815501 
3207 2 -449.208 2016.85 -385.411 0.386953 -0.596706 -0.60091 -0.364851 
3212 2 -427.264 1971.1 -462.954 -0.762118 -0.133072 -0.530179 0.346956 
3213 2 -420.301 1965.09 -459.611 -0.675777 -0.694115 -0.0768762 -0.235837 
3211 2 -431.105 1979.69 -466.216 -0.0734735 0.177981 -0.559339 0.806266 
3210 2 -433.983 1987.81 -471.185 0.703524 0.454128 -0.165444 0.521009 
3214 2 -416.064 1956.15 -459.122 -0.316456 -0.468918 0.566921 -0.598809 
3215 2 -413.875 1946.44 -459.429 0.435354 0.0573068 0.719597 -0.537925 
3203 2 -456.222 1982.27 -371.9 -0.109796 0.55475 0.552496 0.612328 
3531 2 -391.527 2076.76 -483.499 -0.537212 -0.65399 -0.459051 -0.270134 
3202 2 -460.648 1974.02 -368.562 0.352504 -0.157836 0.803846 0.452393 
3201 2 -463.811 1967.73 -361.787 0.432193 -0.79302 0.429117 0.0136694 
3318 2 -351.383 1951.01 -440.296 -0.364586 0.0717071 -0.188051 -0.90916 
3319 2 -351.994 1954.82 -431.234 0.510748 -0.309051 -0.196072 -0.777933 
3320 2 -349.715 1960.42 -423.367 0.933818 -0.323608 0.101419 -0.11391 
3316 1 -309.464 1959.67 -460.11 -0.694304 0.124086 -0.117904 -0.69903 
3321 2 -348.306 1965.77 -415.154 0.735685 -0.205936 0.274371 0.58402 
3325 2 -332.613 1989.07 -387.947 -0.344518 -0.157563 -0.38853 -0.839956 
3322 2 -346.395 1971.95 -407.584 -0.158324 0.265322 0.297755 0.903261 
3317 3 -304.843 1969.49 -426.839 -0.723681 0.163519 -0.131993 -0.657363 
3315 2 -265.323 1976.32 -459.823 -0.10682 0.268122 0.955869 0.0549088 
3314 2 -262.057 1974.82 -450.53 -0.0356344 -0.594363 0.787338 0.159881 
3313 2 -261.453 1975.7 -440.732 -0.0385682 -0.993754 0.100015 -0.0310166 
3312 2 -261.896 1975.74 -430.808 -0.0106303 -0.770863 -0.634139 -0.0593703 
3311 2 -262.372 1974.77 -421.026 -0.00375604 -0.0856928 -0.99445 -0.0609253 
3310 2 -265.598 1974.22 -411.712 -0.128907 0.753615 -0.633547 0.118596 
3309 2 -268.822 1975.75 -402.499 0.070771 0.981156 -0.012536 0.179354 
3308 2 -274.499 1979.31 -395.309 0.380849 0.637608 0.662599 0.0968119 
3307 2 -279.061 1985.82 -389.321 0.327581 0.00540824 0.867153 -0.37511 
3306 2 -282.145 1995.17 -389.822 -0.282347 -0.420953 0.56833 -0.648136 
3305 2 -283.186 2004.76 -387.623 -0.600576 -0.79692 -0.0148998 -0.0632842 
3304 2 -283.738 2014.59 -386.599 -0.400483 -0.410168 -0.614252 0.542282 
3323 2 -342.2 1977.21 -400.338 -0.753531 0.440434 -0.0688856 0.48318 
3324 2 -337.12 1982.67 -393.882 -0.852069 0.287158 -0.349481 -0.263403 
3303 2 -278.696 2023.11 -386.293 0.426861 0.0795556 -0.726499 0.532597 
3302 2 -272.73 2030.65 -383.977 0.596806 0.597251 -0.525778 0.103302 
3301 2 -267.356 2038.62 -382.491 0.475634 0.764372 0.0639099 -0.430609 
3326 2 -327.116 1994.57 -381.881 0.368849 -0.349256 -0.167928 -0.84485 
3327 2 -322.754 2000.62 -375.285 0.902107 -0.310446 0.0215043 -0.298938 
3300 2 -266.264 2048.31 -380.803 0.222521 0.294836 0.679793 -0.633591 
3298 2 -259.432 2066.36 -376.151 -0.591551 -0.752804 0.273947 0.0911473 
3299 2 -263.891 2057.43 -377.729 -0.351872 -0.367264 0.714316 -0.480682 
3328 2 -320.249 2005.35 -366.976 0.927959 -0.0164089 0.0864069 0.362157 
3297 2 -256.357 2075.31 -373.169 -0.374008 -0.670509 -0.448849 0.457242 
3278 2 -190.94 1987.81 -378.621 0.708394 -0.680369 0.186505 0.0222 
3280 2 -190.017 2007.62 -377.328 -0.356001 0.388794 0.59027 0.611297 
3279 2 -189.527 1997.63 -379.067 0.236333 -0.243102 0.609482 0.716645 
3281 2 -189.676 2017.38 -376.372 -0.724865 0.663489 0.0177067 0.1845 
3282 2 -186.945 2026.88 -375.522 -0.617036 0.414217 -0.547904 -0.384046 
3283 2 -184.031 2036.22 -374.77 0.0107583 -0.161446 -0.677166 -0.71782 
3284 2 -180.231 2045.16 -373.071 0.629376 -0.596832 -0.145242 -0.476006 
3287 2 -163.731 2068.92 -366.742 -0.288172 0.573321 0.313461 0.700002 
3277 2 -192.963 1979 -375.012 0.410609 -0.666099 -0.42056 -0.459176 
3276 2 -192.388 1969.79 -371.33 0.0396015 -0.0968306 -0.861142 -0.497484 
3288 2 -157.549 2076.47 -365.36 -0.73495 0.587218 -0.259435 0.218442 
3285 2 -175.723 2053.6 -370.494 0.763728 -0.450749 0.430215 0.168702 
3286 2 -170.085 2061.46 -368.112 0.421557 0.0896373 0.65903 0.616389 
3275 2 -193.537 1961.01 -366.876 -0.445045 0.657051 -0.551046 -0.258005 
3274 2 -198.41 1953.46 -362.696 -0.36077 0.799899 0.206606 0.432804 
3504 2 -639.008 2162.29 -423.303 0.494839 -0.763802 0.01409 0.414177 
3503 2 -632.891 2154.68 -421.817 0.645446 -0.464272 -0.596271 -0.11096 
3502 2 -628.349 2146.05 -420.505 0.293696 0.0247128 -0.722541 -0.625353 
3501 2 -622.413 2138.44 -418.569 -0.199537 0.671618 -0.440275 -0.561491 
3500 2 -613.587 2134.15 -417.3 -0.561569 0.63949 0.428129 -0.303971 
3514 2 -533.156 2146.58 -449.743 0.582402 0.731592 0.299336 0.189683 
3515 2 -526.857 2139.41 -452.017 0.108281 0.689683 -0.352855 0.622981 
3507 2 -559.514 2206.7 -435.4 0.555414 0.77253 0.280208 -0.127266 
3508 2 -557.711 2197.96 -439.642 0.259669 0.575156 -0.566739 0.529693 
3509 2 -554.197 2189.24 -442.909 -0.336155 -0.00985841 -0.807433 0.484721 
3510 2 -549.708 2181.19 -446.433 -0.516267 -0.648435 -0.549659 0.104283 
3505 1 -604.045 2193.76 -426.811 0.433795 0.251335 0.735822 -0.455212 