ITEM: TIMESTEP
100000000
ITEM: NUMBER OF ATOMS
4067
ITEM: BOX BOUNDS pp pp pp
-4.6310929470000001e+03 4.6704658980000004e+03
-4.6310929470000001e+03 4.6704658980000004e+03
-4.6310929470000001e+03 4.6704658980000004e+03
ITEM: ATOMS id type x y z c_q[1] c_q[2] c_q[3] c_q[4] 
3831 2 -828.924 2828.03 -678.282 -0.191877 -0.369697 -0.46838 -0.779184 
3829 1 -847.857 2836.15 -720.761 0.228419 0.237351 0.628562 0.704556 
3832 2 -821.267 2833.5 -675.25 0.644017 -0.566427 0.13543 -0.496046 
3810 2 -726.152 2786.12 -702.208 0.189133 -0.539489 -0.809756 0.132192 
3811 2 -730.443 2785.92 -711.089 -0.00887401 -0.950938 0.043891 0.306123 
3812 2 -736.213 2785.79 -719.068 -0.27374 -0.515603 0.792458 0.176722 
3813 2 -742.917 2785.69 -726.251 -0.40492 0.293941 0.862968 -0.0701773 
3814 2 -750.644 2786.5 -732.727 -0.368537 0.801266 0.229109 -0.411901 
3815 2 -758.697 2791.08 -736.318 0.0395579 0.566349 -0.628874 -0.531226 
3816 2 -764.4 2798.27 -739.983 0.329227 -0.0902446 -0.854659 -0.391182 
3817 2 -769.857 2805.46 -744.041 0.625726 -0.607056 -0.474303 -0.122418 
3818 2 -775.054 2813.6 -746.585 0.335094 -0.850349 0.0986602 0.393553 
3809 2 -720.424 2783.9 -694.5 0.287884 0.191749 -0.935174 -0.0761936 
3806 2 -701.911 2767.39 -679.957 -0.519347 0.213179 0.814173 0.148174 
3808 2 -716.153 2778.15 -687.641 -0.154468 0.763297 -0.517729 -0.354225 
3807 2 -709.936 2771.79 -683.472 -0.504332 0.794701 0.264048 -0.210662 
3819 2 -780.249 2821.18 -750.219 -0.267488 -0.261502 0.751655 0.543214 
3820 2 -787.476 2827.53 -752.732 -0.618995 0.332326 0.612607 0.362101 
3821 2 -792.798 2835.91 -753.101 -0.623102 0.668704 0.267271 -0.305196 
3805 2 -693.134 2765.26 -675.893 -0.305394 -0.575331 0.607927 0.454041 
3804 2 -685.217 2759.84 -673.232 0.344532 -0.77862 0.00616472 0.524415 
3803 3 -733.425 2741.67 -666.785 -0.523357 0.264712 0.809451 0.0285156 
3833 2 -813.56 2839.08 -672.467 0.771431 -0.345334 0.449771 0.288694 
3826 2 -834.603 2854.7 -764.727 -0.239264 -0.464124 0.439907 0.730632 
3828 2 -852.687 2860.52 -760.854 -0.53265 0.472047 0.398533 -0.578469 
3827 2 -843.257 2859.36 -763.757 -0.808293 0.0295371 0.587906 0.0124819 
3830 3 -824.873 2862.28 -717.004 0.25708 0.231453 0.651561 0.675135 
3825 2 -825.347 2851.09 -763.772 0.305344 -0.695178 -0.0162348 0.65056 
3822 2 -799.851 2842.81 -753.714 -0.0635778 0.852661 -0.172691 -0.488983 
3824 2 -816.366 2847.16 -762.436 0.634494 -0.463797 -0.585832 0.197765 
3823 2 -806.968 2846.42 -759.563 0.520235 0.378892 -0.70328 -0.301983 
3834 2 -808.823 2846.75 -668.328 0.244075 0.0259671 0.50903 0.82501 
3262 1 -549.767 1894.1 -554.002 -0.727675 0.0118048 -0.210542 0.652703 
3261 2 -586.363 1868.96 -538.079 0.0479602 -0.703981 0.579332 0.408027 
3260 2 -580.713 1863.48 -532.018 0.358706 -0.878857 -0.239078 0.204405 
3263 3 -538.173 1881.57 -523.462 -0.714416 0.03283 -0.277625 0.641449 
3259 2 -576.934 1859.36 -524.036 0.266502 -0.243487 -0.920598 -0.148962 
3258 2 -573.363 1851.83 -518.678 -0.0924189 0.421493 -0.770264 -0.46957 
3267 2 -510.126 1912.64 -523.794 0.022917 -0.0604672 0.114068 0.991366 
3265 2 -508.034 1909.23 -542.821 0.971209 0.0380134 -0.159695 -0.172641 
3266 2 -510.253 1909.57 -533.114 0.714218 -0.120639 0.115585 0.679691 
3264 2 -505.074 1909.3 -552.318 0.623433 0.117561 -0.138141 -0.760545 
3268 2 -511.444 1914.45 -514.171 -0.659562 0.0315707 0.1158 0.742005 
3374 2 -657.274 2048.09 -565.656 -0.611908 0.20278 -0.393591 -0.65539 
3373 2 -658.968 2038.5 -568.054 -0.792015 0.605005 -0.0678218 0.0456224 
3372 2 -658.57 2029.4 -571.868 -0.602018 0.477229 0.368738 0.523316 
3375 2 -655.284 2055.62 -559.5 0.18049 -0.139101 -0.45747 -0.859532 
3370 1 -612.113 2036.91 -569.957 0.700546 -0.359291 0.0668477 0.612925 
3369 2 -572.638 2052.48 -549.337 0.142774 0.730138 -0.484163 0.460544 
3371 3 -624.073 2053.26 -541.48 0.651949 -0.358799 0.00102253 0.668001 
3368 2 -578.265 2058.46 -543.783 0.44725 0.843408 0.215751 0.205139 
3367 2 -580.409 2064.73 -536.364 0.246439 0.412038 0.839268 -0.25519 
3366 2 -584.604 2067.66 -527.894 0.152132 -0.370247 0.872448 -0.280371 
3392 2 -536.277 2072.25 -578.169 0.524291 0.749144 0.203844 0.349786 
3376 2 -653.517 2063.78 -554.477 0.902226 -0.31586 -0.0347742 -0.291567 
3365 2 -588.443 2068.59 -518.801 -0.00690565 -0.954654 0.25417 -0.154876 
3377 2 -651.49 2069.91 -546.895 0.758721 -0.216649 0.416284 0.451789 
3393 2 -529.349 2065.47 -580.098 0.198174 0.552432 -0.475249 0.655503 
3394 2 -524.131 2057.14 -580.514 -0.580145 -0.0498148 -0.742367 0.331422 
3395 2 -516.138 2051.29 -580.553 -0.789411 -0.469707 -0.272249 -0.286506 
3391 2 -545.047 2076.99 -577.211 0.674308 0.310066 0.667093 -0.064461 
3378 2 -646.762 2076.79 -541.679 0.235024 0.412929 0.458436 0.751059 
3397 1 -474.587 2057.78 -606.471 -0.725615 0.406167 0.493171 0.255528 
3396 2 -509.08 2045.5 -576.723 -0.185297 -0.489305 0.237394 -0.818468 
3390 2 -552.587 2082.75 -574.366 0.300469 -0.331143 0.709789 -0.5443 
3389 2 -558.307 2089.9 -570.435 -0.292448 -0.838403 0.10074 -0.448782 
3388 2 -563.942 2096.7 -566.365 -0.528506 -0.637786 -0.559766 0.0239404 
3383 2 -603.621 2099.59 -543.786 0.541402 -0.575366 0.564578 -0.238934 
3384 2 -594.883 2102.99 -547.033 0.476442 0.0472202 0.844167 0.241155 
3382 2 -612.727 2095.75 -543.905 0.155614 -0.683572 -0.10157 -0.705831 
3385 2 -586.955 2106.01 -552.212 0.262692 0.71302 0.426316 0.490764 
3379 2 -638.329 2081.57 -539.496 -0.462839 0.71157 -0.0978323 0.519497 
3381 2 -621.842 2092.3 -541.789 -0.385183 -0.305805 -0.728436 -0.476968 
3386 2 -577.853 2105.87 -556.068 -0.00956586 0.771084 -0.422717 0.476076 
3380 2 -629.926 2086.97 -539.927 -0.649233 0.423047 -0.631112 -0.0350144 
3387 2 -569.893 2102.57 -561.153 -0.285878 0.147043 -0.85434 0.408358 
3399 2 -448.125 2089.23 -629.621 0.535178 -0.0643179 -0.571166 -0.619045 
3398 3 -489.091 2088.3 -597.958 -0.733102 0.377819 0.493455 0.276254 
3400 2 -453.188 2097.06 -626.003 0.814505 -0.517027 -0.240291 0.107351 
3401 2 -458.234 2105.05 -622.947 0.429461 -0.474025 0.355502 0.681529 
3402 2 -461.345 2113.85 -619.465 -0.266096 0.0627227 0.491423 0.826899 
3403 2 -462.761 2122.38 -614.592 -0.862583 0.300757 0.228642 0.33648 
3404 2 -465.159 2129.1 -607.835 -0.830415 0.341983 -0.14208 -0.416259 
3405 2 -465.515 2134.69 -599.574 -0.275162 0.0531709 -0.219132 -0.93458 
3406 2 -464.697 2139.01 -590.773 0.647934 -0.035896 -0.20468 -0.732802 
3407 2 -466.932 2142.73 -581.874 0.996231 -0.0553872 0.0452203 -0.0491066 
3408 2 -466.825 2144.3 -572.018 0.767135 0.014708 0.158328 0.621466 
3409 2 -464.484 2146.06 -562.548 -0.180598 0.0126058 0.162468 0.969964 
3410 2 -464.254 2148.65 -552.937 -0.837215 0.141223 0.13595 0.510534 
3411 2 -465.187 2151.92 -543.609 -0.940111 0.193109 0.109991 -0.258461 
3412 2 -468.161 2155.2 -534.577 -0.203289 0.116274 -0.118057 -0.964995 
3413 2 -469.956 2158.04 -525.131 0.482999 -0.0831052 -0.122359 -0.863038 
3414 2 -469.291 2160.85 -515.76 0.973055 0.0334246 -0.0804991 -0.213466 
3612 2 -514.008 2354.86 -529.047 0.337025 -0.202808 -0.670695 0.62885 
3611 2 -506.785 2361.65 -529.447 0.725482 0.457627 -0.514029 0.00530328 
3610 2 -499.621 2367.87 -526.987 0.345925 0.781749 0.0470757 -0.516709 
3609 2 -493.533 2375.12 -523.982 -0.163224 0.402036 0.705094 -0.560863 
3608 2 -489.155 2382.25 -518.764 -0.426546 -0.29922 0.804944 -0.283886 
3613 1 -545.696 2384.61 -547.33 0.781338 -0.365759 0.505695 0.00166257 
3618 2 -535.857 2435.87 -569.032 -0.575543 0.314328 -0.743816 -0.129177 
3616 2 -551.98 2428.76 -560.691 0.142706 0.722102 0.401105 0.545269 
3615 2 -561.517 2427.42 -559.075 0.587021 0.221546 0.759543 0.171518 
3617 2 -542.959 2430.96 -564.235 -0.402781 0.841876 -0.228508 0.277121 
3619 2 -528.376 2440.96 -572.897 -0.21175 -0.326517 -0.680667 -0.620678 
3620 2 -521.394 2448.09 -573.787 0.149337 -0.725328 -0.164491 -0.651567 
3614 3 -519.002 2405.47 -539.28 0.779112 -0.398689 0.482862 0.0295846 
3621 2 -512.674 2452.6 -575.304 0.627366 -0.542515 0.415418 -0.37352 
3622 2 -503.322 2455.79 -575.26 0.720936 -0.206856 0.633784 0.189152 
3623 2 -495.107 2461.08 -574.181 0.330917 0.408425 0.572798 0.628956 
3624 2 -486.195 2465.54 -573.866 -0.182673 0.656973 0.233241 0.693264 
3625 2 -478.186 2471.33 -574.106 -0.635766 0.548942 -0.342654 0.420776 
3626 2 -469.758 2476.57 -572.912 -0.753853 0.102541 -0.522041 -0.38557 
3627 2 -462.735 2482 -568.748 -0.195128 -0.273343 -0.374087 -0.864446 
3628 2 -456.086 2487.25 -563.674 0.49161 -0.402467 -0.27093 -0.723144 
3629 2 -452.57 2494.27 -557.772 0.856286 -0.49586 0.144124 -0.011168 
3630 2 -449.598 2503.1 -554.197 0.657111 0.0264224 0.546949 0.518029 
3631 2 -442.744 2509.14 -550.504 0.0111781 0.46613 0.295386 0.833873 
3632 2 -435.18 2513.84 -546.457 -0.682467 0.630482 -0.000861801 0.369771 
3607 2 -486.002 2391.08 -515.469 -0.595147 -0.77411 0.21572 0.00430928 
3633 2 -429.521 2521.76 -544.538 -0.616453 0.450104 -0.567757 -0.308291 
3634 2 -425.556 2530.87 -544.775 -0.141611 -0.119237 -0.902711 -0.388384 
3774 2 -882.576 2687.8 -645.645 0.121054 -0.445365 -0.726187 0.509557 
3732 2 -757.824 2627.31 -579.214 -0.566252 0.584506 0.283145 0.507484 
3731 2 -761.501 2618.19 -578.674 0.0345379 0.208361 0.726327 0.654096 
3730 2 -765.099 2608.88 -578.106 0.5246 -0.298723 0.596202 0.529247 
3729 2 -768.759 2599.68 -577.838 0.685918 -0.702929 0.168427 -0.0839003 
3728 2 -772.078 2590.48 -576.089 0.386029 -0.617141 -0.399691 -0.557105 
3727 2 -778.279 2582.75 -575.537 -0.317837 -0.151873 -0.671711 -0.651705 
3723 2 -813.02 2565.7 -578.054 0.529137 0.175942 0.71043 0.429357 
3733 2 -754.407 2636.43 -577.286 -0.723564 0.559874 -0.4037 -0.00479559 
3734 2 -748.668 2644.68 -576.715 -0.444441 -0.056987 -0.641282 -0.622882 
3735 2 -741.986 2651.85 -574.768 0.327815 -0.562157 -0.353588 -0.671932 
3724 2 -804.086 2569.72 -578.742 0.102203 0.592522 0.209123 0.771194 
3725 2 -794.922 2572.6 -576.651 -0.583532 0.611885 -0.173055 0.505113 
3726 2 -786.628 2577.59 -574.756 -0.693019 0.275374 -0.662347 -0.0720387 
3722 3 -768.716 2553.95 -553.523 0.267377 -0.65394 0.586736 -0.395744 
3721 1 -798.196 2554.33 -534.679 0.236023 -0.616053 0.644366 -0.386735 
3713 2 -714.48 2555.66 -546.546 0.0797591 -0.462043 -0.286427 0.835532 
3736 2 -736.862 2660.36 -574.15 0.756927 -0.620969 0.0729123 -0.19011 
3712 2 -705.04 2558.72 -547.337 0.628453 -0.101721 -0.662942 0.393964 
3711 2 -697.208 2564.67 -548.474 0.726053 0.475374 -0.487357 -0.0966935 
3710 2 -687.947 2567.58 -550.046 0.303692 0.649147 -0.0283151 -0.696834 
3709 2 -679.065 2571.18 -552.9 -0.432101 0.361219 0.436511 -0.701618 
3737 2 -733.213 2669.54 -572.693 0.660552 -0.296134 0.594172 0.350621 
3738 2 -728.14 2678.02 -571.214 0.1134 0.245727 0.499062 0.823223 
3739 2 -722.936 2685.69 -567.743 -0.613976 0.514453 0.0840245 0.592715 
3708 2 -670.979 2574.45 -557.589 -0.840592 -0.162702 0.501129 -0.12571 
3714 2 -721.754 2551.66 -541.214 -0.702656 -0.36257 0.284985 0.541849 
3715 2 -729.047 2549.07 -534.861 -0.891416 0.0181358 0.377907 -0.249471 
3716 2 -736.102 2547.89 -527.99 -0.44687 0.356494 0.273452 -0.773591 
3717 2 -743.625 2546.76 -521.754 0.473299 0.415214 0.0151706 -0.77676 
3718 2 -750.313 2543.3 -515.324 0.932259 0.103983 -0.301453 -0.1709 
3707 2 -663.121 2579.67 -560.769 -0.553375 -0.588851 0.121373 0.576454 
3706 2 -656.004 2585.22 -564.764 0.126072 -0.409099 -0.39519 0.812754 
3705 2 -648.204 2589.09 -569.543 0.747725 -0.00108398 -0.490093 0.448012 
3696 2 -620.003 2637.3 -631.924 0.43216 0.437809 -0.0707405 -0.785212 
3704 2 -640.046 2594.26 -571.889 0.75125 0.488676 -0.408307 -0.173511 
3703 2 -635.439 2600.55 -577.954 0.430974 0.351932 0.225035 -0.799852 
3702 2 -631.677 2606.12 -585.453 -0.343891 0.0388813 0.299381 -0.889156 
3697 2 -626.361 2634.69 -624.828 0.949819 0.189035 -0.107607 -0.224788 
3698 2 -629.419 2631.11 -616.012 0.703576 0.237634 -0.299869 0.598823 
3699 2 -630.551 2624.88 -608.286 -0.0461092 0.0888603 -0.320043 0.942099 
3700 2 -629.707 2619.37 -600.108 -0.695219 -0.302051 -0.236337 0.607931 
3701 2 -630.951 2612.59 -592.852 -0.907485 -0.296365 0.0838918 -0.28566 
3695 3 -612.458 2659.54 -585.798 0.262589 0.0438488 -0.329008 0.906023 
3682 2 -560.173 2627.09 -520.825 -0.530812 0.814368 0.124351 -0.19895 
3683 2 -563.781 2635.24 -525.255 -0.14549 0.578208 -0.689172 -0.411765 
3684 2 -566.874 2642.16 -531.704 0.404218 -0.292977 -0.826873 -0.258945 
3685 2 -571.808 2648.92 -536.588 0.304002 -0.95034 -0.0424939 -0.0512875 
3694 1 -608.397 2679.42 -614.222 0.297584 0.0530059 -0.284161 0.909883 
3686 2 -572.519 2654.69 -544.468 0.205988 -0.545498 0.641873 0.497996 
3687 2 -574.205 2663.13 -549.529 -0.173588 0.284726 0.85702 0.392828 
3688 2 -575.606 2670.77 -555.67 -0.467878 0.799476 0.374436 0.0415537 
3689 2 -577.659 2678.2 -561.614 -0.354411 0.82929 -0.247464 -0.354164 
3690 2 -581.851 2686.17 -565.899 0.139298 0.324734 -0.818328 -0.453301 
3681 2 -554.816 2621.22 -514.847 -0.448904 0.405641 0.782004 0.149703 
3635 2 -422.303 2538.34 -550.529 0.290403 -0.729633 -0.483929 -0.386154 
3636 2 -418.964 2545.92 -555.905 0.306026 -0.889284 0.328649 -0.0866655 
3637 2 -415.575 2551.39 -563.484 0.321256 -0.144226 0.910272 0.217713 
3638 2 -410.343 2556.34 -570.338 -0.0223512 0.668386 0.567539 0.480271 
3649 2 -483.226 2589.68 -514.079 -0.923177 -0.133709 0.042952 0.3578 
3648 2 -482.656 2590.54 -523.947 -0.239723 -0.0644053 -0.0289111 0.968271 
3647 2 -483.039 2592.18 -533.739 0.710514 0.0640516 -0.0268468 0.700247 
3646 2 -483.96 2593.47 -543.521 0.99438 0.0255816 0.0357857 -0.0962968 
3645 2 -485.036 2596.24 -552.933 0.588668 0.0338016 0.211586 -0.779461 
3644 2 -483.775 2599.78 -562.037 -0.165393 0.0283335 0.231228 -0.958319 
3643 2 -484.409 2604.46 -570.776 -0.887212 -0.309376 0.075736 -0.333776 
3642 2 -482.781 2609.66 -579.003 -0.816387 -0.279767 -0.03764 0.503812 
3641 3 -454.494 2568.84 -563.798 -0.819291 -0.25146 0.376742 -0.351562 
3640 1 -439.096 2592.81 -584.272 -0.824116 -0.248317 0.400577 -0.314182 
3639 2 -404.223 2562.14 -575.679 -0.422927 0.849926 -0.198257 0.243828 
3773 2 -876.322 2694.2 -641.362 0.493829 0.285369 -0.78356 0.246439 
3775 1 -920.884 2714.6 -639.063 0.813673 -0.16414 0.492883 0.260883 
3777 2 -943.322 2753.35 -624.296 0.47996 0.046345 0.628063 0.61076 
3778 2 -937.538 2761.03 -622.051 -0.0992805 0.558765 0.430954 0.701573 
3787 2 -854.896 2772.44 -616.789 -0.645665 -0.00175859 -0.760786 0.065709 
3786 2 -864.335 2775.03 -618.134 -0.381907 0.414301 -0.526131 0.636937 
3785 2 -873.325 2778.25 -620.829 0.255216 0.618111 0.070378 0.74017 
3772 2 -870.69 2700.11 -635.649 0.421301 0.819034 -0.35542 -0.159264 
3771 2 -864.854 2702.26 -627.957 0.0415553 0.896349 0.326067 -0.29751 
3770 2 -859.481 2705.39 -620.416 -0.201064 0.480274 0.792287 -0.318106 
3769 2 -856.255 2708.13 -611.43 -0.201997 -0.2121 0.946858 -0.132928 
3768 2 -851.983 2709.57 -602.728 -0.118778 -0.85094 0.490402 0.145942 
3776 3 -895.081 2733.87 -625.436 0.804927 -0.153976 0.525974 0.227455 
3784 2 -883.189 2778.58 -622.735 0.719846 0.291864 0.520169 0.355052 
3767 2 -848.986 2713.78 -594.29 -0.114515 -0.832354 -0.502182 0.20466 
3766 2 -845.028 2718.71 -586.742 0.149163 -0.118018 -0.947258 0.257925 
3765 2 -838.206 2722.23 -580.582 0.419635 0.563664 -0.70999 -0.0458626 
3764 2 -830.223 2725.45 -575.854 0.157799 0.867332 -0.0690759 -0.466972 
3779 2 -929.894 2767.38 -621.95 -0.498925 0.731665 -0.162944 0.434959 
3780 2 -921.569 2772.74 -622.949 -0.658366 0.180088 -0.72961 -0.0423327 
3783 2 -893.031 2779.27 -624.661 0.721333 -0.15805 0.58034 -0.343372 
3781 2 -911.997 2775.21 -624.033 -0.328815 -0.481566 -0.587657 -0.560923 
3782 2 -902.726 2778.17 -625.891 0.253481 -0.624109 0.0885317 -0.733756 
3788 2 -845.114 2771.3 -618.131 -0.605671 -0.478145 -0.498681 -0.394787 
3789 2 -835.576 2769.33 -618.223 -0.125631 -0.803435 0.0714903 -0.57758 
3914 2 -854.813 2804.22 -573.727 -0.0147349 0.435569 0.33623 0.834872 
3913 2 -858.187 2798.65 -581.187 0.653493 -0.0491911 0.356215 0.666061 
3790 2 -826.418 2767.22 -621.065 0.383158 -0.44647 0.706699 -0.392977 
3912 2 -863.363 2793.7 -588.084 0.89208 -0.29218 0.344709 0.000383985 
3915 2 -848.584 2810.89 -569.806 -0.734563 0.323727 -0.154044 0.576097 
3916 2 -842.144 2813.44 -562.896 -0.92043 0.112028 -0.301643 -0.22197 
3917 2 -837.595 2817.16 -554.841 -0.398434 -0.415353 -0.283058 -0.767209 
3918 2 -829.347 2819.68 -550.076 0.309291 -0.296964 0.0501464 -0.902018 
3910 1 -883.126 2831.09 -609.088 -0.141335 -0.46948 -0.279653 -0.825473 
3763 2 -823.16 2729.5 -570.154 -0.177203 0.597012 0.67992 -0.387148 
3919 2 -822.982 2820.21 -542.457 0.960182 -0.0621918 0.111363 -0.248557 
3920 2 -819.907 2820.21 -533.101 0.67863 -0.0407739 0.303641 0.667534 
3791 2 -817.3 2765.37 -624.598 0.501615 0.333874 0.786564 -0.135007 
3762 2 -816.08 2735.26 -566.748 -0.541902 -0.255975 0.762429 -0.243969 
3740 2 -718.228 2693.12 -563.084 -0.803297 0.449289 -0.365424 -0.138991 
3921 2 -815.463 2824.29 -525.172 -0.205418 0.313876 0.176949 0.909931 
3922 2 -810.872 2826.96 -516.871 -0.816684 0.140299 -0.351484 0.435664 
3792 2 -809.675 2760.8 -629.105 0.546552 0.732771 0.223837 0.337971 
3761 2 -807.803 2738.14 -562.245 -0.383426 -0.753288 0.412139 0.340122 
3760 2 -799.7 2738.67 -556.535 0.170741 -0.789051 -0.354826 0.471534 
3793 2 -801.602 2755.17 -631.176 0.0260176 0.570354 -0.539448 0.618882 
3759 2 -792.014 2739.8 -550.444 0.420045 -0.115126 -0.891323 0.125906 
3758 2 -785.106 2742.71 -543.936 0.312533 0.762917 -0.519072 -0.225487 
3802 1 -707.715 2726.98 -647.951 -0.516809 0.269917 0.812315 -0.014088 
3794 2 -794.815 2748.44 -634.029 -0.504605 -0.175847 -0.782203 0.320329 
3795 2 -788.471 2741.36 -636.602 -0.604239 -0.681238 -0.330188 -0.248566 
3796 2 -780.912 2735 -637.683 -0.23539 -0.571436 0.208519 -0.758005 
3797 2 -774.011 2728.18 -635.944 0.340557 -0.104982 0.663821 -0.657526 
3741 2 -713.219 2701.17 -559.973 -0.430867 0.00183081 -0.65733 -0.618278 
3742 2 -707.455 2709.05 -558.926 0.251097 -0.627681 -0.570149 -0.466793 
3743 2 -703.753 2717.27 -562.826 0.490737 -0.808666 0.133753 -0.295545 
3798 2 -768.402 2720.11 -634.441 0.571508 0.570381 0.588793 -0.0369781 
3799 2 -762.005 2713.39 -637.659 0.254735 0.711534 -0.0158953 0.654658 
3800 2 -752.675 2710.11 -637.92 -0.380102 0.18687 -0.511396 0.747714 
3744 2 -697.777 2724.64 -565.757 0.535722 -0.438673 0.648784 0.315668 
3745 2 -694.138 2733.5 -568.329 0.0631886 0.396176 0.656107 0.639199 
3801 2 -746.296 2704.04 -633.286 -0.840577 -0.311987 -0.435047 0.082638 
3749 3 -726.879 2763.94 -553.085 -0.435073 -0.558691 0.687456 0.161186 
3746 2 -688.104 2741.24 -569.858 -0.433445 0.712065 -0.0030357 0.55234 
3747 2 -680.476 2747.48 -569.769 -0.711043 0.430123 -0.556145 -0.0106997 
3748 1 -698.84 2771.67 -533.662 -0.39726 -0.586987 0.678995 0.191302 
3757 2 -778.707 2747.7 -538.413 0.0509465 0.783971 0.41605 -0.457925 
3756 2 -771.409 2752.4 -533.581 -0.336668 0.280772 0.821988 -0.363534 
3755 2 -765.824 2759.19 -528.676 -0.504856 -0.571531 0.641299 -0.0849022 
3754 2 -760.904 2767.27 -525.558 -0.529875 -0.804251 0.0235587 0.268062 
3753 2 -755.58 2774.87 -521.958 -0.126409 -0.531514 -0.606514 0.577628 
3752 2 -748.461 2780.29 -517.684 0.416268 -0.018799 -0.837171 0.354278 
3691 2 -587.514 2692.94 -570.425 0.478923 -0.442604 -0.705849 -0.276607 
3692 2 -591.746 2701.4 -573.331 0.389353 -0.898612 -0.104665 0.173047 
3693 2 -595.66 2708.3 -579.194 0.156948 -0.654159 0.617279 0.407934 
3882 2 -1001.49 2940.21 -588.253 0.268072 -0.914327 -0.0839913 0.291701 
3881 2 -995.435 2935.69 -581.779 0.437145 -0.500717 -0.746331 -0.0343113 
3880 2 -990.44 2929.13 -576.132 0.16659 0.241303 -0.817604 -0.495525 
3879 2 -984.924 2925.25 -568.943 -0.139892 0.90149 -0.21293 -0.349868 
3878 2 -979.702 2920.21 -562.038 -0.361789 0.66484 0.652654 -0.0337483 
3883 1 -996.219 2983.76 -570.803 0.785622 0.182946 0.559657 -0.190035 
3877 2 -972.981 2914.64 -557.394 -0.363701 -0.210351 0.821834 0.38479 
3911 3 -852.406 2843.53 -597.725 -0.158311 -0.483119 -0.305214 -0.80522 
3884 3 -967.985 2966.92 -558.702 0.799034 0.228165 0.526861 -0.178616 
3876 2 -965.644 2909.94 -552.745 0.0757502 -0.811718 0.310931 0.488567 
3875 2 -959.295 2904.66 -547.148 0.398054 -0.79226 -0.388679 0.250611 
3902 2 -869.735 2919.83 -579.699 -0.467241 -0.818034 -0.327679 -0.0716437 
3901 2 -867.202 2929.13 -577.784 -0.165881 -0.354597 -0.659063 0.642168 
3900 2 -865.418 2938.15 -574.151 0.269692 0.308314 -0.763763 0.498874 
3899 2 -867.278 2946.74 -569.369 0.461648 0.826343 -0.210438 0.244449 
3898 2 -871.435 2955.77 -569.146 0.62462 0.416738 0.581446 -0.313209 
3897 2 -878.134 2963.23 -569.904 0.278441 -0.276591 0.627206 -0.672742 
3903 2 -866.23 2912.35 -585.308 -0.291864 -0.817056 0.4109 -0.279991 
3904 2 -863.119 2905.57 -591.854 -0.057779 -0.0694726 0.885981 -0.454833 
3905 2 -863.384 2898.22 -598.364 0.288507 0.694268 0.396614 -0.526737 
3906 2 -867.53 2889.99 -602.072 0.502531 0.802965 -0.312058 -0.0729968 
3907 2 -871.467 2882.38 -607.131 0.361457 0.0133454 -0.910133 0.202061 
3908 2 -877.816 2879.08 -613.895 0.169305 -0.693331 -0.572085 0.404162 
3909 2 -885.249 2877.01 -619.967 -0.184388 -0.901495 0.0833925 0.382563 
3896 2 -885.106 2970.07 -571.768 -0.370156 -0.60589 0.166957 -0.684111 
3895 2 -892.332 2976.92 -572.498 -0.724134 -0.520831 -0.441688 -0.0963117 
3874 2 -951.677 2899.38 -543.508 0.536986 -0.300012 -0.780503 -0.111598 
3873 2 -943.282 2898.35 -538.406 0.343333 0.515479 -0.716611 -0.320737 
3872 2 -933.991 2895.39 -536.554 -0.132869 0.78719 -0.0491073 -0.600222 
3894 2 -901.027 2981.19 -570.181 -0.541748 -0.00450299 -0.791032 0.284179 
3871 2 -924.684 2893.28 -534.065 -0.514282 0.573464 0.543129 -0.334162 
3869 2 -905.671 2893.72 -537.881 -0.43792 -0.586226 0.222847 0.644131 
3870 2 -915.225 2891.23 -536.018 -0.759965 0.030543 0.64166 0.0989622 
3868 2 -896.224 2895.12 -540.328 0.278162 -0.555348 -0.273986 0.734266 
3867 2 -888.895 2901.76 -541.502 0.630998 0.108924 -0.663925 0.386238 
3866 2 -882.014 2908.77 -542.533 0.705096 0.612992 -0.324842 -0.146828 
3862 2 -846.491 2922.28 -537.097 -0.468402 -0.728032 0.179069 0.467444 
3861 2 -838.107 2924.23 -532.163 0.164403 -0.740171 -0.450536 0.471312 
3863 2 -855.474 2918.2 -538.521 -0.549302 -0.324509 0.768659 0.0460901 
3864 2 -864.23 2915.9 -542.406 -0.524813 0.410563 0.615005 -0.421638 
3865 2 -873.945 2914.31 -543.536 0.176436 0.658549 0.220415 -0.697567 
3893 2 -910.766 2983.08 -569.727 -0.244114 0.596602 -0.391763 0.656504 
3892 2 -918.72 2988.32 -566.691 0.415013 0.783536 0.199379 0.417233 
3860 2 -830.863 2926.06 -525.836 0.377685 -0.192182 -0.889635 0.170205 
3859 2 -826.358 2929.38 -517.721 0.251421 0.598146 -0.760431 -0.0274539 
3891 2 -927.425 2992.97 -565.182 0.647267 0.184613 0.730593 -0.114881 
3835 2 -805.74 2854.58 -663.186 -0.451455 0.304786 0.304612 0.781348 
3836 2 -803.248 2862.38 -657.54 -0.787743 0.57661 0.0260948 0.215175 
3837 2 -801.211 2871.33 -654.058 -0.869231 0.27924 -0.275297 -0.301123 
3838 2 -798.942 2878.2 -647.292 -0.31707 0.0968109 -0.482157 -0.810937 
3847 2 -798.985 2959.77 -620.365 0.880893 -0.442105 -0.157868 -0.0604067 
3846 2 -799.227 2950.89 -624.872 0.518945 -0.375303 -0.399498 -0.65593 
3845 2 -797.284 2943.2 -630.645 -0.063994 0.151905 -0.414213 -0.89513 
3848 2 -800.958 2967.41 -614.472 0.770743 -0.291983 0.135343 0.549894 
3849 2 -803.346 2972.92 -606.525 -0.000606407 0.0124234 0.130063 0.991428 
3850 2 -803.6 2975.84 -597.211 -0.731261 0.207651 0.149351 0.632323 
3851 2 -803.943 2980.64 -588.571 -0.952588 0.282178 -0.0371645 -0.107565 
3844 2 -796.412 2933.94 -634.092 -0.74609 0.552043 -0.183271 -0.324053 
3852 2 -804.426 2985.9 -580.152 -0.45918 0.250353 -0.317281 -0.791081 
3843 2 -795.614 2924.15 -634.997 -0.65184 0.56675 0.368132 0.344061 
3839 2 -796.827 2886.07 -641.588 0.413503 -0.422583 -0.502342 -0.630944 
3840 2 -795.529 2895.83 -640.592 0.720582 -0.682 -0.11995 -0.0353635 
3841 2 -796.738 2905.74 -640.281 0.451963 -0.479464 0.466499 0.590103 
3842 2 -798.458 2915.43 -639.032 -0.0658651 0.262324 0.48111 0.833895 
3857 3 -813.777 2956.37 -555.591 -0.243549 -0.956724 -0.140866 0.0743024 
3856 1 -813.309 2975.62 -526.292 -0.233293 -0.968395 -0.0744212 0.04741 
3853 2 -805.534 2992.92 -573.296 0.374642 -0.190492 -0.453727 -0.785804 
3885 2 -974.306 3016.46 -544.881 0.562126 0.695004 0.365801 0.259178 
3890 2 -933.761 3000.02 -562.162 0.175035 -0.373761 0.714125 -0.565412 
3889 2 -942.231 3003.58 -558.422 -0.140281 -0.829464 0.12372 -0.526312 
3888 2 -949.987 3009.81 -556.913 -0.669358 -0.500225 -0.549205 0.0103986 
3886 2 -966.255 3011.11 -546.673 -0.170041 0.847686 -0.142631 0.481841 
3887 2 -957.721 3012.29 -551.498 -0.396445 0.199358 -0.869047 0.218733 
3854 2 -805.989 3001.24 -567.966 0.861807 -0.350889 -0.0522875 -0.362534 
3855 2 -804.795 3007.33 -560.244 0.852402 -0.284794 0.237039 0.368939 
2427 2 -85.9972 642.074 -392.183 0.695626 0.125967 -0.391122 -0.589288 
2428 2 -92.5445 645.827 -385.846 0.897212 -0.263962 -0.335225 0.113838 
2429 2 -99.2752 649.237 -379.497 0.235322 -0.301474 -0.0281645 0.923549 
2430 2 -104.301 650.514 -371.005 -0.606006 -0.270119 0.0219758 0.74787 
2431 2 -108.369 646.661 -362.858 -0.950204 -0.292547 0.103328 -0.0292047 
2425 1 -49.9874 624.379 -367.412 -0.792958 0.0302686 0.448114 -0.411698 
2839 2 -263.835 1006.87 -365.156 -0.0356501 0.481854 -0.872046 0.0779862 
2840 2 -262.394 1006.39 -375.03 -0.0485587 -0.261989 -0.933488 -0.240009 
2841 2 -259.93 1010.22 -383.888 0.314925 -0.853257 -0.362866 -0.202737 
2842 2 -258.063 1016.5 -391.273 0.315252 -0.816209 0.462198 0.144195 
2852 2 -233.316 1079.06 -461.194 -0.36812 0.811483 0.437794 0.119663 
2850 2 -237.004 1063.79 -449.24 0.229693 -0.289433 0.855585 0.362552 
2851 2 -235.424 1071.51 -455.262 -0.163057 0.429494 0.772343 0.438674 
2849 2 -240.763 1058.61 -441.668 0.341228 -0.847423 0.399866 -0.0744692 
2848 2 -244.115 1053.24 -434.036 0.199263 -0.875176 -0.371382 -0.237563 
2853 2 -234.601 1085.77 -468.359 -0.230549 0.852925 -0.438738 -0.163937 
2847 2 -245.72 1047.42 -426.25 -0.00964677 -0.215247 -0.920236 -0.326713 
2846 2 -247.905 1041.88 -418.295 -0.30846 0.582695 -0.736181 -0.152826 
2845 2 -248.58 1036.29 -410.197 -0.329628 0.939961 0.0614632 0.0635659 
2844 2 -252.587 1030.28 -403.429 0.000165906 0.618093 0.692227 0.372537 
2843 2 -257.558 1023.65 -398.04 0.325713 -0.132076 0.863467 0.361791 
2858 3 -260.911 1113.74 -443.246 0.873574 0.435172 -0.0258279 0.216393 
2854 2 -234.915 1091.67 -476.211 0.0769768 0.101149 -0.941875 -0.310991 
2855 2 -237.309 1097.22 -484.14 0.428511 -0.678377 -0.567995 -0.183206 
2856 2 -239.224 1105.23 -489.729 0.429392 -0.888684 0.0758414 0.141818 
2867 2 -270.324 1103.19 -380.402 0.647821 0.506617 0.22112 0.524189 
2865 2 -273.474 1114.56 -395.462 0.324985 0.128361 0.284977 -0.892578 
2866 2 -274.15 1107.68 -388.325 0.878925 0.148901 0.298461 -0.340941 
2868 2 -261.88 1099.08 -377.195 -0.106076 0.542376 -0.0253759 0.833026 
2864 2 -276.458 1123.33 -398.847 -0.418806 -0.402904 0.367215 -0.726239 
2857 1 -264.151 1138.7 -467.677 0.892072 0.430144 -0.0101131 0.138136 
2863 2 -277.253 1130.21 -406.015 -0.928026 -0.350009 -0.0197374 -0.125983 
2862 2 -275.91 1137.91 -412.076 -0.576537 -0.375516 -0.260929 0.677133 
2869 2 -252.962 1098.92 -372.88 -0.57017 0.406067 -0.494592 0.515164 
2870 2 -243.485 1098.62 -370.159 -0.794832 -0.0645041 -0.602908 -0.0241446 
2861 2 -280.32 1144.68 -417.8 -0.113732 0.232429 -0.379544 0.88825 
2871 2 -234.047 1097.75 -367.446 -0.482584 -0.487337 -0.281571 -0.671068 
2860 2 -285.647 1149.56 -424.457 0.573732 0.39579 -0.0789951 0.7127 
2859 2 -289.396 1155.58 -431.579 0.941029 0.297806 0.158237 -0.0271485 
2872 2 -224.667 1096.01 -364.803 0.165247 -0.392881 0.268426 -0.863878 
2992 1 -375.588 1306.26 -369.947 0.361324 -0.731041 0.152159 -0.558454 
2994 2 -363.608 1289.7 -412.443 0.692637 0.0654891 0.657896 0.288338 
2995 2 -354.336 1292.38 -410.303 0.194215 0.592204 0.345259 0.701692 
2920 2 -297.653 1250.86 -399.169 -0.15209 -0.506833 -0.261818 0.807118 
2921 2 -304.618 1244.84 -395.567 -0.735253 -0.498511 0.127924 0.44105 
2919 2 -293.128 1258.75 -403.023 0.348057 0.00756423 -0.546279 0.761826 
2918 2 -287.159 1266.49 -404.776 0.738815 0.444979 -0.489443 0.12881 
2912 3 -253.749 1267.45 -384.137 -0.460532 -0.179123 0.724238 -0.48094 
2917 2 -280.611 1273.83 -403.815 0.504881 0.730833 0.0522762 -0.45634 
2916 2 -274.551 1281.65 -404.383 -0.0582797 0.432499 0.488928 -0.755313 
2911 1 -236.798 1297.45 -378.087 -0.565933 -0.251813 0.656179 -0.430974 
2922 2 -311.157 1238.99 -390.976 -0.857078 -0.0838311 0.46335 -0.209038 
2923 2 -318.306 1234.48 -385.905 -0.281761 0.296645 0.349942 -0.842706 
2915 2 -271.05 1290.65 -406.744 -0.558961 -0.272928 0.531025 -0.5754 
2996 2 -344.774 1294.7 -409.941 -0.435592 0.660218 -0.227724 0.567903 
2914 2 -272.105 1300.51 -407.246 -0.680925 -0.72646 0.0503021 -0.0778854 
2902 2 -219.759 1202.83 -385.581 -0.739458 0.43939 0.453707 0.232998 
2997 2 -335.702 1298.64 -409.977 -0.779605 0.200846 -0.592956 -0.0167521 
2913 2 -272.407 1310.41 -406.284 -0.517081 -0.478894 -0.521159 0.481332 
2903 2 -224.117 1211.43 -383.928 -0.781856 0.407669 -0.158153 -0.444403 
2998 2 -326.817 1302.69 -408.074 -0.431943 -0.315203 -0.607732 -0.587141 
2904 2 -226.268 1219.84 -379.195 -0.0445939 0.154808 -0.502139 -0.849648 
2905 2 -228.936 1228.5 -375.106 0.657427 -0.215705 -0.268587 -0.670166 
2999 2 -318.347 1307.35 -406.715 0.140233 -0.647428 -0.231123 -0.712569 
2906 2 -229.377 1235 -367.702 0.907551 -0.408038 0.099218 -0.00349151 
2924 2 -325.544 1230.89 -380.111 0.632817 0.224872 -0.0392473 -0.739888 
2925 2 -330.025 1229.57 -371.325 0.935759 -0.18393 -0.290648 0.0777695 
3000 2 -309.671 1312.02 -405.971 0.781546 -0.468454 0.269152 -0.31192 
2926 2 -334.806 1232.1 -363.077 0.391403 -0.381575 0.0349908 0.836648 
2901 2 -213.454 1195.32 -383.603 -0.268325 -0.107365 0.75252 0.591766 
2907 2 -227.337 1242.81 -361.97 0.533168 -0.00228943 0.517596 0.669194 
2900 2 -208.449 1187.71 -379.817 0.223526 -0.708616 0.411332 0.527926 
2897 2 -198.379 1166.06 -367.021 0.0555169 0.605417 -0.738137 -0.292476 