ITEM: TIMESTEP
100000000
ITEM: NUMBER OF ATOMS
4067
ITEM: BOX BOUNDS pp pp pp
-4.6310929470000001e+03 4.6704658980000004e+03
-4.6310929470000001e+03 4.6704658980000004e+03
-4.6310929470000001e+03 4.6704658980000004e+03
ITEM: ATOMS id type x y z c_q[1] c_q[2] c_q[3] c_q[4] 
3715 2 -526.953 2484.01 -696.833 -0.11098 0.952469 0.25175 0.1308 
3716 2 -524.541 2486.99 -705.999 -0.196942 0.874316 -0.424505 0.128767 
3717 2 -521.726 2489.92 -714.96 -0.0773862 0.0974784 -0.973645 -0.191115 
3714 2 -527.655 2483.1 -687.026 0.00448216 0.46784 0.883032 0.0368935 
3713 2 -529.511 2483.3 -677.367 -0.00132201 -0.388932 0.919162 -0.0622285 
3712 2 -527.5 2484.79 -667.691 -0.11943 -0.877907 0.462376 0.0349859 
3718 2 -520.332 2493.38 -724.019 0.235442 -0.666421 -0.659983 -0.2547 
3719 2 -520.022 2500.02 -731.415 0.344768 -0.92951 0.0846038 -0.0999413 
3720 2 -517.495 2505.86 -739.06 0.281082 -0.502428 0.798384 0.17647 
3722 3 -505.948 2522.15 -691.272 0.861372 0.329793 -0.0841528 -0.377085 
3721 1 -491.178 2538.97 -718.135 0.793206 0.3771 -0.0965324 -0.468297 
3723 2 -475.092 2562.55 -680.572 0.451363 0.533391 -0.00658973 -0.715348 
3724 2 -482.353 2557.92 -675.471 0.867561 0.313837 -0.385623 0.01184 
3725 2 -488.137 2552.08 -670.317 0.408759 -0.201502 -0.54152 0.706448 
3726 2 -495.775 2546.81 -666.976 -0.295181 -0.585442 -0.089289 0.749769 
3780 2 -809.25 2779.64 -682.518 -0.994847 -0.0383844 -0.0926773 0.0147464 
3779 2 -809.479 2782.4 -691.988 -0.667837 -0.0486446 -0.136275 0.730107 
3778 2 -810.302 2788.57 -699.689 0.166449 0.141913 -0.328111 0.918966 
3777 2 -810.555 2791.21 -709.291 0.926904 0.17679 -0.0373117 0.32894 
3775 1 -765.07 2802.29 -715.3 -0.757944 -0.159523 0.137155 -0.617464 
3776 3 -766.361 2791.88 -681.905 -0.742241 -0.0583979 0.124677 -0.655838 
3774 2 -720.058 2804.94 -701.369 0.391678 -0.795438 -0.427653 -0.17601 
3773 2 -719.293 2796.88 -695.748 0.107806 -0.127862 -0.885284 -0.433938 
3772 2 -721.206 2788.28 -691.207 -0.389961 0.545245 -0.672608 -0.313427 
3771 2 -722.437 2779.87 -685.884 -0.476292 0.875458 -0.0781298 -0.0247987 
3770 2 -719.034 2771.75 -681.176 -0.489416 0.617218 0.586188 0.189466 
3769 2 -715.152 2762.66 -680.935 -0.234657 -0.064239 0.696817 0.674726 
3768 2 -709.805 2754.76 -677.95 0.269325 -0.687641 0.43037 0.519033 
3767 2 -702.904 2749.46 -673.434 0.50128 -0.748046 -0.370529 0.227714 
3781 2 -808.152 2779.31 -672.723 -0.686086 -0.149814 0.00345122 -0.71192 
3766 2 -696.965 2743.76 -667.97 0.441568 -0.114924 -0.862318 -0.219585 
2667 2 -153.729 819.867 -519.43 -0.0716557 0.187523 -0.879475 0.431537 
3233 2 -419.918 1757.96 -579.008 -0.375785 0.621296 0.595046 -0.344525 
3230 2 -399.042 1754.83 -558.239 0.0888307 -0.907988 -0.248379 0.325536 
3232 2 -412.351 1756.75 -572.736 -0.447752 -0.0349748 0.893007 0.0288692 
3231 2 -405.9 1755.64 -565.194 -0.167469 -0.790961 0.497341 0.314621 
3229 2 -393.927 1754.76 -549.867 0.278115 -0.316535 -0.8994 0.116353 
3234 2 -428.586 1758.4 -583.834 0.0392221 0.85648 -0.0954636 -0.505758 
3228 2 -388.893 1754.14 -541.379 0.194332 0.479096 -0.844253 -0.141207 
3227 2 -382.257 1752.71 -534.359 0.0121827 0.902393 -0.199946 -0.381523 
3226 2 -376.94 1748.93 -526.867 -0.325154 0.689508 0.63082 -0.144639 
3225 2 -372.446 1743.66 -519.75 -0.216514 -0.0977608 0.916887 0.320754 
3235 1 -453.857 1790.56 -560.281 0.862072 0.205155 0.403455 0.227961 
3236 3 -425.941 1785.6 -539.887 0.859856 0.178103 0.422103 0.225291 
3237 2 -462.748 1818.74 -523.493 -0.878297 -0.337807 -0.322898 0.101079 
3238 2 -457.341 1812.21 -518.286 -0.652188 -0.303488 0.0199985 -0.694367 
3693 2 -536.918 2369.88 -546.469 -0.123739 0.151713 0.0277572 -0.980256 
3692 2 -533.537 2370.78 -555.678 -0.841336 0.0339474 0.158981 -0.515486 
3691 2 -532.403 2372.87 -565.281 -0.885647 -0.133385 -0.0637165 0.440203 
3690 2 -530.763 2377.1 -574.113 0.0166643 -0.0916413 -0.213579 0.972475 
3689 2 -527.657 2379.27 -583.412 0.830591 -0.0260447 -0.159141 0.533024 
3688 2 -521.411 2379.8 -591.033 0.900471 0.124687 -0.248458 -0.334475 
3687 2 -515.013 2377.92 -598.111 0.321718 0.268193 -0.209693 -0.883515 
3673 2 -396.887 2353.16 -614.362 0.102834 0.815246 -0.298883 -0.485251 
3674 2 -405.519 2354.33 -619.044 0.521525 0.126102 -0.732869 -0.418346 
3675 2 -414.188 2358.91 -620.587 0.652809 -0.467259 -0.547316 0.236547 
3676 2 -422.617 2364.03 -621.192 0.326999 -0.746796 0.00102295 0.579108 
3671 2 -381.931 2356.74 -602.406 -0.418509 0.268653 0.833555 -0.240543 
3672 2 -390.264 2354.58 -607.068 -0.0741533 0.83495 0.376676 -0.394303 
3677 2 -431.429 2368.32 -622.891 -0.166778 -0.473253 0.600439 0.622647 
3678 2 -439.891 2373.48 -624.589 -0.519403 0.179822 0.826348 0.12261 
3679 2 -447.857 2378.29 -627.947 -0.243157 0.758025 0.15807 -0.584197 
3680 2 -457.386 2379.72 -630.175 0.312236 0.624229 -0.346633 -0.626652 
3681 2 -467.203 2380.7 -630.068 0.68371 0.0883028 -0.680375 -0.248663 
3683 2 -485.244 2382.65 -623.785 0.0437731 -0.421528 -0.0947851 0.900785 
3686 2 -507.076 2377.76 -604.179 -0.467711 0.360034 0.235244 -0.772193 
3670 2 -374.28 2355.06 -596.527 -0.278102 -0.531087 0.714898 0.359898 
3669 2 -364.829 2353.84 -593.499 0.013219 -0.833112 0.0790399 0.547269 
3684 2 -492.504 2380.94 -617.262 -0.740089 -0.278587 0.297804 0.534762 
3685 2 -499.74 2379.53 -610.724 -0.896665 -0.0302955 0.419497 -0.138191 
3667 1 -356.807 2382 -556.473 -0.358413 0.809111 0.380346 -0.268731 
3694 1 -525.673 2411.97 -528.327 -0.221083 -0.0407023 -0.974357 0.0096478 
3711 2 -523.394 2482.37 -659.041 0.217629 -0.846326 -0.471726 0.117667 
3710 2 -518.473 2478.71 -651.351 0.240865 -0.0220474 -0.957167 -0.159152 
3682 2 -476.462 2383.3 -628.235 0.670357 -0.309966 -0.420233 0.527206 
3695 3 -511.73 2413.13 -560.516 -0.164197 -0.130735 -0.973261 -0.0933269 
3709 2 -512.583 2475.2 -644.158 0.0705154 0.65437 -0.648101 -0.383136 
3708 2 -506.176 2471.89 -637.343 -0.206433 0.926065 0.139369 -0.283489 
3707 2 -499.252 2468.91 -630.765 -0.411604 0.372052 0.831224 -0.0349985 
3704 2 -488.375 2462.21 -605.354 0.0653566 -0.935513 -0.343541 0.0502299 
3705 2 -490.161 2462.17 -614.987 0.107488 -0.860508 0.460742 0.188915 
3703 2 -489.246 2462.93 -595.607 -0.102436 -0.441654 -0.8894 0.058449 
3706 2 -493.367 2465.61 -623.665 -0.19739 -0.428797 0.830658 0.295259 
3702 2 -492.922 2463.39 -586.304 -0.140527 0.499374 -0.850614 0.0856426 
3701 2 -494.51 2463.97 -576.657 0.0507268 0.996248 -0.0600204 0.0362597 
3668 3 -383.103 2398.18 -573.347 -0.412978 0.766627 0.415842 -0.262313 
3700 2 -498.01 2462.08 -567.513 0.0436357 0.531729 0.833476 0.143801 
3699 2 -501.975 2458.81 -559.064 0.280616 -0.189761 0.939408 0.0525212 
3665 2 -371.655 2424.7 -535.518 -0.438299 0.236909 -0.456402 0.737201 
3664 2 -378.41 2426.43 -542.69 0.141588 0.382233 -0.00954985 0.913104 
3663 2 -387.228 2428.05 -546.799 0.775339 0.292236 0.43327 0.354577 
3662 2 -396.789 2427.69 -549.228 0.744528 -0.204678 0.57921 -0.261346 
3661 2 -405.227 2422.31 -549.324 0.39331 -0.74061 0.0931135 -0.536781 
3659 2 -421.695 2412.19 -545.948 -0.480589 0.0361799 -0.829827 -0.28127 
3658 2 -430.601 2409.18 -542.867 -0.566717 0.563636 -0.559311 0.219811 
3657 2 -439.01 2406.65 -538.527 -0.0552688 0.831417 0.128878 0.537663 
3656 2 -447.824 2404.7 -534.178 0.409331 0.357587 0.759063 0.358334 
3660 2 -413.275 2416.54 -548.904 -0.145952 -0.539975 -0.476736 -0.678121 
3698 2 -504.755 2456.59 -549.812 0.196032 -0.896614 0.377747 -0.122319 
3697 2 -506.238 2454.34 -540.371 0.0749365 -0.888635 -0.429578 -0.142043 
3696 2 -507.326 2455.36 -530.625 -0.0271288 -0.374139 -0.925518 0.0519691 
3655 2 -455.584 2402.08 -528.602 0.446168 -0.402129 0.797458 -0.0573384 
3654 2 -460.298 2400.86 -519.924 0.10962 -0.936329 0.268012 -0.198596 
3666 2 -364.622 2420.34 -530.163 -0.835576 -0.192793 -0.496078 0.136197 
3756 2 -671.194 2688 -597.004 -0.351396 0.543269 0.762173 0.0217148 
3755 2 -668.11 2685.22 -587.896 -0.1018 -0.291181 0.933228 0.184214 
3733 2 -551.479 2567.96 -655.496 0.205527 -0.591462 0.10662 0.772375 
3734 2 -559.989 2572.32 -652.768 -0.474684 0.0847717 0.595628 0.64243 
3735 2 -565.689 2580.25 -650.729 -0.845231 0.390655 0.344039 0.120868 
3736 2 -570.223 2587.85 -646.339 -0.613728 0.649415 0.027504 -0.448153 
3737 2 -575.182 2596.32 -645.229 -0.0893133 0.368954 -0.524383 -0.762181 
3738 2 -579.712 2604.75 -642.056 0.557509 -0.201455 -0.547538 -0.590594 
3741 2 -590.54 2630.51 -631.454 -0.154493 -0.0363008 0.492044 0.855983 
3740 2 -587.089 2621.73 -635.034 0.539402 -0.575983 0.242679 0.564265 
3739 2 -583.6 2613.16 -638.407 0.826002 -0.479539 -0.274918 -0.110375 
3742 2 -592.35 2638.57 -625.991 -0.74893 0.444517 0.11112 0.478707 
3743 2 -590.107 2646.36 -620.191 -0.733708 0.394843 -0.446144 -0.326692 
3744 2 -586.808 2655.16 -616.933 -0.264033 -0.00298045 -0.587328 -0.765064 
3745 2 -583.544 2663.83 -613.678 0.261752 -0.459275 -0.402896 -0.747146 
3746 2 -578.948 2672.1 -610.618 0.738676 -0.534853 0.185453 -0.36592 
3749 3 -622.322 2688.01 -596.52 -0.16671 -0.712662 0.581155 0.35578 
3747 2 -572.398 2678.22 -606.308 0.782079 -0.211768 0.516464 0.277078 
3732 2 -544.213 2561.95 -658.608 0.74158 -0.529277 -0.199351 0.360811 
3731 2 -537.824 2554.62 -660.439 0.700126 -0.277098 -0.600503 -0.269139 
3748 1 -601.042 2682.8 -569.126 -0.225399 -0.761366 0.536946 0.284966 
3752 2 -655.357 2682.19 -561.989 0.28768 -0.148561 -0.942627 -0.0813869 
3730 2 -530.821 2547.67 -661.188 0.235435 0.340226 -0.58 -0.701724 
3729 2 -522.315 2542.86 -660.284 -0.369377 0.723756 -0.024884 -0.582339 
3753 2 -660.354 2683.87 -570.46 0.0527007 -0.823586 -0.52079 0.21842 
3751 2 -649.324 2683.58 -554.283 0.294578 0.740927 -0.56224 -0.219402 
3754 2 -664.435 2682.18 -579.244 0.0651567 -0.915057 0.339302 0.208082 
3727 2 -503.421 2541.41 -663.763 -0.703105 -0.378101 0.483173 0.35948 
3728 2 -512.98 2539.84 -661.493 -0.77572 0.331746 0.518294 -0.139908 
3797 2 -890.132 2754.42 -559.759 0.672227 -0.0445283 -0.44976 0.586383 
3798 2 -896.043 2749.14 -553.794 -0.0640693 -0.291942 -0.220983 0.928349 
3799 2 -901.326 2744.53 -546.763 -0.780108 -0.327082 0.17905 0.502385 
3803 3 -863.062 2749.64 -532.169 0.0915963 -0.432558 -0.682594 -0.581867 
3796 2 -885.155 2758.62 -567.235 0.93812 0.227089 -0.211189 -0.154144 
3795 2 -881.198 2763.76 -574.69 0.496629 0.373736 0.123309 -0.773612 
3794 2 -877.61 2768.81 -582.343 -0.431128 0.0292125 0.256052 -0.864704 
3793 2 -875.481 2773.28 -590.787 -0.942935 -0.236115 0.110133 -0.207351 
3791 2 -859.707 2778.65 -601.155 0.168265 -0.47547 -0.292468 0.812452 
3792 2 -868.084 2774.85 -597.428 -0.534045 -0.40576 0.252319 0.697488 
3790 2 -851.002 2780.25 -605.55 0.75133 -0.0945384 -0.544424 0.360789 
3789 2 -842.726 2779.93 -610.988 0.74828 0.232033 -0.37745 -0.49373 
3788 2 -833.471 2777.99 -613.699 -0.103836 0.588369 -0.0566701 -0.799893 
3787 2 -824.328 2779 -617.83 -0.673686 0.291469 0.474163 -0.486171 
3800 2 -908.355 2741.26 -540.648 -0.868871 -0.102285 0.341303 -0.343675 
3801 2 -913.553 2737.46 -533.279 -0.141441 0.276283 0.227434 -0.923004 
3802 1 -873.197 2720.35 -515.976 0.102943 -0.489859 -0.679123 -0.536873 
3810 2 -842.994 2774.8 -515.284 -0.481078 0.532421 -0.251102 -0.649646 
3809 2 -839.62 2765.7 -517.368 -0.788399 0.590331 0.136737 -0.106013 
3808 2 -837.02 2756.14 -517.141 -0.487263 0.386461 0.622644 0.474907 
3807 2 -833.642 2746.91 -517.931 0.0517407 -0.313721 0.635275 0.703796 
3806 2 -828.795 2738.51 -517.035 0.503057 -0.700816 0.241803 0.44421 
3805 2 -826.423 2729.28 -514.359 0.567571 -0.640108 -0.467777 -0.222059 
3786 2 -818.237 2780.22 -625.612 -0.755522 -0.215744 0.238708 0.570666 
3765 2 -692.835 2735.77 -663.664 -0.137518 0.577308 -0.606449 -0.529172 
3764 2 -692.107 2727.54 -658.3 -0.440222 0.895333 -0.0648099 -0.01958 
3757 2 -676.712 2691.5 -604.357 -0.264793 0.941664 0.0871319 -0.188577 
3758 2 -680.998 2696 -612.089 0.0790217 0.607199 -0.687915 -0.389663 
3759 2 -687.079 2699.55 -619.035 0.161975 -0.176412 -0.951638 -0.192427 
3785 2 -815.411 2780.54 -635.062 0.0344023 -0.142601 -0.00125646 0.989181 
3784 2 -811.48 2780.5 -644.012 0.77499 -0.126666 -0.218543 0.579298 
3783 2 -809.973 2779.05 -653.674 0.92599 -0.0764188 -0.0957106 -0.357132 
3782 2 -806.874 2777.98 -663.06 0.217096 0.132309 -0.107124 -0.961191 
3763 2 -690.155 2719.88 -652.519 -0.308779 0.571038 0.713669 0.263148 
3762 2 -690.489 2714.02 -644.624 0.114027 -0.278743 0.912031 0.278386 
3761 2 -690.587 2708.29 -636.491 0.269237 -0.907128 0.304986 0.107763 
3760 2 -689.763 2703.44 -627.841 0.216123 -0.852781 -0.465079 -0.0987773 
3905 2 -667.605 2834.07 -556.039 -0.796055 -0.409498 -0.445477 -0.0125764 
3750 2 -643.189 2689.3 -548.824 0.270383 0.863707 0.122805 -0.407212 
3906 2 -659.799 2828.39 -553.863 -0.587919 -0.494069 0.070964 -0.636562 
3907 2 -654.355 2821.67 -549.185 0.0627008 -0.184997 0.416102 -0.88809 
3908 2 -650.176 2814.54 -544.25 0.790111 0.164671 0.485454 -0.33607 
3909 2 -643.294 2808.76 -540.074 0.746796 0.493404 0.195767 0.400654 
3883 1 -832.308 2936.46 -554.394 0.81766 0.439525 0.329166 -0.172913 
3879 2 -849.838 2885.88 -574.19 0.420053 -0.821623 0.276869 0.268019 
3880 2 -851.907 2894.52 -578.567 0.218792 -0.139616 0.867412 0.42454 
3881 2 -849.82 2901.63 -585.249 -0.111532 0.536503 0.668873 0.502328 
3882 2 -846.146 2909.33 -590.453 -0.410649 0.877686 -0.0152058 0.246584 
3878 2 -846.849 2878.45 -568.448 0.440716 -0.744248 -0.491974 -0.0991249 
3877 2 -843.612 2871.67 -562.107 0.272921 -0.158227 -0.850707 -0.420447 
3875 2 -835.947 2860.19 -548.431 -0.291322 0.909627 0.145931 -0.257711 
3876 2 -840.956 2864.28 -556.016 -0.15283 0.585891 -0.649367 -0.460105 
3874 2 -832.26 2855.74 -540.341 -0.213166 0.481926 0.842852 0.10912 
3873 2 -829.125 2852.02 -531.691 -0.0110466 -0.506562 0.831027 0.229492 
3872 2 -825.314 2849.53 -522.888 0.096701 -0.973931 0.0937049 0.182558 
3884 3 -821.759 2904.53 -544.707 0.789451 0.482503 0.326813 -0.192749 
3904 2 -673.717 2841.43 -558.496 -0.471001 0.0277562 -0.672733 0.569928 
3903 2 -680.854 2847.86 -560.083 0.138049 0.566454 -0.301691 0.754358 
3902 2 -688.787 2853.54 -561.256 0.696208 0.560828 0.300123 0.332706 
3901 2 -695.619 2860.37 -563.256 0.701325 0.202307 0.590569 -0.344156 
3898 2 -718.762 2875.78 -554.818 -0.541518 -0.29284 -0.755195 0.22513 
3900 2 -704.701 2864.15 -561.588 0.130147 -0.63545 0.402011 -0.64626 
3899 2 -712.331 2868.86 -557.625 -0.441729 -0.789818 -0.308145 -0.293444 
3930 2 -696.756 2963.55 -597.423 -0.210887 -0.889945 -0.21731 0.341028 
3931 2 -701.652 2958.41 -604.364 -0.3655 -0.655979 0.643141 0.149902 
3932 2 -708.487 2956.44 -611.187 -0.322443 0.235966 0.883946 -0.242878 
3933 2 -716.003 2953.36 -616.982 0.0172529 0.809471 0.353256 -0.468689 
3934 2 -723.177 2949.16 -622.049 0.362125 0.812344 -0.389286 -0.239623 
3935 2 -729.998 2945.2 -628.158 0.462905 0.202614 -0.860745 -0.0615218 
3938 3 -746.588 2968.97 -589.018 -0.623452 0.00366361 -0.604192 -0.496232 
3937 1 -770.939 2946.42 -600.195 -0.65284 0.00821506 -0.552784 -0.517844 
3936 2 -737.985 2944.6 -633.883 0.364244 -0.486019 -0.743877 0.278852 
3929 2 -694.875 2963.95 -587.766 0.132546 -0.411935 -0.894016 0.116088 
3939 2 -789.091 2962.51 -559.716 0.440907 0.525547 0.191731 0.701884 
3940 2 -779.855 2960.9 -556.311 -0.315336 0.507931 -0.196098 0.777248 
3941 2 -770.809 2959.95 -552.436 -0.823405 0.0698587 -0.434237 0.358555 
3944 2 -747.929 2957.94 -535.156 0.682228 -0.406364 0.132035 -0.593295 
3942 2 -763.575 2957.54 -546.151 -0.850612 -0.147978 -0.243212 -0.442051 
3943 2 -757.099 2956.98 -538.65 -0.0739167 -0.540323 -0.0756231 -0.834787 
3928 2 -694.185 2959.24 -579.039 -0.122248 0.443971 -0.861209 -0.215094 
3925 2 -693.102 2942 -555.035 0.0155466 0.0885541 0.933882 0.346093 
3945 2 -741.663 2960.99 -528.227 0.876197 0.0151053 0.481099 0.0243769 
3946 2 -733.225 2961.62 -523.114 0.50538 0.325914 0.420876 0.679143 
3924 2 -695.256 2936.57 -547.04 0.236136 -0.724418 0.639836 0.100343 
3923 2 -695.946 2930.33 -539.268 0.308106 -0.933871 -0.151804 -0.0995501 
3926 2 -692.177 2947.98 -563.06 -0.264674 0.688471 0.65841 0.14984 
3927 2 -693.074 2953.65 -570.982 -0.320703 0.942648 -0.0920741 -0.00927653 
3897 2 -724.258 2883.65 -552.681 -0.159776 0.299406 -0.715568 0.610565 
3922 2 -690.58 2926.49 -532.016 0.381703 -0.358442 -0.848314 -0.0786467 
3896 2 -730.803 2890.38 -549.744 0.323998 0.799069 -0.127763 0.490093 
3895 2 -738.078 2895.23 -545.114 0.519266 0.588807 0.613437 0.0858153 
3894 2 -744.244 2902.48 -542.042 0.39415 0.0136799 0.833808 -0.386294 
3893 2 -750.897 2909.67 -540.12 -0.0734013 -0.531656 0.57032 -0.621844 
3892 2 -757.687 2915.05 -535.289 -0.386948 -0.839535 -0.158892 -0.346705 
3891 2 -766.547 2917.99 -532.079 -0.591369 -0.2648 -0.759925 0.0517439 
3890 2 -776.261 2919.74 -531.604 -0.484295 0.398879 -0.566329 0.534439 
3947 2 -724.689 2964.23 -518.636 -0.353438 0.564474 0.138336 0.733017 
3921 2 -683.228 2921.65 -527.418 0.311744 0.378908 -0.732974 -0.471162 
3889 2 -785.319 2922.51 -528.798 0.0931903 0.796404 -0.172614 0.572066 
3888 2 -794.467 2924.58 -525.308 0.447345 0.665478 0.486808 0.346467 
3887 2 -801.89 2928.26 -519.941 0.43206 0.0356677 0.882024 -0.184624 
3886 2 -807.916 2934.81 -515.668 -0.141117 -0.717814 0.469772 -0.494108 
3920 2 -676.483 2914.91 -524.934 -0.255377 0.753869 -0.244455 -0.55381 
3948 2 -717.685 2970.48 -515.43 -0.710386 0.445402 -0.516891 0.172607 
3919 2 -671.85 2907.5 -520.122 -0.47638 0.754258 0.451419 0.0194114 
3949 2 -709.265 2975.72 -514.655 -0.586802 -0.151486 -0.584751 -0.539242 
3911 3 -662.246 2850.29 -515.537 -0.202674 -0.242346 0.842508 0.436317 
2506 1 -329.965 641.68 -415.793 0.630074 -0.188056 0.699937 0.278802 
2507 3 -301.59 662.268 -416.257 0.633085 -0.150943 0.725178 0.224802 
2504 2 -289.291 620.307 -431.902 0.366757 0.68942 0.191489 -0.594576 
2505 2 -296.011 613.006 -431.671 0.694651 0.566795 -0.435835 -0.0790621 
2503 2 -281.411 626.326 -430.841 -0.258164 0.333935 0.691706 -0.585988 
2502 2 -274.083 631.631 -427.168 -0.461703 -0.501446 0.731118 -0.0291446 
2501 2 -266.33 636.152 -422.893 -0.285776 -0.850395 0.00373752 0.441754 
2500 2 -259.176 642.586 -420.525 0.00799395 -0.528613 -0.596007 0.604383 
2499 2 -252.668 645.171 -413.58 0.345467 0.0251131 -0.93341 0.093636 
2498 2 -245.27 646.646 -407.143 0.32037 0.661324 -0.618186 -0.279033 
2497 2 -237.235 647.413 -401.384 0.0821148 0.887688 0.0155926 -0.452795 
2496 2 -230.875 646.36 -393.776 -0.322299 0.530319 0.770896 -0.143542 
2510 2 -329.122 692.753 -401.277 -0.409095 -0.277391 -0.670451 -0.553345 
2512 2 -310.994 699.91 -402.097 0.690884 -0.56329 0.390258 -0.230396 
2511 2 -320.619 697.462 -402.359 0.12089 -0.671879 -0.0788764 -0.726459 
2508 2 -346.139 683.088 -399.881 -0.523383 0.619073 -0.214926 0.544634 
2509 2 -337.36 687.478 -399.864 -0.663048 0.381743 -0.643883 -0.00734393 
2495 2 -226.21 644.633 -385.222 -0.168872 -0.38066 0.894883 0.160516 
2494 2 -219.297 642.797 -378.271 0.0579646 -0.909027 0.102327 0.399799 
2493 2 -212.092 640.344 -372.179 0.370932 -0.669709 -0.613241 0.194511 
2513 2 -302.649 705.195 -403.389 0.49779 0.0772057 0.789321 0.351024 
2461 2 -140.806 678.341 -417.255 0.680715 0.356912 0.170443 -0.616595 
2460 2 -137.608 687.239 -419.849 0.114399 0.310424 0.561828 -0.758221 
2462 2 -142.577 671.456 -410.157 0.91795 0.36333 -0.0867721 0.133526 
2463 2 -142.498 664.537 -403.159 0.472507 0.16917 -0.49869 0.706702 
2464 2 -144.356 656.018 -398.416 -0.0952491 -0.126399 -0.572587 0.804422 
2465 2 -145.466 647.086 -394.457 -0.749223 -0.553998 -0.226993 0.283239 
2466 2 -144.538 637.521 -391.758 -0.574042 -0.562711 0.343486 -0.485643 
2467 2 -142.528 627.998 -390.205 -0.123322 -0.101943 0.706312 -0.689581 
2468 2 -142.801 618.035 -389.787 0.528706 0.380525 0.38384 -0.654475 
2469 2 -143.104 608.856 -386.28 0.808577 0.580394 -0.0956714 0.0139013 
2470 2 -145.53 599.703 -383.659 0.552758 0.207809 -0.551982 0.588719 
2471 2 -149.538 591.341 -380.342 -0.106092 -0.197863 -0.387866 0.893954 
2472 2 -152.739 583.879 -374.714 -0.857501 -0.360033 -0.00608957 0.367466 
2473 2 -156.181 577.285 -368.352 -0.853575 -0.221689 0.141626 -0.449674 
2459 2 -135.708 696.858 -420.986 -0.462948 -0.282445 0.561267 -0.625206 
2492 2 -203.877 638.823 -366.713 0.40908 0.159014 -0.872048 -0.216564 
2514 2 -294.597 710.144 -406.322 0.143205 0.542927 0.35271 0.748544 
2515 2 -285.6 714.115 -405.28 -0.584182 0.584899 -0.235251 0.511156 
2516 2 -276.851 718.375 -403.714 -0.810817 0.266638 -0.520295 -0.0278216 
2517 2 -268.57 723.009 -400.691 -0.528743 -0.252802 -0.5035 -0.634831 
2518 2 -259.907 726.234 -397.133 0.293344 -0.558568 -0.177338 -0.755316 
2519 2 -252.687 731.733 -393.129 0.863498 -0.195765 0.401475 -0.234234 
2520 2 -244.481 732.996 -387.774 0.777413 0.070761 0.404936 0.476077 
2521 2 -236.956 735.603 -381.923 -0.0204133 0.261987 0.258663 0.929537 
2522 2 -231.988 740.631 -375.206 -0.6572 0.631636 0.00292527 0.411237 
2523 2 -226.512 748.787 -373.481 -0.847918 0.33577 -0.355652 -0.204465 
2524 2 -222.211 756.201 -368.655 -0.408441 0.00749595 -0.371564 -0.833702 
2682 2 -216.662 846.225 -372.058 0.849276 -0.306479 -0.429133 -0.0253905 
2683 2 -224.219 851.673 -368.64 0.394747 -0.620718 -0.183544 0.65207 
2684 2 -233.184 855.433 -367.151 -0.179273 -0.312145 0.436825 0.824385 
2451 2 -210.945 737.843 -376.509 0.104544 -0.957571 0.0684362 0.259703 
2525 2 -218.84 762.657 -361.916 0.33153 -0.447829 -0.212428 -0.802753 
2666 2 -157.354 827.005 -513.614 0.271167 0.812086 -0.393146 0.335293 
2681 2 -208.073 842.907 -375.624 0.628504 0.239699 -0.479071 -0.56393 
2680 2 -200.49 840.017 -381.374 0.128547 0.416529 -0.20303 -0.876789 
2458 2 -134.911 706.612 -420.493 -0.694377 -0.713781 0.0758393 -0.051043 
2679 2 -194.619 836.577 -388.639 -0.560365 0.415039 0.0504057 -0.714978 
2678 2 -189.185 834.352 -396.526 -0.932613 0.0418059 0.319201 0.163082 
2452 1 -179.344 741.484 -411.362 0.573723 -0.340379 0.249082 -0.702099 
2665 2 -160.135 835.579 -509.52 0.513961 0.707153 0.452974 -0.174911 
2457 2 -135.334 716.44 -420.354 -0.408479 -0.416671 -0.556405 0.59156 
2668 1 -148.246 793.745 -480.466 0.0180282 0.487974 -0.433451 -0.757415 
2456 2 -135.245 726.189 -422.002 0.23155 0.132051 -0.633911 0.726019 
2670 2 -158.191 781.704 -435.93 -0.00656682 0.0599305 0.589737 0.805342 
2677 2 -181.575 830.988 -401.773 -0.424917 -0.289147 0.384469 0.766826 
2676 2 -178.101 827.2 -410.274 0.509946 -0.196602 0.0503945 0.835921 
2455 2 -135.305 735.51 -425.495 0.79227 0.48595 -0.216465 0.298836 
2669 3 -175.608 814.032 -472.595 0.0252896 0.470608 -0.33591 -0.815508 
2454 2 -135.397 745.027 -428.265 0.737178 0.498213 0.284733 -0.356763 
2675 2 -172.043 821.695 -415.997 0.881712 -0.322807 -0.32963 0.0986131 
2671 2 -157.035 791.127 -432.916 -0.698063 0.396766 0.42035 0.422601 
2674 2 -165.582 817.29 -421.946 0.615027 0.0364977 -0.428423 -0.660956 
2673 2 -162.868 808.926 -426.631 -0.150482 0.282974 -0.430748 -0.843645 
2672 2 -159.493 800.056 -429.691 -0.701804 0.566032 -0.104095 -0.419813 
2453 3 -159.362 740.125 -382.548 0.530889 -0.28721 0.221684 -0.765848 
2664 2 -158.815 844.065 -504.576 0.0733212 0.17334 0.830437 -0.524358 
2663 2 -161.065 852.729 -500.151 -0.21477 -0.513595 0.641933 -0.527273 
2450 2 -205.431 736.143 -368.477 0.271043 -0.58792 -0.755434 0.10102 
2638 2 -254.498 900.967 -404.459 0.588334 -0.594963 -0.220429 0.501291 
2639 2 -263.308 905.362 -403.237 -0.0570274 -0.664719 0.363634 0.650129 
2637 2 -246.772 895.528 -401.336 0.557145 -0.244347 -0.759844 -0.229175 
2640 2 -272.361 909.007 -404.382 -0.488215 -0.244738 0.72022 0.427822 
2636 2 -237.95 893.656 -397.251 0.292814 0.640367 -0.549166 -0.450118 
2635 2 -229.069 894.08 -393.093 -0.154177 0.779744 0.220784 -0.565228 
2642 3 -228.74 937.279 -401.103 0.638754 0.126209 0.739746 -0.169828 
2641 1 -259.374 954.125 -400.205 0.638867 0.0993419 0.734415 -0.206434 
2634 2 -220.71 894.129 -387.776 -0.430422 0.291634 0.821693 -0.233466 
2645 2 -216.481 984.435 -411.672 0.395829 0.853293 0.322743 0.105103 
2644 2 -221.712 987.286 -403.882 0.307536 0.134808 0.937618 -0.0901192 
2633 2 -213.074 892.245 -381.71 -0.367967 -0.426264 0.773054 0.29204 
2646 2 -212.368 978.456 -418.357 0.24314 0.796762 -0.420203 0.359837 
2643 2 -227.762 988.923 -396.092 0.168123 -0.726062 0.583573 -0.322507 
2649 2 -209.581 955.119 -435.102 -0.467827 -0.763261 0.289642 -0.338642 
2685 2 -240.243 861.457 -363.994 -0.654711 0.25934 0.589788 0.395281 
2686 2 -245.444 869.664 -362.095 -0.703492 0.650322 0.204151 -0.201256 
2687 2 -250.792 878.079 -361.945 -0.257486 0.5735 -0.245535 -0.73791 
2647 2 -208.357 971.232 -423.915 -0.0780743 -0.0465622 -0.917734 0.386654 
2648 2 -208.138 963.747 -430.501 -0.463659 -0.759369 -0.330663 0.314708 
2650 2 -206.458 946.109 -437.797 -0.0815252 -0.268554 0.856311 -0.433549 
2662 2 -163.499 859.768 -493.415 -0.391132 -0.892111 -0.215556 -0.0684761 
2632 2 -205.487 892.899 -375.4 -0.0945196 -0.886486 0.180308 0.415569 
2631 2 -203.377 893.03 -365.763 0.0686103 -0.805801 -0.583068 0.0775196 
2651 2 -205.018 938.164 -443.557 0.493529 0.387823 0.745585 -0.223888 
2652 2 -198.898 931.048 -447.088 0.496004 0.788342 0.0814918 0.354761 
2653 2 -192.826 923.704 -449.886 0.0087391 0.47663 -0.547569 0.687688 
2661 2 -163.41 867.387 -486.838 -0.19574 -0.369871 -0.830201 0.368304 
2654 2 -186.222 916.404 -450.841 -0.383529 -0.205247 -0.839859 0.324679 
2655 2 -181.082 909.835 -455.995 -0.506414 -0.77402 -0.35364 -0.139202 
2656 2 -175.36 903.281 -460.762 -0.254026 -0.764446 0.35159 -0.476946 
2657 2 -169.405 896.241 -464.512 0.259331 -0.110603 0.823704 -0.491962 
2659 2 -161.074 880.764 -472.871 0.42258 0.879378 -0.190345 0.109038 
2658 2 -163.676 888.702 -467.51 0.415731 0.618744 0.632169 -0.211391 
2660 2 -161.154 873.007 -478.974 0.205257 0.467346 -0.840208 0.183055 
2799 2 -296.339 1196.28 -363.247 -0.429546 -0.64096 -0.289559 0.566406 
2800 2 -301.216 1187.68 -362.916 -0.886005 -0.278786 0.365056 0.0633067 
2947 2 -442.058 1440.73 -368.687 0.89528 0.431617 0.089226 0.0649527 
2946 2 -443.689 1447.4 -375.871 0.633819 0.195637 0.342913 -0.665139 
2945 2 -445.218 1454.28 -382.85 -0.251599 -0.154477 0.329632 -0.896759 
2944 2 -446.941 1463.72 -385.334 -0.742478 -0.651606 0.00372249 -0.15531 
2948 2 -440.549 1433.42 -362.041 0.629997 0.341234 -0.230558 0.658412 
2883 2 -345.49 1385.63 -403.223 0.184123 0.96887 0.126468 -0.106745 
2882 2 -343.88 1389.81 -394.344 0.0391516 0.41484 0.882928 -0.216361 
2881 2 -343.22 1391.23 -384.585 -0.0594314 -0.442808 0.892617 -0.0601997 
2880 2 -341.832 1393.26 -375.018 -0.133869 -0.974895 0.175004 0.032143 
2884 1 -353.807 1431.42 -410.858 -0.952446 0.0442935 -0.264282 0.145048 
2820 2 -272.823 1333.16 -371.197 0.0197996 -0.805981 -0.584003 -0.0945661 
2821 2 -271.569 1334.47 -380.91 0.0955196 -0.985792 0.129916 -0.0470285 
2822 2 -270.383 1336.21 -390.609 0.193333 -0.66789 0.693146 0.189983 
2823 2 -270.5 1340.74 -399.338 0.0277441 0.0586384 0.97253 0.223557 
2824 2 -269.198 1346.18 -407.699 -0.0343086 0.744703 0.640193 0.185457 
2825 2 -265.642 1349.53 -416.418 -0.30512 0.91554 -0.249981 0.0787249 
2826 2 -263.131 1353.83 -424.987 -0.230892 0.274077 -0.890212 -0.281235 
2827 2 -260.746 1359.02 -433.063 -0.000711906 -0.540704 -0.807511 -0.235722 
2885 3 -334.653 1431.5 -381.464 -0.957953 2.88755e-05 -0.274669 0.0829597 
2828 2 -258.141 1362.89 -441.848 0.064939 -0.986902 -0.112651 -0.0954865 
2829 2 -256.468 1364.63 -451.453 0.0805179 -0.832364 0.546842 -0.0406351 
2831 3 -222.775 1359.33 -412.335 0.477679 0.154147 -0.019614 -0.864683 
2830 1 -209.746 1363.89 -444.608 0.541184 0.199095 -0.0680995 -0.814152 
2879 2 -339.404 1398.26 -366.761 -0.0935701 -0.815809 -0.515839 0.244153 
2838 2 -199.253 1340.81 -371.78 0.00334132 0.143491 -0.0630078 -0.987638 
2834 2 -181.846 1347.5 -405.178 0.311221 -0.185734 -0.325061 0.873487 
2833 2 -175.527 1350.18 -412.365 0.900349 0.0913716 -0.382167 0.187004 
2835 2 -186.391 1342.98 -397.581 -0.488851 -0.318259 -0.0194507 0.812009 
2832 2 -171.119 1356.54 -418.412 0.676256 0.415142 0.00167941 -0.60855 
2836 2 -190.845 1339.35 -389.438 -0.962592 -0.0158647 0.217713 0.160518 
2837 2 -194.973 1339.22 -380.475 -0.826033 0.183891 0.092754 -0.524643 
2839 2 -202.598 1341.37 -362.36 0.81653 0.0928263 -0.110378 -0.558998 
2943 2 -447.915 1473.37 -387.034 -0.452948 -0.393676 -0.547851 0.582852 
3102 2 -490.524 1603.07 -385.728 -0.85803 0.142315 0.302521 0.389887 
3103 2 -494.214 1609.13 -378.747 -0.854782 0.29474 0.115701 -0.411206 
2942 2 -445.433 1482.99 -387.286 0.296355 0.0767505 -0.694397 0.651227 
2941 2 -444.979 1492.91 -386.769 0.621299 0.654258 -0.33134 0.275949 
2940 2 -446.748 1502.54 -386.212 0.649778 0.653846 0.31592 -0.224651 
3153 2 -421.529 1579.07 -436.034 -0.378667 -0.864953 0.278724 -0.175446 
3152 2 -423.709 1586.76 -430.283 -0.403362 -0.699623 -0.550518 0.211557 
3151 2 -426.142 1592.13 -422.182 -0.0867306 0.0830183 -0.943825 0.307862 
3150 2 -424.474 1598.24 -414.487 0.3272 0.819281 -0.461361 0.0941526 
3149 2 -420.941 1606.37 -410.141 0.327159 0.797628 0.344054 -0.372 
3154 1 -411.762 1610.66 -469.775 -0.87123 0.233292 -0.0823452 0.423971 
3148 2 -418.876 1615.22 -406.321 0.0204523 0.246352 0.795758 -0.552867 
3104 2 -498.337 1613.11 -370.653 -0.227905 0.277 -0.159203 -0.919774 
3105 2 -502.738 1616.26 -362.352 0.652126 -0.17985 -0.198488 -0.709216 
2891 2 -314.397 1470.67 -368.204 0.240448 0.32645 0.0964871 0.909013 
2890 2 -322.361 1472.14 -373.854 0.762518 0.324172 0.416549 0.37412 
2889 2 -329.873 1471.2 -380.198 0.864333 -0.180653 0.354944 -0.307095 
2887 2 -342.8 1475.81 -393.888 -0.535281 -0.42368 -0.103776 -0.723326 
2888 2 -335.636 1471.97 -388.263 0.245988 -0.243962 0.111345 -0.931437 
2886 2 -349.106 1477.39 -401.245 -0.9363 -0.114593 -0.331968 -0.00271438 
3315 2 -536.35 1755.46 -379.845 0.260086 -0.156835 -0.670687 0.67671 
3314 2 -531.165 1763.74 -380.288 0.678625 0.421831 -0.521786 0.298775 
3313 2 -525.09 1770.98 -383.218 0.692807 0.607495 -0.144241 -0.36078 
3224 2 -367.118 1739.64 -512.33 0.066391 -0.865201 0.364397 0.337987 
3147 2 -414.51 1623.05 -402.01 -0.515011 -0.461524 0.672848 -0.262744 