ITEM: TIMESTEP
100000000
ITEM: NUMBER OF ATOMS
4067
ITEM: BOX BOUNDS pp pp pp
-4.6310929470000001e+03 4.6704658980000004e+03
-4.6310929470000001e+03 4.6704658980000004e+03
-4.6310929470000001e+03 4.6704658980000004e+03
ITEM: ATOMS id type x y z c_q[1] c_q[2] c_q[3] c_q[4] 
3838 2 -667.548 2966.16 -760.208 0.0665788 0.0814332 -0.171352 0.979579 
3837 2 -671.527 2967.31 -769.054 0.711776 0.191284 0.0695215 0.672274 
3836 2 -679.007 2970.35 -774.744 0.876578 0.103323 0.449903 -0.136098 
3835 2 -686.32 2973.47 -780.563 0.299908 -0.402001 0.289585 -0.815225 
3834 2 -694.469 2976.3 -785.624 -0.366819 -0.491866 -0.113471 -0.781432 
3833 2 -701.923 2982.3 -788.661 -0.789143 -0.460433 -0.339265 -0.223952 
3832 2 -708.458 2989.08 -791.616 -0.586493 -0.0787533 -0.598031 0.54054 
3852 2 -668.896 2868.64 -670.097 0.0704011 0.12383 -0.366311 0.919525 
3851 2 -670.345 2875.84 -676.819 0.655041 0.374621 -0.190928 0.627795 
3850 2 -667.733 2882.75 -683.437 0.879889 0.385452 -0.0429032 -0.274556 
3822 2 -664.917 2989.15 -686.136 0.333235 -0.392638 -0.836785 -0.185959 
3839 2 -665.873 2962.74 -751.114 -0.763829 -0.13654 -0.0829603 0.625332 
3840 2 -665.244 2959.59 -741.732 -0.893781 -0.247695 0.12306 -0.353071 
3821 2 -659.717 2984.63 -678.907 0.106226 0.483438 -0.798845 -0.341834 
3847 2 -664.555 2907.97 -698.537 -0.854983 -0.467801 0.126472 -0.184857 
3848 2 -664.766 2899.73 -692.96 -0.41051 -0.0921598 0.480905 -0.769233 
3849 2 -666.082 2891.13 -688.417 0.385144 0.299984 0.454543 -0.745026 
3844 2 -666.292 2933 -712.975 0.722148 0.402051 -0.212273 0.521343 
3845 2 -664.636 2924.7 -707.692 -0.071186 0.129495 -0.499781 0.853453 
3842 2 -665.784 2947.54 -726.267 0.527993 0.29681 0.34182 -0.718531 
3843 2 -665.555 2939.92 -720.112 0.908047 0.389383 -0.0167213 -0.153465 
3841 2 -665.703 2954.4 -733.391 -0.128899 -0.0797382 0.383979 -0.910817 
3846 2 -662.11 2916.73 -702.315 -0.606858 -0.477379 -0.222428 0.595281 
3820 2 -654.328 2980.79 -671.576 -0.136135 0.941702 -0.065591 -0.300603 
3823 2 -669.712 2994.33 -693.212 0.294274 -0.859678 -0.266816 0.321193 
3831 2 -717.004 2993.95 -791.862 -0.0853377 0.564705 -0.415206 0.708117 
3829 1 -724.627 3005.07 -746.622 -0.312409 0.662888 -0.401609 0.549264 
3824 2 -677.025 2998.27 -698.614 -0.0304502 -0.707541 0.417116 0.569626 
3830 3 -689.827 3004.11 -748.864 -0.330481 0.618017 -0.341695 0.626164 
3825 2 -685.214 3002.88 -701.538 -0.601205 -0.104986 0.716509 0.337856 
3826 2 -694.396 3006.15 -700.893 -0.62085 0.555327 0.489693 -0.257599 
3827 2 -703.435 3010.24 -701.389 -0.139931 0.705334 -0.313282 -0.620305 
3828 2 -710.829 3016.55 -703.042 0.418663 0.151517 -0.738114 -0.506904 
3143 2 -250.96 1468.85 -518.084 0.428034 0.255552 0.325803 0.803326 
3142 2 -258.676 1472.06 -523.536 0.863095 0.126838 0.48378 -0.0702633 
3129 2 -346.885 1553.04 -533.714 0.543098 0.520893 -0.214133 0.622785 
3130 2 -343.124 1544.8 -529.787 -0.204075 0.238444 -0.564462 0.763466 
3131 2 -337.403 1536.82 -527.987 -0.641996 -0.383912 -0.561424 0.353916 
3132 2 -332.267 1528.44 -526.751 -0.745302 -0.610879 0.0708944 -0.257537 
3138 2 -292.893 1489.36 -517.381 -0.48949 0.124127 -0.782291 0.36471 
3133 2 -328.778 1519.6 -523.92 -0.300874 -0.480641 0.355963 -0.742798 
3134 2 -324.465 1511.14 -521.272 0.388471 -0.240915 0.577528 -0.676396 
3136 2 -310.343 1498.54 -515.371 0.370867 0.715195 0.220443 0.549871 
3135 2 -317.236 1504.66 -519.431 0.811059 0.323159 0.463706 -0.150755 
3139 2 -284.518 1484.7 -519.894 -0.509921 -0.587829 -0.596854 -0.195455 
3140 2 -276.383 1480.03 -523.398 -0.0779072 -0.719901 0.0872907 -0.684144 
3141 2 -266.759 1477.8 -524.529 0.42953 -0.268084 0.627713 -0.59128 
3137 2 -301.226 1494.73 -515.924 0.0011873 0.665607 -0.445607 0.598665 
3856 1 -708.945 2831.95 -635.455 0.580467 -0.267209 0.504137 0.58095 
3782 2 -515.329 2835.92 -613.496 -0.80504 0.329151 0.483788 0.0975663 
3781 2 -508.54 2830.83 -618.82 -0.435823 -0.194264 0.482016 0.734834 
3778 2 -490.448 2822.58 -640.447 0.732559 0.114227 -0.430873 -0.514449 
3777 2 -483.614 2818.77 -646.518 0.0239881 0.378539 -0.275308 -0.883367 
3779 2 -497.371 2824.8 -633.808 0.905552 -0.20374 -0.262499 0.263743 
3780 2 -503.313 2826.51 -626.073 0.397703 -0.316007 0.099336 0.855631 
3775 1 -450.524 2840.27 -620.648 -0.581891 0.635472 0.189599 -0.470777 
3858 2 -744.042 2841.08 -605.194 -0.0203007 -0.231241 -0.666929 -0.70804 
3859 2 -741.248 2850.67 -604.964 0.550624 -0.611318 -0.427185 -0.374989 
3857 3 -700.71 2863.39 -622.855 0.526094 -0.317402 0.468473 0.634834 
3860 2 -740.161 2860.42 -604.636 0.791528 -0.547247 0.231338 0.143134 
3861 2 -738.318 2870.03 -602.91 0.285294 -0.0923925 0.703033 0.644838 
3862 2 -736.537 2879.62 -602.1 -0.32649 0.393171 0.493516 0.703749 
3863 2 -733.373 2888.97 -600.824 -0.701557 0.643982 0.0223666 0.304311 
3864 2 -729.494 2897.76 -598.83 -0.637497 0.388294 -0.417589 -0.518117 
3866 2 -725.963 2916.19 -592.534 0.711156 -0.401499 -0.273278 -0.508306 
3865 2 -727.798 2906.97 -595.692 -0.0283256 -0.0331318 -0.593481 -0.803667 
3867 2 -725.078 2924.95 -587.902 0.813447 -0.427481 -0.0732179 0.387559 
3868 2 -729.336 2931.4 -581.551 0.425762 -0.145438 0.195278 0.871459 
3870 2 -731.195 2938.48 -563.103 -0.960183 0.271893 -0.00755286 0.0637553 
3869 2 -730.667 2935.39 -572.504 -0.469145 0.084899 0.137483 0.868213 
3871 2 -730.136 2943.35 -554.575 -0.748901 -0.0779717 -0.272694 -0.59892 
3872 2 -724.885 2946.16 -546.525 0.105731 -0.324839 -0.149158 -0.927929 
3873 2 -719.034 2948.85 -538.903 0.706394 -0.185423 0.250242 -0.635614 
3874 2 -713.069 2948.24 -531.048 0.93816 0.0135845 0.254183 0.234653 
3801 2 -671.321 2913.53 -579.763 -0.0425423 -0.417891 0.166598 0.892078 
3875 2 -708.39 2949.75 -522.5 0.344404 -0.0104766 0.167059 0.923779 
3891 2 -764.028 2981.7 -532.428 -0.826728 -0.484284 0.245252 -0.147789 
3892 2 -766.556 2973.07 -528.108 -0.376127 0.0520399 0.38571 -0.840861 
3893 2 -770.711 2966.62 -521.848 0.283845 0.347124 0.226796 -0.864581 
3890 2 -763.108 2991.12 -535.505 -0.653758 -0.534485 -0.251541 0.47292 
3853 2 -667.206 2862.24 -662.819 -0.509577 -0.459369 -0.360592 0.63189 
3854 2 -668.729 2852.99 -659.711 -0.721395 -0.668793 0.170728 -0.0561927 
3894 2 -774.477 2960.08 -515.547 0.886391 0.321867 -0.0388731 -0.330457 
3855 2 -669.885 2843.26 -659.405 -0.422626 -0.268188 0.62083 -0.603351 
3800 2 -663.937 2910.94 -585.636 0.726749 -0.347257 -0.24869 0.537962 
3783 2 -522.712 2842.02 -610.844 -0.614311 0.585137 0.0858712 -0.522362 
3819 2 -651.005 2981.66 -662.168 -0.111458 0.668009 0.724507 -0.128179 
3784 2 -529.865 2848.64 -608.851 0.1617 0.363246 -0.338678 -0.852762 
3818 2 -648.146 2983.54 -652.886 -0.145524 -0.161565 0.972085 -0.0881493 
3785 2 -537.298 2853.47 -604.564 0.736004 -0.148117 -0.534117 -0.38869 
3786 2 -544.629 2859.56 -601.751 0.644431 -0.580972 -0.331987 0.370086 
3817 2 -643.718 2982.28 -644.091 -0.0430677 -0.79103 0.573033 0.209882 
3816 2 -637.373 2979.43 -636.957 0.181533 -0.910786 -0.201525 0.311292 
3815 2 -629.224 2976.75 -631.801 0.4748 -0.250372 -0.84268 0.0420614 
3787 2 -553.177 2864.34 -600.732 0.0729764 -0.677549 0.271674 0.679555 
3788 2 -561.348 2869.94 -602.119 -0.335013 -0.332207 0.751108 0.461781 
3790 2 -578.429 2877.08 -608.851 -0.454851 0.721021 0.111221 -0.510753 
3789 2 -569.754 2873.52 -605.852 -0.619204 0.397758 0.672766 -0.0758974 
3796 2 -630.244 2901.22 -602.531 -0.736159 0.309819 0.373233 -0.471995 
3795 2 -620.758 2900.82 -605.552 -0.742623 -0.175798 0.593978 0.254553 
3797 2 -638.459 2903.16 -597.451 -0.0970552 0.550527 -0.0392105 -0.828229 
3799 2 -655.647 2907.91 -589.87 0.82773 -0.0718693 -0.540894 -0.130888 
3798 2 -647.29 2903.94 -593.354 0.452189 0.282574 -0.475508 -0.699692 
3794 2 -612.486 2896.17 -608.518 -0.0797413 -0.473752 0.415253 0.772506 
3793 2 -604.08 2891.79 -611.11 0.572861 -0.580586 -0.154464 0.557576 
3792 2 -595.064 2887.76 -610.714 0.679872 -0.212774 -0.701784 -3.59359e-05 
3803 3 -623.457 2933.27 -582.596 -0.170166 -0.385347 -0.897486 -0.130654 
3791 2 -586.798 2882.3 -610.02 0.207802 0.427912 -0.606431 -0.637143 
3802 1 -638.047 2930.39 -550.85 -0.136036 -0.400625 -0.901846 -0.0875679 
3805 2 -597.668 2955.89 -551.196 -0.0608069 0.516849 0.822652 0.228939 
3804 2 -597.043 2952.13 -542.031 0.0638867 -0.383324 0.910718 0.139907 
3806 2 -595.728 2959.87 -560.022 -0.213712 0.965403 0.124053 0.0832755 
3807 2 -594.287 2964.51 -568.642 -0.092911 0.581418 -0.807954 -0.0230436 
3809 2 -595.001 2966.71 -588.11 0.0774229 -0.956057 -0.202022 0.197857 
3808 2 -593.655 2966.36 -578.3 0.0850065 -0.280335 -0.955964 0.0178817 
3810 2 -598.119 2966.62 -597.406 -0.00424833 -0.824221 0.527805 0.205094 
3811 2 -602.029 2966.94 -606.562 -0.240411 -0.228606 0.935808 0.119184 
3812 2 -606.208 2967.88 -615.559 -0.353814 0.54118 0.741681 -0.178465 
3813 2 -613.676 2969.72 -621.937 -0.160105 0.843283 -0.0683012 -0.508504 
3814 2 -621.311 2973.23 -627.176 0.300727 0.479786 -0.709538 -0.419433 
3764 2 -500.245 2861.8 -522.156 -0.249731 -0.216622 -0.927059 -0.176837 
3765 2 -494.941 2864.09 -530.109 0.119637 -0.878305 -0.41827 -0.198289 
3776 3 -478.575 2860.53 -616.023 -0.644612 0.578341 0.213203 -0.452263 
3767 2 -485.263 2869.55 -545.682 0.452862 -0.0555024 0.875975 0.156537 
3768 2 -477.482 2873.04 -550.741 0.1558 0.771771 0.487633 0.377239 
3766 2 -492.029 2867.17 -538.826 0.31611 -0.776092 0.484599 -0.250838 
3769 2 -469.635 2873.87 -556.653 -0.137001 0.777894 -0.437018 0.430264 
3774 2 -435.303 2873.07 -590.296 0.498108 0.0347808 0.865302 -0.0439587 
3770 2 -461.755 2871.91 -562.239 -0.305278 0.302664 -0.901719 0.0458557 
3771 2 -456.282 2872.68 -570.445 -0.296077 -0.47864 -0.796355 -0.221495 
3772 2 -449.653 2873.17 -577.759 0.00473848 -0.897106 -0.254836 -0.360882 
3773 2 -443.624 2874.56 -585.423 0.251488 -0.648068 0.563149 -0.446794 
4066 2 -1017.14 3103.87 -550.024 0.221257 0.357886 -0.900558 0.109356 
4065 2 -1015.74 3107.14 -540.791 0.219338 0.931813 -0.28188 -0.0644941 
4067 2 -1020.36 3100.44 -558.727 0.0231966 -0.630846 -0.729608 0.262997 
4064 2 -1014.05 3111.07 -531.866 0.09851 0.860933 0.482066 -0.12924 
4063 2 -1013.79 3115.53 -522.992 0.0143393 0.167071 0.949418 -0.265496 
3991 1 -901.685 3075.5 -548.686 0.617176 -0.00543193 0.565815 0.546733 
3992 3 -876.868 3098.57 -540.037 0.625854 -0.0182835 0.53599 0.566293 
3989 2 -865.952 3069.98 -573.617 -0.153234 -0.376566 0.909941 0.0819993 
3988 2 -859.866 3069.5 -565.768 -0.062142 -0.919758 0.13069 0.364833 
3987 2 -851.969 3069.06 -559.762 0.352937 -0.578881 -0.670499 0.301268 
3990 2 -869.439 3070.25 -582.78 -0.148698 0.416094 0.895966 -0.0447276 
3986 2 -847.449 3069.94 -550.974 0.256497 0.212436 -0.942675 -0.0210841 
3985 2 -843.891 3068.75 -541.923 0.0657241 0.811251 -0.558557 -0.159893 
3984 2 -840.767 3069.67 -532.608 -0.0839364 0.909015 0.373748 -0.16419 
3983 2 -836.51 3071.43 -523.867 -0.221814 0.260536 0.935026 -0.0929843 
3998 2 -900.51 3130.06 -530.81 -0.354543 0.876573 0.325441 0.0028195 
3997 2 -901.012 3122.87 -523.93 -0.178854 0.450669 0.784633 0.386342 
3996 2 -903.123 3114.66 -518.851 0.259838 -0.270228 0.852797 0.363591 
3999 2 -902.551 3136.11 -538.26 -0.345617 0.782089 -0.417521 -0.30751 
3982 2 -831.75 3072.05 -515.225 -0.206051 -0.627963 0.740261 0.123364 
4000 2 -904.588 3143.7 -544.371 0.0407 0.181802 -0.875189 -0.446471 
3885 2 -747.512 3035.5 -535.554 -0.435191 -0.190529 0.756287 -0.449819 
3886 2 -752.761 3027.12 -537.203 -0.0163948 0.420688 0.479486 -0.769965 
3887 2 -758.317 3019.07 -535.741 0.581952 0.771583 -0.0934649 -0.239283 
3888 2 -763.237 3010.6 -537.351 0.522829 0.374714 -0.545435 0.537345 
3889 2 -764.739 3000.82 -536.662 -0.129722 -0.0574128 -0.669856 0.728813 
4020 2 -981.16 3200.08 -622.588 0.907755 0.0149459 0.384177 0.167829 
4021 2 -974.786 3200.7 -615.087 0.433679 0.231731 0.0735587 0.867647 
4028 2 -971.643 3204.03 -548.906 0.220339 0.159213 -0.268375 0.924163 
4029 2 -971.206 3198.55 -540.702 -0.476495 -0.240497 -0.318444 0.783395 
4030 2 -970.31 3191.27 -533.939 -0.910507 -0.390814 -0.106018 0.0836812 
4022 2 -970.566 3199.87 -606.058 -0.473128 0.159824 -0.0661472 0.863847 
4023 2 -967.118 3200.81 -596.752 -0.955969 0.101647 -0.0733609 0.265349 
4024 2 -965.281 3201.9 -587.06 -0.760664 -0.0592454 -0.00164871 -0.646435 
4026 2 -966.446 3201.52 -567.665 0.777415 0.0213227 -0.173667 -0.604161 
4027 2 -969.831 3203.19 -558.586 0.88947 -0.0432069 -0.0293544 0.453998 
4025 2 -964.659 3202.01 -577.294 -0.0825947 0.118133 0.0635413 -0.987515 
4001 2 -907.412 3151.21 -550.05 0.39763 -0.438918 -0.761553 -0.263209 
4018 1 -955.665 3236.95 -637.253 -0.475778 -0.292686 -0.0736302 -0.826165 
4002 2 -910.816 3158.4 -556.136 0.357898 -0.910777 -0.192231 0.0737613 
4003 2 -912.953 3165.15 -563.108 0.312854 -0.661213 0.579108 0.359936 
4004 2 -914.149 3172.84 -568.993 -0.00610166 0.0198565 0.942723 0.332929 
4031 2 -968.759 3183.79 -527.793 -0.590787 -0.27922 0.282681 -0.702209 
4005 2 -913.423 3179.43 -576.483 -0.19599 0.806375 0.461766 0.313241 
4019 3 -942.655 3230.42 -605.533 -0.501158 -0.2478 -0.0376777 -0.828261 
4017 2 -921.371 3269.02 -632.841 0.318409 -0.839957 0.0632873 0.434835 
4016 2 -915.754 3262.96 -627.473 0.484871 -0.645972 -0.58754 0.0491697 
4015 2 -909.662 3256.74 -622.76 0.291483 0.194458 -0.835434 -0.423407 
4014 2 -904.969 3251.87 -615.272 -0.0731981 0.803833 -0.485968 -0.335156 
4013 2 -900.613 3244.24 -610.565 -0.45712 0.804922 0.366828 -0.092619 
4006 2 -910.66 3185.65 -583.624 -0.389293 0.864345 -0.295164 -0.119316 
4007 2 -909.611 3192.5 -590.633 -0.349664 0.420679 -0.775619 -0.314928 
4008 2 -907.233 3200.09 -596.595 0.086545 -0.29327 -0.795885 -0.522561 
4009 2 -904.592 3208.97 -600.137 0.540993 -0.63282 -0.388344 -0.395037 
4010 2 -903.893 3218.8 -601.253 0.558269 -0.567911 0.600752 0.0700631 
4011 2 -898.214 3226.08 -604.617 0.163334 -0.148298 0.801477 0.555846 
4012 2 -897.297 3235.34 -607.86 -0.408226 0.384102 0.697623 0.446249 
4032 2 -968.225 3178.03 -519.724 0.220648 -0.0764852 0.299445 -0.925093 
2430 2 -134.516 493.094 -370.053 -0.681553 0.69981 -0.212594 -0.023581 
2429 2 -138.059 484.295 -367.034 -0.366058 0.655114 0.459713 0.474858 
2428 2 -143.29 476.05 -364.617 0.193683 0.1773 0.751687 0.604995 
2427 2 -151.346 470.423 -363.184 0.660816 -0.397521 0.636375 0.0180442 
2425 1 -131.421 443.514 -396.448 -0.672738 0.170623 -0.588827 -0.414239 
2426 3 -108.331 469.248 -392.033 -0.665013 0.195999 -0.548112 -0.467883 
2424 2 -96.9035 432.552 -426.749 -0.132347 -0.907673 0.0725962 0.391592 
2423 2 -89.628 434.469 -420.247 0.214386 -0.668257 -0.601059 0.382361 
2422 2 -81.689 435.615 -414.387 0.458582 0.162228 -0.872489 -0.0463444 
2421 2 -77.1465 439.387 -406.39 0.270365 0.897625 -0.322849 -0.130158 
2420 2 -73.6999 445.941 -399.826 0.113132 0.738794 0.583165 -0.318283 
2431 2 -132.49 502.635 -371.53 -0.485124 0.316858 -0.706506 -0.406331 
2432 2 -129.059 511.729 -372.94 0.0593021 -0.2538 -0.703384 -0.661301 
2433 2 -127.295 521.317 -374.833 0.585346 -0.706881 -0.376901 -0.125034 
2434 2 -129.536 530.61 -377.395 0.481907 -0.821621 0.253219 0.169072 
2435 2 -129.982 539.522 -381.702 0.447045 -0.33657 0.669671 0.488273 
2436 2 -127.164 548.889 -382.875 -0.118303 0.356504 0.688698 0.620164 
2418 2 -63.8502 461.913 -394.753 -0.630373 -0.607784 0.461915 -0.140937 
2417 2 -61.2928 469.998 -389.788 -0.4436 -0.823251 -0.235407 0.264689 
2419 2 -67.7722 452.922 -396.319 -0.372079 0.0523972 0.822834 -0.426329 
2416 2 -57.4376 477.022 -384.04 0.0379502 -0.322667 -0.82953 0.454232 
2415 2 -50.5234 483.17 -380.785 0.588294 0.347707 -0.709988 0.170077 
2412 2 -36.2211 504.875 -367.144 -0.34138 -0.0708553 0.802435 -0.48429 
2414 2 -44.953 490.102 -376.543 0.475646 0.818849 -0.179663 -0.266399 
2413 2 -40.5119 496.521 -370.59 0.101165 0.581869 0.667051 -0.454134 
2411 2 -34.8328 514.599 -365.641 -0.592955 -0.676665 0.379019 -0.216503 
2410 2 -32.0592 523.867 -366.324 -0.623497 -0.693522 -0.123833 0.339033 
2409 2 -32.7861 533.436 -368.084 -0.193519 -0.0798738 -0.597933 0.773723 
2408 2 -34.9869 541.676 -373.151 0.528459 0.423415 -0.301697 0.671141 
2407 2 -33.107 551.281 -374.596 0.739466 0.652425 -0.0750854 -0.147968 
2455 2 -212.446 686.578 -362.651 -0.636505 -0.108962 0.110482 -0.755501 
2454 2 -210.733 693.866 -369.207 -0.894487 -0.409404 0.154463 -0.0917693 
2437 2 -124.515 558.294 -384.19 -0.462204 0.826091 0.23299 0.222839 
2438 2 -122.969 566.992 -388.628 -0.533981 0.630719 -0.481182 -0.29244 
2439 2 -122.006 576.43 -391.794 -0.237922 -0.0953197 -0.713004 -0.652635 
2440 2 -117.457 585.3 -391.752 0.589211 -0.437011 -0.313247 -0.603099 
2441 2 -116.214 594.112 -387.484 0.862824 -0.392492 0.263482 0.179061 
2442 2 -113.799 602.004 -382.02 0.46463 -0.0953024 0.267726 0.838665 
2443 2 -112.875 607.725 -374.133 -0.488161 0.0523536 0.35141 0.797163 
2444 2 -115.296 613.431 -366.394 -0.878903 0.445229 0.112354 0.129141 
2400 2 -38.9513 616.328 -363.861 0.520366 0.818974 0.239848 -0.0312143 
2401 2 -38.0082 607.559 -368.559 0.270205 0.656094 -0.591384 0.383139 
2403 2 -34.6789 590.372 -377.609 -0.56939 -0.477884 -0.514203 0.427804 
2402 2 -35.8862 599.184 -373.473 -0.144347 -0.0550382 -0.895668 0.417028 
2404 2 -33.3792 580.543 -378.663 -0.674497 -0.675914 0.186229 -0.231329 
2405 2 -33.126 570.706 -377.868 -0.140066 -0.155825 0.640842 -0.738527 
2406 2 -33.3004 561.012 -376.241 0.430163 0.354835 0.516126 -0.650127 
2913 2 -574.309 1261.16 -383.404 -0.0288618 0.580701 -0.181397 0.793125 
2914 2 -564.907 1258.8 -380.985 -0.498483 0.380285 -0.675704 0.387714 
2915 2 -555.197 1257.16 -382.655 -0.610423 -0.289069 -0.704232 -0.218815 
2916 2 -545.309 1256.54 -383.562 -0.197601 -0.719163 -0.0332698 -0.665321 
2917 2 -535.823 1254.14 -384.016 0.313677 -0.522733 0.482572 -0.628873 
2918 2 -526.515 1250.61 -384.021 0.696056 0.0322846 0.651999 -0.298933 
2919 2 -517.92 1246.03 -382.772 0.664395 0.617957 0.306034 0.288187 
2920 2 -510.299 1239.57 -382.565 0.335256 0.590354 -0.135002 0.721706 
2966 3 -420.763 1260.27 -420.622 0.95026 0.0893468 -0.298019 0.0144031 
2965 1 -402.261 1271.7 -448.022 0.954992 0.055713 -0.291325 -0.00400069 
2961 2 -398.99 1228.77 -414.514 -0.00555751 -0.934091 -0.293181 -0.203688 
2960 2 -400.35 1228.15 -404.7 -0.0311351 -0.429916 -0.902331 -0.00163563 
2959 2 -399.57 1230.46 -395.093 0.101294 0.397155 -0.910294 0.0580732 
2958 2 -398.289 1232.76 -385.554 0.175781 0.974995 -0.134286 0.0212993 
2962 2 -394.76 1229.02 -423.374 0.157308 -0.769274 0.571111 -0.239381 
2963 2 -389.247 1228.31 -431.56 0.386347 -0.124971 0.908788 0.0960363 
2964 2 -381.987 1230.36 -437.703 0.144391 0.694693 0.573254 0.409796 
2921 2 -503.063 1233.22 -380.128 -0.340476 0.240647 -0.659327 0.625663 
2923 2 -489.619 1219.23 -377.337 -0.736607 -0.536085 -0.0125792 -0.412146 
2922 2 -496.045 1226.42 -379.496 -0.742833 -0.323612 -0.554786 0.188911 
2967 2 -433.342 1306.44 -440.821 -0.782115 -0.0200296 0.0624019 -0.619679 
2968 2 -434.648 1305.11 -431.094 -0.0967725 -0.0862545 0.0948483 -0.987015 
2969 2 -433.762 1303.06 -421.346 0.724189 -0.0421865 0.0770594 -0.683982 
2970 2 -431.063 1302.51 -412.035 0.998702 0.0144757 0.0339505 0.0351081 
2924 2 -484.422 1211.44 -373.868 -0.16032 -0.495309 0.272719 -0.809068 
2925 2 -477.318 1205.16 -370.925 0.550137 -0.0254018 0.616216 -0.563011 
2971 2 -430.627 1301.82 -402.273 0.602139 -0.159726 0.108279 0.774721 
2957 2 -397.852 1233.15 -375.773 -0.0160238 0.75834 0.650573 -0.0376746 
2972 2 -432.056 1304.95 -392.955 -0.220228 0.206951 0.226989 0.925822 
2973 2 -429.065 1309.72 -384.944 -0.768806 0.451684 -0.184583 0.413338 
2974 2 -423.13 1314.91 -378.9 -0.907993 0.123709 -0.106395 -0.385907 
2926 2 -470.84 1198.15 -368.188 0.772616 0.484487 0.410278 -0.00289723 
2927 2 -465.832 1189.9 -366.404 0.580536 0.487686 -0.21169 0.616706 
2956 2 -396.315 1232.01 -366.224 -0.0555132 -0.0239354 0.997013 0.0480591 
2928 2 -461.723 1182.33 -361.578 -0.115029 0.106788 -0.450699 0.878769 
2975 2 -422.182 1317.71 -369.385 -0.189712 0.116043 -0.135831 -0.96545 
3019 1 -430.246 1372.79 -466.919 -0.928746 0.154456 -0.115056 0.316759 
3022 2 -410.031 1415.11 -464.334 0.515418 0.327679 -0.0494722 0.790268 
3012 2 -424.365 1354.76 -392.287 -0.111111 -0.820628 0.550828 -0.103979 
3023 2 -404.817 1412.39 -456.454 -0.237227 0.0888777 -0.185238 0.949479 
3013 2 -422.558 1351.84 -401.579 0.046405 -0.100462 0.977983 -0.176927 
3024 2 -402.569 1408.61 -447.562 -0.91566 -0.0908505 -0.136235 0.367087 
3020 3 -420.245 1381.87 -434.738 -0.931283 0.200167 -0.0744221 0.295137 
3014 2 -421.749 1348.62 -410.903 0.20468 0.783632 0.564496 -0.159286 
3015 2 -421.474 1343.32 -419.17 0.232019 0.923828 -0.269084 -0.142486 
3016 2 -425.879 1339.8 -427.35 0.390004 0.367454 -0.825292 0.178237 
3017 2 -431.526 1334.69 -433.741 0.216892 -0.516159 -0.794407 0.23549 
3018 2 -437.173 1333.43 -441.863 0.0121602 -0.922839 -0.235048 0.304914 
3021 2 -415.542 1417.39 -472.167 0.949611 0.121403 0.285578 0.0441175 
3025 2 -401.151 1405.71 -438.195 -0.824257 -0.0214024 0.139265 -0.548405 
3026 2 -402.798 1403.67 -428.737 -0.0739739 -0.0725776 0.177024 -0.978735 
3011 2 -424.9 1356.73 -382.528 -0.157115 -0.929376 -0.328145 -0.0624189 
3027 2 -400.994 1400.13 -419.621 0.655404 0.198914 0.286703 -0.669836 
3028 2 -400.036 1393.29 -412.402 0.906873 0.274126 0.16109 0.276563 
3010 2 -426.15 1358.71 -373.068 -0.0753837 -0.257623 -0.960995 0.0666059 
3029 2 -395.698 1389.42 -404.284 0.357547 0.192209 0.0131498 0.913807 
3030 2 -392.877 1387.33 -394.937 -0.344672 0.22266 -0.1039 0.905996 
3031 2 -388.222 1386.66 -386.244 -0.964539 0.12091 -0.208182 0.108192 
3032 2 -384.127 1387.24 -377.329 -0.611131 -0.105678 -0.427713 -0.657581 
3033 2 -377.422 1391.79 -371.758 0.0413166 -0.462084 -0.0840137 -0.88188 
3065 2 -374.462 1446.54 -395.289 -0.743834 0.659217 0.108889 0.0169515 
3064 2 -373.47 1436.92 -397.421 -0.491053 0.34335 0.524071 0.605249 
3066 2 -375.745 1456.34 -393.926 -0.399401 0.404577 -0.505449 -0.649089 
3063 2 -372.584 1427.62 -400.547 0.138059 -0.142953 0.565632 0.800352 
3062 2 -369.907 1418.28 -402.322 0.692296 -0.601896 0.153276 0.367361 
3034 2 -369.711 1393.74 -365.75 0.803541 -0.387422 0.264728 -0.366258 
3061 2 -364.883 1410.86 -406.45 0.836918 -0.370246 -0.376243 -0.144662 
3009 2 -430.354 1360.8 -364.282 -0.128522 0.704816 -0.666923 0.204767 
3067 2 -377.447 1466 -392.232 0.345281 -0.180569 -0.567564 -0.725291 
3048 2 -262.81 1350.33 -389.893 0.125536 -0.822527 -0.0577729 0.551681 
3049 2 -272.084 1351.39 -393.092 -0.144744 -0.564963 0.702916 0.407154 
3050 2 -279.467 1354.94 -398.763 -0.458039 0.0742707 0.883724 -0.0609652 
3051 2 -287.14 1355.43 -405.01 -0.419543 0.767773 0.292801 -0.385715 
3052 2 -295.641 1359.12 -408.441 0.0800496 0.603902 -0.446032 -0.655706 
3053 2 -304.013 1364.08 -409.294 0.509694 -0.0105154 -0.769749 -0.384173 
3054 2 -311.888 1369.81 -411.49 0.588309 -0.615856 -0.449381 0.269577 
3055 2 -319.888 1374.9 -413.88 0.372019 -0.624963 0.17449 0.663759 
3056 2 -326.421 1382.21 -412.596 -0.33809 -0.427518 0.541911 0.639732 
3057 2 -334.871 1387.11 -411.449 -0.650841 0.252487 0.623091 0.352724 
3058 2 -341.236 1394.49 -409.827 -0.591807 0.647619 0.386262 -0.28488 
3059 2 -349.631 1399.49 -411.482 -0.236839 0.559242 -0.205095 -0.767523 
3047 3 -290.675 1387.34 -366.433 0.466512 -0.705909 -0.415067 0.334333 
3060 2 -357.665 1404.84 -409.578 0.482577 0.154771 -0.548468 -0.665092 
3127 1 -366.828 1582.99 -503.185 0.161076 -0.117963 0.442949 -0.874034 
3073 1 -425.717 1513.82 -376.027 0.715394 0.536918 0.0364185 0.44565 
3070 2 -381.049 1495.11 -389.491 -0.0850245 0.0775801 0.794221 0.596628 
3071 2 -382.447 1504.55 -391.87 -0.409128 0.640721 0.530107 0.375602 
3072 2 -382.704 1513.76 -395.421 -0.56231 0.8214 -0.052436 -0.0797464 
3069 2 -379.59 1485.3 -389.602 0.405018 -0.49356 0.524677 0.563093 
3126 2 -383.666 1594.81 -460.742 0.34667 -0.349215 -0.84903 -0.192397 
3125 2 -378.668 1588.66 -454.848 0.00534834 0.508884 -0.733758 -0.450119 
3124 2 -371.035 1584.08 -450.556 -0.217092 0.872407 -0.03436 -0.436573 
3123 2 -363.598 1578.52 -446.827 -0.579386 0.524693 0.623503 0.0159035 
3068 2 -378.9 1475.32 -388.908 0.666037 -0.721526 -0.153252 -0.110942 
3122 2 -357.811 1571.52 -442.999 -0.343712 -0.0294334 0.824223 0.449057 
3121 2 -352.146 1564.48 -439.186 0.159777 -0.626816 0.561444 0.516094 
3144 2 -244.331 1471.8 -511.385 -0.438949 0.288855 0.122985 0.84188 
3120 2 -347.89 1556.21 -436.128 0.499985 -0.83988 -0.0467939 0.205979 
3128 3 -356.527 1556.44 -482.961 0.228917 -0.113283 0.422805 -0.869483 
3119 2 -346.622 1548.84 -429.669 0.259547 -0.498699 -0.763168 -0.318605 
3118 2 -342.344 1542.81 -423.107 0.152356 0.382725 -0.84256 -0.346989 
3117 2 -341.505 1536.12 -415.764 -0.311253 0.91911 -0.193591 -0.1445 
3116 2 -340.776 1530.15 -408.014 -0.223361 0.752525 0.606564 0.126081 
3115 2 -338.714 1524.2 -400.336 -0.0489787 -0.0513229 0.934812 0.347985 
3114 2 -335.135 1518.68 -393.065 0.234157 -0.832296 0.423897 0.269753 
3113 2 -328.902 1512.77 -388.193 0.46176 -0.776652 -0.397417 0.160152 
3161 2 -282.608 1535.25 -426.936 0.621053 0.538246 -0.258726 0.507588 
3160 2 -281.587 1545.03 -426.194 0.599999 0.734661 0.192831 -0.25118 
3159 2 -277.277 1553.85 -427.092 0.039726 0.386722 0.543639 -0.743858 
3158 2 -270.703 1561.36 -427.982 -0.568072 -0.172857 0.677198 -0.434531 
3162 2 -279.966 1525.92 -424.36 -0.136018 0.0521276 -0.498475 0.854578 
3157 2 -266.513 1570.33 -427.241 -0.630827 -0.732449 0.174078 0.187811 
3163 2 -277.137 1517.69 -419.608 -0.732101 -0.120266 -0.518889 0.424639 
3164 2 -270.555 1511.93 -415.003 -0.778882 -0.412504 -0.341442 -0.326498 
3165 2 -261.589 1509.34 -411.528 -0.163059 -0.682654 0.199194 -0.683899 
3156 2 -261.424 1578.78 -428.324 -0.210411 -0.537968 -0.422558 0.6984 
3112 2 -321.428 1507.06 -385.246 0.452673 -0.0688228 -0.836501 -0.301026 
3111 2 -313.482 1502.23 -381.89 0.101213 0.554107 -0.579479 -0.589003 
3110 2 -304.063 1499.86 -379.977 -0.285154 0.747728 0.222166 -0.556985 
3166 2 -252.747 1504.95 -411.42 0.5078 -0.32918 0.651547 -0.457457 
3167 2 -243.314 1501.95 -411.757 0.769364 0.340323 0.537826 0.0547954 
3145 2 -240.042 1476.17 -503.541 -0.870659 0.399379 -0.220794 0.183574 
3146 2 -235.568 1482.72 -497.707 -0.623739 0.0371109 -0.438394 -0.646052 
3155 3 -242.666 1533.37 -445.155 -0.751183 -0.468395 0.441687 -0.145751 
3147 2 -230.753 1488.27 -491.241 -0.0508909 -0.250714 -0.383703 -0.887313 
3168 2 -234.297 1498.12 -410.404 0.464182 0.658731 0.113269 0.581187 
3148 2 -225.655 1493.95 -484.976 0.72738 -0.456481 -0.0791723 -0.506236 
3169 2 -225.578 1493.5 -409.464 -0.172769 0.5442 -0.269108 0.775614 
3154 1 -223.556 1562.15 -451.008 -0.760472 -0.456826 0.453382 -0.0862422 
3149 2 -222.105 1501.43 -479.283 0.875098 -0.33874 0.262208 0.225179 
3150 2 -218.15 1508.08 -473.093 0.332673 0.14786 0.546829 0.753952 
3109 2 -296.603 1499.88 -373.617 -0.383383 0.124982 0.913297 -0.0573166 
3170 2 -216.225 1492.17 -406.635 -0.746212 0.149383 -0.495385 0.418863 
3108 2 -291.121 1500.07 -365.229 -0.29309 -0.553177 0.753498 0.200836 
3151 2 -212.426 1515.41 -469.921 -0.37198 0.664665 0.150564 0.630224 
3177 2 -158.685 1484.43 -373.215 -0.806135 -0.123796 -0.367351 0.447074 
3176 2 -166.321 1485.56 -379.256 -0.110897 0.414367 -0.0833912 0.899471 
3171 2 -207.376 1491.35 -402.577 -0.714771 -0.384748 -0.445443 -0.377694 
3153 2 -197.009 1527.64 -469.273 -0.603946 0.0645342 -0.732797 -0.306746 
3152 2 -205.128 1522.05 -468.71 -0.628369 0.564195 -0.499213 0.193967 
3172 2 -198.377 1489.75 -399.328 -0.146872 -0.522522 -0.0400876 -0.838924 
3173 2 -189.319 1489.12 -395.722 0.606082 -0.354115 0.400172 -0.589177 
3174 2 -180.166 1488.94 -391.792 0.828216 0.116316 0.533289 -0.127007 
3175 2 -171.408 1486.66 -387.644 0.653242 0.174611 0.185895 0.712902 
3178 2 -154.462 1479.78 -365.569 -0.910876 -0.258891 -0.140401 -0.289082 
3235 1 -407.983 1701.54 -384.676 0.806875 -0.00115279 0.439192 0.395047 
3234 2 -368.356 1683.06 -402.236 -0.0937474 -0.993489 -0.0233357 0.0603797 
3233 2 -366.949 1684.53 -392.648 0.0259289 -0.639814 -0.757387 0.127796 
3236 3 -383.227 1714.98 -363.841 0.847929 0.0456302 0.426096 0.312053 
3232 2 -361.851 1685.51 -384.236 0.264658 0.199204 -0.943475 0.0113123 
3231 2 -355.7 1683.58 -376.669 0.0833802 0.733033 -0.578389 -0.348104 
3230 2 -349.248 1683.52 -369.241 -0.0995631 0.895434 0.241275 -0.360655 
3229 2 -341.257 1681.49 -363.817 -0.4399 0.401941 0.800754 -0.0610283 
3352 2 -498.06 1922.43 -363.939 0.331859 -0.231001 0.0911601 -0.910054 
3316 1 -319.916 1915.19 -376.401 0.957401 -0.0480675 -0.27323 0.0801188 
3349 2 -520.144 1930.32 -381.168 -0.727554 0.165022 -0.509271 0.429041 
3348 2 -527.904 1931.33 -387.277 -0.217614 0.426534 -0.143864 0.866035 
3347 2 -536.586 1933.25 -391.577 0.558772 0.462972 0.257736 0.637968 
3346 2 -544.391 1937.28 -396.138 0.855843 0.180703 0.465402 -0.135206 
3345 2 -553.148 1942.05 -397.02 0.424796 -0.259373 0.638344 -0.58719 
3343 1 -545.016 1988.57 -398.034 0.253918 0.46675 -0.0352942 0.846419 
3342 2 -519.992 2027.13 -387.392 -0.186831 -0.241395 0.902021 0.305256 
3344 3 -518.994 1976.15 -378.412 0.18472 0.433408 -0.11214 0.874906 
3341 2 -514.706 2023.32 -380.036 0.149157 -0.924612 0.169747 0.306644 
3351 2 -503.883 1925.92 -371.089 -0.403038 -0.347111 -0.00619533 -0.84678 
3350 2 -511.376 1928.76 -376.862 -0.871028 -0.277053 -0.338259 -0.223903 
3340 2 -509.208 2017.56 -374.233 0.393325 -0.749914 -0.525516 0.082203 
3339 2 -504.198 2013.03 -367.003 0.286229 -0.117586 -0.928532 -0.205125 
3334 2 -465.708 1988.14 -363.93 0.309067 -0.661366 -0.00604283 0.6834 
3333 2 -456.804 1983.87 -363.872 0.692393 -0.41991 -0.560349 0.174 
3335 2 -474.47 1992.04 -361.871 -0.446731 -0.305315 0.47875 0.691385 
3319 2 -350.046 1955.97 -372.171 0.833468 -0.141868 -0.449325 0.288637 
3318 2 -342.012 1956.84 -377.907 0.769771 0.254298 -0.357037 -0.464015 
3320 2 -358.361 1955.38 -367.019 0.178416 -0.362562 -0.284152 0.869468 
3478 1 -537.779 2084.27 -389.53 0.674655 -0.540784 -0.0741646 -0.496884 
3559 1 -575.88 2189.01 -387.133 0.548071 0.0594176 0.730398 0.403246 