ITEM: TIMESTEP
100000000
ITEM: NUMBER OF ATOMS
4067
ITEM: BOX BOUNDS pp pp pp
-4.6310929470000001e+03 4.6704658980000004e+03
-4.6310929470000001e+03 4.6704658980000004e+03
-4.6310929470000001e+03 4.6704658980000004e+03
ITEM: ATOMS id type x y z c_q[1] c_q[2] c_q[3] c_q[4] 
3613 1 -513.538 2214.96 -677.738 -0.449429 0.133908 -0.137875 0.872395 
3615 2 -470.556 2196.74 -684.74 -0.389058 0.0326926 0.192253 -0.900335 
3616 2 -471.535 2194.15 -675.271 0.378538 0.119715 0.111978 -0.910954 
3775 1 -536.372 2661.97 -667.992 -0.855919 -0.241993 0.120332 -0.440865 
3828 2 -561.553 2809.76 -676.867 -0.187741 0.301405 0.867376 -0.348665 
3827 2 -555.375 2813.81 -670.195 -0.398868 -0.533824 0.745571 -0.00777326 
4020 2 -843.178 3139.08 -687.031 0.656354 -0.49804 0.260688 0.503187 
4018 1 -796.666 3133.02 -681.548 0.695382 -0.491562 0.185206 0.490417 
3910 1 -642.257 3134.6 -703.92 -0.390706 -0.118761 -0.480273 -0.776262 
4021 2 -844.607 3148.2 -683.483 0.109701 -0.193105 0.537648 0.813394 
4022 2 -846.455 3157.06 -679.386 -0.559615 0.471205 0.34655 0.587111 
4023 2 -844.745 3166.23 -676.287 -0.864583 0.471085 -0.11239 -0.133956 
4024 2 -844.3 3175.02 -671.722 -0.551592 0.197154 -0.387868 -0.711642 
4017 2 -753.766 3146.86 -667.709 -0.525281 -0.718606 -0.442011 0.110958 
4055 2 -763.448 3225.43 -669.922 -0.981343 0.0842574 0.092313 -0.146099 
4054 2 -760.266 3221.13 -678.489 -0.673999 0.0412754 0.257376 0.691216 
4046 3 -756.663 3256.52 -701.367 -0.0342269 0.169897 0.20383 -0.963544 
4045 1 -743.719 3268.51 -731.607 -0.17079 0.136831 0.237267 -0.946474 
4047 2 -747.997 3222.12 -739.221 -0.740473 -0.261096 0.0877856 0.613043 
4052 2 -761.786 3212.58 -695.231 0.795843 -0.0726091 0.109052 0.591159 
4048 2 -752.471 3219.78 -730.726 -0.945196 -0.140746 0.280006 -0.0916077 
4050 2 -760.149 3211.07 -714.724 0.376352 0.125752 -0.0603924 -0.915914 
4051 2 -762.484 3211.44 -705.079 0.957801 -0.0783602 0.0271671 -0.275207 
4049 2 -756.799 3215.29 -722.896 -0.49636 0.0348043 0.286286 -0.818814 
4053 2 -760.761 3214.3 -685.596 0.109029 -0.0127448 0.327495 0.938455 
4041 2 -763.651 3292.74 -687.444 0.383172 -0.406699 0.829281 -0.00821866 
4040 2 -768.39 3288.5 -679.749 0.271253 -0.93623 0.180452 -0.13165 
4039 2 -775.1 3285.04 -673.484 -0.106326 -0.650364 -0.638105 -0.398175 
4038 2 -781.094 3281.09 -666.704 -0.422945 0.0623971 -0.894138 -0.133196 
4042 2 -757.789 3296.21 -694.553 0.279409 0.366125 0.838767 0.290437 
3909 2 -626.28 3166.9 -734.311 -0.302953 -0.898192 0.185556 0.258919 
3908 2 -620.971 3171.12 -727.222 0.0821488 -0.624362 -0.678637 0.377989 
3907 2 -614.481 3177.02 -722.333 0.495084 0.285966 -0.802057 0.172685 
3906 2 -608.106 3181.8 -716.526 0.43413 0.79533 -0.377877 -0.190236 
3901 2 -584.95 3186.81 -674.174 0.214022 -0.853962 -0.465174 0.0925011 
3902 2 -588.406 3188.81 -683.329 -0.102936 -0.921604 0.283443 0.244357 
3903 2 -592.85 3187.97 -691.95 -0.22509 -0.541418 0.80926 0.0360488 
3904 2 -596.337 3185.49 -701.021 -0.201702 0.21935 0.946299 -0.125384 
3905 2 -601.939 3183.85 -709.13 -0.0199068 0.860186 0.353221 -0.367313 
3911 3 -626.993 3158.27 -683.005 -0.381314 -0.100382 -0.430274 -0.812027 
4043 2 -750.688 3300.01 -700.179 -0.253946 0.744007 0.368077 0.496472 
4044 2 -744.657 3306.91 -704.116 -0.555363 0.709979 -0.426503 0.0748094 
3496 2 -696.504 2015.1 -520.129 0.289759 0.63353 -0.475673 -0.537043 
3497 2 -706.022 2015.62 -522.902 0.616717 0.032117 -0.783553 -0.0683609 
3498 2 -715.729 2016.71 -524.651 0.280699 -0.55407 -0.397978 0.67515 
3499 2 -725.433 2014.77 -524.083 -0.36906 -0.72546 0.211374 0.541131 
3500 2 -734.81 2011.45 -525.33 -0.743572 -0.271712 0.58863 0.163672 
3501 2 -744.444 2009.09 -524.018 -0.728047 0.340648 0.387581 -0.451318 
3502 2 -752.832 2010.19 -519.09 -0.102724 0.513133 0.0353262 -0.851407 
3494 2 -677.826 2014.83 -514.353 -0.563045 0.229589 0.754172 -0.247979 
3495 2 -687.341 2013.44 -516.59 -0.268973 0.780002 0.309661 -0.472609 
3485 2 -601.282 2045.54 -530.468 -0.644414 -0.534593 0.153359 0.524807 
3484 2 -593.258 2049.85 -534.191 0.0541153 -0.461615 -0.256224 0.847545 
3478 1 -541.408 2018.58 -555.339 0.929432 -0.164715 -0.228 0.238832 
3483 2 -585.189 2053.27 -538.681 0.679323 -0.143192 -0.513281 0.504539 
3482 2 -578.967 2055.04 -546.068 0.895914 0.144418 -0.290998 -0.302987 
3481 2 -573.978 2056.61 -554.491 0.287164 0.275389 -0.00504443 -0.917427 
3480 2 -570.552 2054.81 -563.582 -0.595178 0.163566 0.0434148 -0.785573 
3476 2 -531.729 1985.34 -523.127 0.223746 -0.351867 0.863491 -0.283742 
3486 2 -608.988 2040.12 -527.171 -0.873672 -0.235106 0.416135 -0.0908472 
3479 3 -560.55 2020.25 -526.159 0.889801 -0.232966 -0.221212 0.324108 
3487 2 -617.153 2035.82 -523.467 -0.42536 0.213483 0.426982 -0.768882 
3488 2 -624.354 2031.37 -518.511 0.136463 0.550237 0.0608605 -0.821531 
3489 2 -632.858 2028.29 -514.32 0.651412 0.589111 -0.355887 -0.319305 
3477 2 -525.922 1981.83 -530.273 0.402885 0.507239 0.761799 0.00737908 
3475 2 -536.973 1985.95 -514.724 -0.0497595 -0.961208 0.0659203 -0.263169 
3612 2 -549.827 2227.71 -650.347 0.00774609 0.198298 0.849104 0.489531 
3602 2 -584.916 2163.05 -595.535 0.0451674 -0.767371 -0.582613 -0.263937 
3601 2 -589.707 2160.01 -587.329 -0.220362 -0.159999 -0.929822 -0.24753 
3600 2 -593.685 2155.34 -579.472 -0.252303 0.617619 -0.739123 -0.0926652 
3599 2 -599.174 2150.37 -572.979 -0.297133 0.899877 -0.17333 0.268123 
3598 2 -604.916 2145.09 -566.879 -0.0176611 0.687927 0.563817 0.456678 
3603 2 -582.174 2166.54 -604.428 0.233102 -0.962493 0.138788 0.00306378 
3597 2 -609.993 2139.75 -560.444 0.282773 -0.0267887 0.925517 0.250481 
3604 2 -580.56 2170.75 -613.295 0.268818 -0.505972 0.811873 0.112217 
3605 2 -576.749 2175.79 -620.908 0.0481323 0.381108 0.888509 0.250982 
3596 2 -614.161 2135.11 -552.837 0.305802 -0.654326 0.691478 -0.0141851 
3606 2 -573.797 2179.88 -629.485 -0.22197 0.814643 0.21438 0.491047 
3607 2 -567.162 2185.65 -633.978 -0.587077 0.663686 -0.463475 0.0072064 
3595 2 -618.432 2130.66 -545 0.257627 -0.939973 0.0592654 -0.215792 
3594 2 -624.064 2127.68 -537.534 -0.225107 -0.465643 -0.80051 -0.3028 
3593 2 -627.707 2125.95 -528.475 -0.195228 0.232139 -0.952889 0.000938925 
3592 2 -627.655 2118.31 -522.365 -0.406666 0.814078 -0.387511 -0.147429 
3608 2 -561.378 2192.94 -637.186 -0.426478 0.154116 -0.751715 -0.478842 
3609 2 -556.155 2201.03 -639.108 0.244905 -0.426132 -0.642529 -0.587869 
3610 2 -554.671 2210.37 -641.855 0.517316 -0.826927 -0.143009 -0.167704 
3611 2 -552.256 2219.26 -645.583 0.449437 -0.604552 0.60106 0.266928 
3579 2 -650.286 2226.74 -534.769 -0.678805 -0.298746 0.404941 -0.534788 
3580 2 -652.88 2219 -529.164 -0.184318 0.144169 0.473646 -0.849059 
3581 2 -656.987 2211.46 -524.002 0.682645 0.299499 0.0639794 -0.663478 
3582 2 -659.652 2206.12 -516.081 0.917167 0.149203 -0.0306031 0.368247 
3591 2 -632.323 2112.19 -515.942 -0.171384 0.845307 0.361591 0.354028 
3617 2 -472.724 2191.45 -665.618 0.9156 0.184476 0.15096 -0.323816 
3614 3 -500.83 2211.53 -645.199 -0.483259 0.109352 -0.150163 0.855543 
3626 2 -443.21 2163.16 -588.336 -0.113929 0.183912 -0.134765 0.966972 
3627 2 -438.843 2161.72 -579.547 -0.847321 -0.00893047 -0.223342 0.481753 
3628 2 -435.275 2159.17 -570.651 -0.827003 -0.305993 -0.149738 -0.447228 
3629 2 -429.472 2156.43 -563.044 -0.226931 -0.220654 -0.0583399 -0.94679 
3625 2 -449.337 2164.38 -596.021 0.721595 0.274718 0.214171 0.598299 
3624 2 -453.561 2167.86 -604.393 0.926548 0.0831606 0.256502 -0.262298 
3623 2 -457.033 2170.24 -613.319 0.502215 -0.11976 0.213664 -0.829328 
3622 2 -460.362 2173.41 -622.049 -0.469755 -0.223736 0.0179436 -0.853786 
3621 2 -462.766 2178 -630.448 -0.955612 -0.245833 -0.143499 -0.0760233 
3620 2 -467.165 2181.2 -638.779 -0.690263 0.00517177 -0.303707 0.656713 
3619 2 -469.656 2182.42 -648.285 0.28581 0.120906 -0.0196401 0.950426 
3618 2 -471.196 2187.4 -656.651 0.832424 0.317022 -0.0737318 0.448477 
3630 2 -425.761 2155.71 -553.891 0.490882 -0.0889277 0.0638936 -0.864317 
3631 2 -423.735 2154.98 -544.189 0.958566 -0.106493 0.241955 -0.106151 
3632 2 -419.07 2155.44 -535.361 0.681444 0.291305 0.0133405 0.671265 
3633 2 -414.316 2152.6 -527.241 -0.231865 0.17302 -0.137491 0.947311 
3634 2 -410.274 2150.16 -518.561 -0.861026 0.047573 -0.121233 0.491602 
3558 2 -787.056 2305.57 -553.306 0.456957 -0.747276 -0.477538 0.0687485 
3557 2 -781.833 2299.33 -547.508 0.367154 -0.0680192 -0.883759 -0.28203 
3556 2 -777.082 2291.48 -543.731 -0.0413172 0.467407 -0.684285 -0.558191 
3555 2 -770.409 2286.41 -538.56 -0.363645 0.84633 0.0155372 -0.388904 
3559 1 -766.153 2346.76 -543.831 0.737842 0.197359 0.545462 -0.345122 
3560 3 -742.964 2323.15 -532.108 0.724193 0.195701 0.543454 -0.3767 
3563 2 -716.961 2359.28 -527.295 -0.52359 0.1713 -0.722299 0.418084 
3562 2 -724.116 2366.1 -526.603 0.0807767 0.625156 -0.401544 0.664392 
3564 2 -708.397 2354.57 -528.477 -0.713379 -0.444477 -0.53811 -0.0629966 
3565 2 -699.949 2349.36 -527.797 -0.473157 -0.712882 0.0561901 -0.514553 
3566 2 -693.423 2341.99 -527.146 0.0294054 -0.21337 0.681535 -0.69937 
3568 2 -686.74 2323.38 -528.842 0.632053 0.735536 0.138008 0.201118 
3561 2 -730.781 2373.38 -527.403 0.630207 0.660505 0.175203 0.368614 
3567 2 -689.995 2332.76 -527.925 0.518896 0.411878 0.624623 -0.413461 
3569 2 -682.005 2314.8 -529.925 0.152704 0.60487 -0.513503 0.589176 
3554 2 -762.764 2281.87 -534.31 -0.541629 0.437098 0.714737 -0.0688111 
3553 2 -755.618 2276.34 -530.353 -0.29409 -0.298326 0.784688 0.456923 
3552 2 -749.398 2269.56 -526.703 0.382188 -0.787398 0.131176 0.465542 
3551 2 -744.042 2263.07 -521.792 0.499517 -0.647195 -0.575865 -0.000973658 
3550 2 -739.208 2255.28 -518.135 0.269158 0.00584227 -0.846146 -0.459954 
3570 2 -677.066 2306.57 -532.109 -0.357523 -0.108708 -0.816721 0.439689 
3571 2 -672.072 2298.53 -534.827 -0.621029 -0.688015 -0.371648 -0.0532575 
3572 2 -667.623 2290.44 -538.464 -0.366181 -0.634448 0.358089 -0.57893 
3578 2 -651.829 2234.76 -540.34 -0.877988 -0.425908 -0.165222 0.142969 
3573 2 -663.354 2281.68 -539.245 0.142432 -0.0475247 0.736876 -0.659142 
3575 2 -657.489 2263.18 -541.553 0.6104 0.756936 -0.0911482 0.21483 
3574 2 -661.49 2272.04 -539.805 0.621888 0.51132 0.557382 -0.202813 
3576 2 -654.989 2253.76 -543.137 0.243695 0.338436 -0.633994 0.651249 
3577 2 -652.752 2244.08 -543.161 -0.415046 -0.265517 -0.569352 0.658085 
3672 2 -488.537 2369.44 -541.031 0.15426 0.339401 -0.888712 -0.266837 
3670 2 -488.237 2362.21 -522.855 -0.108464 0.902944 0.410323 0.0675502 
3671 2 -487.29 2364.82 -532.425 -0.170211 0.871585 -0.417377 -0.192779 
3668 3 -479.251 2330.67 -554.3 -0.302941 0.0954052 -0.94511 -0.0767499 
3664 2 -474.244 2287.12 -566.594 0.649664 0.458136 -0.265621 -0.54543 
3663 2 -465.883 2291.14 -570.309 -0.00971038 0.537329 0.245088 -0.806917 
3662 2 -458.652 2296.43 -574.354 -0.535673 0.151557 0.539506 -0.631679 
3661 2 -451.857 2303.15 -577.261 -0.792861 -0.392672 0.459898 -0.0753245 
3660 2 -447.361 2311.91 -575.564 -0.487452 -0.733004 -0.199366 0.430521 
3659 2 -442.027 2318.26 -570.44 0.0771065 -0.414495 -0.760256 0.494226 
3658 2 -434.618 2321.63 -564.543 0.467892 0.139969 -0.858695 0.155334 
3657 2 -426.964 2324.99 -559.193 0.357179 0.784764 -0.42388 -0.277297 
3665 2 -482.542 2284.06 -562.006 0.810474 0.0906763 -0.554626 0.165227 
3674 2 -493.57 2378.97 -557.17 0.346234 -0.930836 0.0957167 -0.0671139 
3666 2 -490.902 2280.23 -558.126 0.289242 -0.40045 -0.396347 0.773879 
3656 2 -423.474 2324.43 -549.871 -0.0493025 0.937137 0.317486 -0.136186 
3673 2 -493.153 2373.63 -548.786 0.192463 -0.631525 -0.718326 -0.219412 
3667 1 -496.516 2315.88 -527.647 -0.328051 0.0957022 -0.931167 -0.127085 
3655 2 -422.61 2319.71 -541.167 -0.0501716 0.26847 0.93416 0.229676 
3654 2 -424.578 2312.59 -534.806 0.352901 -0.618394 0.663218 0.230634 
3653 2 -423.137 2302.88 -534.435 0.685921 -0.67464 -0.244459 -0.120883 
3652 2 -419.348 2294.1 -532.237 0.462426 -0.225503 -0.724819 -0.4582 
3651 2 -414.108 2286.23 -529.521 -0.0256944 0.394945 -0.672291 -0.625606 
3650 2 -409.282 2278.03 -526.603 -0.481425 0.801818 -0.117238 -0.334027 
3649 2 -404.807 2269.84 -523.171 -0.516359 0.589939 0.585923 0.205034 
3648 2 -401.753 2263.4 -516.535 -0.0644747 -0.279315 0.872619 0.395426 
3714 2 -565.612 2453.44 -545.777 0.0632923 0.613196 0.690811 -0.377842 
3715 2 -571.292 2448.25 -551.929 0.237275 0.907195 -0.0594227 -0.342298 
3716 2 -578.327 2444.25 -557.564 0.557012 0.481219 -0.644801 0.205907 
3717 2 -584.482 2436.69 -559.973 0.290766 -0.0386694 -0.611216 0.735102 
3739 2 -601.049 2521.14 -564.373 0.520461 -0.416246 0.593665 0.451022 
3738 2 -606.771 2513.33 -562.47 0.615668 -0.718009 0.280079 -0.164233 
3737 2 -607.686 2505.61 -556.336 0.234385 -0.650071 -0.658702 -0.297628 
3719 2 -590.48 2418.13 -556.18 -0.762438 -0.634303 0.106924 0.0701148 
3718 2 -587.761 2427.7 -557.374 -0.416982 -0.522333 -0.458276 0.585898 
3736 2 -611.939 2501.99 -548.071 -0.237403 0.105025 -0.94373 -0.204897 
3720 2 -592.79 2408.65 -554.695 -0.509117 -0.24861 0.588305 -0.576966 
3713 2 -559.669 2459.85 -541.249 -0.478935 -0.188743 0.815969 -0.263044 
3712 2 -553.425 2465.63 -536.278 -0.464817 -0.817265 0.307517 0.146479 
3711 2 -546.296 2471.21 -532.122 -0.0467679 -0.731724 -0.474771 0.486811 
3740 2 -598.125 2530.64 -564.386 0.00297096 0.131244 0.6573 0.742107 
3710 2 -537.903 2475.41 -528.691 0.461531 -0.0925828 -0.830029 0.299114 
3735 2 -612.609 2497.86 -539.219 -0.201897 0.872093 -0.438222 -0.0815637 
3709 2 -528.28 2477.89 -529.229 0.663682 0.41722 -0.508432 -0.356302 
3708 2 -519.301 2481.18 -531.299 0.253122 0.614861 0.0449788 -0.745555 
3734 2 -612.486 2494.01 -530.045 -0.167725 0.909338 0.379585 0.0298142 
3752 2 -528.04 2516.74 -523.379 0.0337085 0.602576 -0.79258 -0.087081 
3753 2 -529.364 2517.95 -533.208 -0.0176539 -0.205833 -0.976297 -0.0645367 
3755 2 -527.152 2518.89 -552.734 0.15177 -0.74522 0.648831 -0.0251221 
3754 2 -528.778 2519.14 -542.937 0.0149581 -0.983537 -0.173012 -0.0499775 
3756 2 -524.603 2520.38 -562.115 -0.0991025 -0.0364548 0.964348 0.242658 
3757 2 -525.607 2523.98 -571.344 -0.118266 0.593157 0.783949 0.140007 
3733 2 -612.769 2489.9 -520.947 -0.0416422 0.213251 0.95589 0.197647 
3758 2 -525.582 2527.15 -580.776 -0.256411 0.962914 -0.0836177 -0.0076055 
3759 2 -525.59 2532.04 -589.3 -0.159395 0.438908 -0.856624 -0.219428 
3722 3 -592.235 2441.79 -514.715 0.0714824 -0.207241 0.771161 0.597706 
3675 2 -490.939 2384.92 -564.496 0.401591 -0.324235 0.844673 0.141859 
3707 2 -510.942 2485.17 -534.637 -0.391015 0.354998 0.445855 -0.722701 
3676 2 -485.14 2389.72 -570.751 0.175098 0.54423 0.791581 0.215763 
3677 2 -479.086 2391.41 -578.39 -0.119278 0.924787 0.145627 0.330658 
3706 2 -501.931 2487.56 -537.589 -0.814936 -0.0991912 0.566474 -0.0717474 
3705 2 -494.835 2493.35 -541.141 -0.542542 -0.548955 0.0430819 0.634382 
3678 2 -473.014 2393.6 -585.753 -0.484063 0.628498 -0.608594 -0.0169215 
3679 2 -468.456 2400.4 -591.253 -0.0488027 -0.0106856 -0.915185 -0.399925 
3680 2 -466.772 2408.27 -597.115 0.200071 -0.70656 -0.554789 -0.391093 
3681 2 -463.927 2416.14 -602.441 0.432427 -0.84683 0.286808 -0.116735 
3690 2 -419.731 2476.36 -644.86 -0.154367 0.595314 0.532718 0.581364 
3689 2 -426.802 2470.53 -640.946 0.426692 0.0859682 0.832067 0.343815 
3688 2 -432.485 2463.75 -636.573 0.498634 -0.698699 0.509548 -0.0595394 
3687 2 -438.674 2456.81 -633.619 0.338647 -0.786032 -0.176286 -0.486205 
3686 2 -445.529 2450.89 -629.476 -0.240261 -0.315439 -0.788786 -0.46967 
3685 2 -450.616 2444.27 -624.179 -0.452911 0.439305 -0.763006 -0.140378 
3684 2 -457.287 2439.02 -619.296 -0.412306 0.814129 -0.242052 0.329558 
3683 2 -460.129 2430.61 -614.656 -0.159514 0.551167 0.673242 0.466386 
3682 2 -459.986 2423.22 -608.075 0.173499 -0.402291 0.79766 0.414486 
3695 3 -421.265 2497.54 -604.101 0.867655 0.480176 -0.0794357 -0.101464 
3691 2 -414.633 2484.61 -647.017 -0.600096 0.740677 -0.169661 0.249996 
3692 2 -409.063 2492.6 -649.149 -0.518773 0.177309 -0.792047 -0.26851 
3693 2 -401.759 2498.63 -652.133 -0.0933283 -0.546139 -0.616951 -0.558923 
3701 2 -467.683 2518.61 -554.796 0.437624 0.587387 0.0970095 -0.673833 
3702 2 -474.439 2512.13 -551.528 0.876577 0.395305 -0.226499 -0.155065 
3704 2 -487.784 2499.18 -544.81 0.0854056 -0.418069 -0.416914 0.802563 
3703 2 -481.111 2506.18 -546.787 0.618232 0.115666 -0.59308 0.502659 
3700 2 -459.361 2522.74 -558.403 -0.36335 0.32233 0.482841 -0.728659 
3699 2 -451.149 2526.49 -562.442 -0.803066 -0.0944889 0.53263 -0.249926 
3694 1 -412.969 2528.69 -617.439 0.814809 0.559266 -0.115449 -0.0998979 
3698 2 -442.604 2531.02 -564.706 -0.627355 -0.559999 0.266397 0.47102 
3697 2 -435.165 2535.14 -569.912 -0.0825332 -0.436253 -0.171277 0.879509 
3741 2 -596.098 2540.26 -563.428 -0.603766 0.533008 0.366734 0.465698 
3749 3 -557.076 2541.12 -539.187 0.140115 0.843065 0.489048 -0.174474 
3742 2 -595.387 2550.07 -561.638 -0.861813 0.397847 -0.242051 -0.201016 
3743 2 -593.235 2557.37 -555.277 -0.513871 0.0873364 -0.438234 -0.732298 
3744 2 -590.262 2565.4 -550.126 0.223029 -0.325423 -0.339706 -0.85379 
3745 2 -586.352 2571.98 -543.704 0.806371 -0.482056 -0.0337406 -0.340953 
3776 3 -535.238 2645.56 -636.957 -0.882146 -0.207207 0.0803086 -0.415251 
3746 2 -584.402 2579.74 -537.957 0.833301 -0.288461 0.331672 0.335253 
3747 2 -580.692 2586.72 -531.925 0.257758 0.0884538 0.40383 0.873303 
3778 2 -574.177 2665.75 -642.608 -0.477757 0.252136 -0.188122 0.820235 
3779 2 -568.987 2665.39 -634.154 -0.981173 0.0600203 -0.140315 0.118359 
3780 2 -566.3 2666.07 -624.659 -0.611841 -0.246587 -0.140226 -0.738364 
3781 2 -560.977 2665.54 -616.405 0.212054 -0.268698 -0.118989 -0.932028 
3783 2 -552.789 2671.77 -599.503 0.833343 -0.212794 0.253256 0.442854 
3782 2 -557.664 2668.4 -607.44 0.850808 -0.254879 0.111294 -0.445843 
3784 2 -550.689 2676.96 -591.381 0.182028 -0.00941699 0.260745 0.948045 
3777 2 -579.607 2668.91 -650.323 0.426201 0.321995 0.0193422 0.845162 
3785 2 -550.396 2681.48 -582.481 -0.570077 -0.0348568 0.183488 0.800081 
3760 2 -525.37 2537.37 -597.561 0.144623 -0.398942 -0.867859 -0.25836 
3761 2 -524.846 2543.63 -605.288 0.381616 -0.867902 -0.22888 -0.220748 
3762 2 -521.824 2550.52 -611.77 0.386201 -0.640595 0.566936 0.345067 
3763 2 -520.644 2559.2 -616.394 0.0634972 0.0901171 0.852882 0.510333 
3764 2 -518.122 2567.72 -621.111 -0.525222 0.651932 0.398739 0.374346 
3765 2 -517.016 2577.24 -623.317 -0.6887 0.652252 -0.305361 -0.0837536 
3766 2 -514.305 2586.78 -623.821 -0.308391 0.099306 -0.794755 -0.513223 
3786 2 -553.502 2684.14 -573.397 -0.972643 0.169513 0.0917381 0.12967 
3787 2 -555.97 2687.18 -564.26 -0.742602 0.0913365 -0.0585975 -0.660883 
3767 2 -510.414 2595.55 -626.3 0.263209 -0.651903 -0.608605 -0.367891 
3774 2 -491.678 2647.08 -665.3 0.0862743 -0.504665 -0.684203 -0.519361 
3773 2 -495.261 2639.03 -660.983 -0.333119 0.263565 -0.821514 -0.380369 
3768 2 -508.97 2603.11 -632.604 0.367843 -0.919902 0.102786 -0.0889228 
3772 2 -501.093 2631.67 -657.694 -0.56486 0.71647 -0.3968 0.10077 
3696 2 -427.067 2539.24 -573.679 0.672598 -0.0634849 -0.529596 0.512943 
3770 2 -504.657 2615.87 -647.059 0.00903727 0.248011 0.846403 0.471181 
3769 2 -506.569 2609.75 -639.506 0.248015 -0.534804 0.777144 0.220276 
3771 2 -503.313 2623.02 -653.605 -0.480978 0.784943 0.31015 0.237341 
3788 2 -556.593 2690.32 -554.88 0.134394 0.0404655 0.0269872 -0.989734 
3789 2 -558.83 2690.01 -545.189 0.899891 -0.0439107 -0.177094 -0.396113 
3790 2 -561.857 2692.55 -536.064 0.863184 -0.269157 -0.143057 0.402495 
3831 2 -603.635 2798.39 -596.084 -0.147234 -0.292242 -0.248182 -0.911769 
3829 1 -588.556 2796 -640.736 -0.531123 -0.0552216 -0.547306 -0.644449 
3826 2 -550.011 2815.01 -662.018 -0.20481 -0.896857 0.302852 0.248959 
3824 2 -543.696 2812.57 -643.321 0.121285 0.0102771 -0.979545 -0.160237 
3825 2 -546.802 2814.18 -652.628 0.141863 -0.804508 -0.565431 0.113706 
3823 2 -542.839 2810.7 -633.624 0.0235415 0.736677 -0.667573 -0.105355 
3822 2 -544.812 2810.69 -623.935 0.0521281 0.984808 0.107173 0.126295 
3817 2 -552.823 2797.34 -578.423 0.142982 -0.141386 -0.969925 -0.137152 
3816 2 -551.095 2794.56 -568.923 -0.0578047 0.680649 -0.716738 -0.14022 
3815 2 -544.887 2795 -561.205 0.0222044 0.931228 0.0637733 -0.358126 
3818 2 -554.328 2801.25 -587.411 0.0134376 -0.910736 -0.412187 -0.0219501 
3819 2 -554.168 2802.72 -597.197 0.19179 -0.935196 0.28841 -0.0737931 
3820 2 -552.657 2805.72 -606.605 0.22871 -0.377281 0.89025 0.113162 
3821 2 -549.27 2808.24 -615.588 0.153404 0.486558 0.829584 0.22698 
3814 2 -539.378 2795.7 -553.095 -0.265579 0.411538 0.860147 -0.142305 
3813 2 -533.149 2796.64 -545.378 -0.322191 -0.303488 0.893409 0.0768636 
3812 2 -528.252 2798.01 -536.869 -0.130415 -0.91452 0.271516 0.270045 
3832 2 -597.449 2801.66 -589.035 0.62661 -0.485433 0.197813 -0.576702 
3811 2 -530.257 2799.33 -527.302 -0.146887 -0.725335 -0.671667 -0.034293 
3830 3 -565.66 2817.77 -625.734 -0.487154 -0.0619298 -0.55437 -0.671952 
3833 2 -589.834 2806.44 -585.045 0.764675 -0.295965 0.541094 0.186801 
3834 2 -582.743 2813.15 -583.068 0.230904 -0.00595749 0.730212 0.642992 
3835 2 -578.994 2822.23 -582.795 -0.311487 0.62552 0.222895 0.679719 
3791 2 -566.887 2694.92 -527.883 0.292803 -0.305277 0.174906 0.88909 
3792 2 -570.82 2699.76 -520.317 -0.378701 -0.143179 0.386041 0.82889 
3836 2 -571.694 2828.87 -582.412 -0.649728 0.605185 -0.443845 0.120856 
3837 2 -564.374 2835.21 -583.977 -0.409655 0.21486 -0.824165 -0.326757 
3810 2 -532.827 2799.89 -517.791 -0.0909122 0.0794576 -0.99151 0.0482713 
3838 2 -558.82 2842 -588.522 -0.16216 -0.661233 -0.512774 -0.523009 
3839 2 -550.551 2845.96 -592.257 0.496091 -0.735682 0.0596795 -0.457279 
3840 2 -543.491 2853.02 -593.049 0.580978 -0.538123 0.58408 0.178154 
3841 2 -538.903 2861.41 -595.826 0.340107 0.0920788 0.699218 0.622047 
3842 2 -533.366 2869.48 -595.285 -0.406858 0.499025 0.427077 0.634859 
3843 2 -529.821 2878.79 -593.928 -0.780568 0.589177 -0.132653 0.161205 
3844 2 -526.759 2887.91 -591.372 -0.570126 0.398746 -0.430247 -0.575192 
3845 2 -525.987 2896.93 -587.43 0.0742363 -0.0443542 -0.43401 -0.896748 
3846 2 -525.172 2904.82 -581.697 0.763244 -0.39568 -0.190169 -0.474059 
3847 2 -524.171 2912.44 -575.452 0.863232 -0.253386 0.187379 0.394353 
3848 2 -522.154 2918.68 -568.089 0.245101 0.0969064 0.182484 0.947224 
3849 2 -518.84 2921.47 -559.1 -0.511616 0.268164 -0.0400385 0.815312 
3857 3 -515.59 2969.75 -532.511 -0.640976 -0.143189 0.752648 -0.0465686 
3850 2 -514.294 2923.34 -550.529 -0.963111 0.192324 -0.135261 0.130894 
3851 2 -510.932 2926.27 -541.672 -0.678789 -0.0668698 -0.520276 -0.513893 
3852 2 -502.868 2929.58 -537.015 -0.148302 -0.404299 -0.0442288 -0.901439 
3853 2 -495.35 2929.73 -530.358 0.682164 -0.316431 0.113952 -0.64926 
3856 1 -482.429 2980.01 -528.342 -0.652443 -0.17603 0.732136 -0.0854851 
3854 2 -489.782 2932.53 -522.641 0.820425 0.0496418 0.541376 0.177062 
3855 2 -480.87 2933.88 -518.5 0.380549 0.436489 0.30912 0.75439 
3978 2 -708.833 3075.27 -588.627 -0.225316 0.20552 -0.267515 -0.914019 
3983 2 -713.244 3104.74 -549.286 -0.936686 0.215653 0.0105066 0.275685 
3982 2 -712.781 3098.98 -557.237 -0.470007 0.135464 0.27436 0.827931 
3981 2 -713.234 3092.92 -565.116 0.422049 -0.146408 0.249747 0.859108 
3980 2 -712.536 3086.96 -573.125 0.91534 -0.336999 0.000149381 0.220419 
3979 2 -710.68 3080.85 -580.658 0.714691 -0.174741 -0.313414 -0.600378 
3984 2 -713.098 3107.73 -540.014 -0.735444 0.294508 -0.0942236 -0.602917 
3985 2 -715.247 3112.95 -531.818 0.152392 0.101826 -0.139699 -0.973084 
3977 2 -702.562 3070.56 -594.589 -0.811298 0.388105 0.255575 -0.354755 
3976 2 -699.199 3068.35 -603.558 -0.856288 -0.00371619 0.237391 0.458696 
3975 2 -693.183 3064.79 -610.666 -0.0805889 -0.30419 0.236502 0.919261 
3974 2 -687.149 3059.94 -616.971 0.727154 -0.430959 -0.140104 0.515648 
3973 2 -680.726 3054.58 -622.192 0.863611 -0.256714 -0.381161 -0.207341 
3972 2 -672.14 3051.06 -625.593 0.406602 0.317751 -0.487018 -0.704643 
3986 2 -717.726 3115.22 -522.454 0.879425 -0.0512657 -0.172608 -0.44067 
3971 2 -665.068 3045.23 -629.233 -0.362024 0.548625 -0.116427 -0.744577 
3970 2 -657.461 3042 -634.655 -0.806662 0.358239 0.390102 -0.262261 
3969 2 -652.06 3040.03 -642.748 -0.889157 -0.0215897 0.242607 0.387397 
3912 2 -651.809 3118.61 -660.458 0.75487 -0.386762 0.512788 -0.132797 
3913 2 -642.835 3122.41 -658.789 0.523734 0.0727266 0.595942 0.604373 
3965 3 -645.863 3086.32 -632.265 0.32264 -0.522859 -0.247649 0.749128 
3968 2 -644.675 3041.6 -649.143 -0.300912 -0.464055 0.0645013 0.830629 
3967 2 -637.361 3044.47 -655.158 0.475479 -0.318878 -0.341276 0.745498 
3966 2 -631.599 3046.9 -662.885 0.948611 0.130562 -0.287241 -0.0241528 
3964 1 -613.492 3086.74 -645.412 0.361952 -0.518106 -0.177908 0.754258 
3873 2 -567.401 3054.55 -604.636 -0.600471 0.71818 -0.314288 0.157719 
3874 2 -560.757 3061.46 -606.31 -0.635862 0.162618 -0.638122 -0.402537 
3870 2 -580.209 3033.45 -588.979 0.391392 -0.797616 0.458304 -0.0240378 
3869 2 -580.866 3026.21 -582.212 0.370461 -0.878944 -0.268015 -0.135585 
3871 2 -576.117 3039.37 -595.769 0.327899 -0.0731775 0.875709 0.346787 
3872 2 -571.594 3046.43 -600.934 -0.272579 0.66978 0.48094 0.495774 
3868 2 -576.683 3020.87 -574.949 0.277407 -0.230337 -0.89661 -0.25706 
3961 2 -634.406 3134.09 -618.957 0.5175 -0.275274 0.6375 -0.500012 
3962 2 -625.005 3130.97 -618.447 0.516267 0.412434 0.746382 0.0792519 
3963 2 -616.574 3127.97 -622.631 0.247246 0.834951 0.127269 0.474898 
3867 2 -574.161 3014.79 -567.607 -0.0973184 0.595617 -0.739778 -0.297486 
3866 2 -568.949 3009.73 -560.914 -0.307624 0.918624 0.0574509 -0.241241 
3865 2 -562.469 3007.89 -553.645 -0.356673 0.414074 0.832481 -0.0911186 
3864 2 -555.738 3003.1 -548.151 -0.260397 -0.277376 0.864273 0.329072 
3875 2 -554.03 3068.76 -605.577 -0.0412036 -0.38482 -0.466875 -0.795137 
3876 2 -547.314 3075.59 -603.165 0.541712 -0.621313 0.046772 -0.564208 
3863 2 -546.661 3001.26 -544.598 -0.0303372 -0.807641 0.156209 0.567798 
3877 2 -540.048 3082.01 -600.723 0.742114 -0.541109 0.35534 0.173788 
3878 2 -537.213 3091.3 -598.41 0.401217 0.0917323 0.442517 0.796736 
3862 2 -538.376 3002.6 -539.399 0.309092 -0.614459 -0.634621 0.352361 
3879 2 -533.042 3098.08 -592.418 -0.361371 0.299531 0.096167 0.877749 
3880 2 -527.645 3101.95 -585.014 -0.884161 0.234988 -0.339001 0.219358 
3861 2 -529.817 3005.95 -535.482 0.520059 0.106311 -0.845793 0.053582 
3914 2 -635.468 3128.27 -655.777 -0.156442 0.456592 0.260437 0.836195 
3881 2 -521.232 3104.69 -578.009 -0.813868 -0.258857 -0.168036 -0.492317 
3915 2 -628.906 3134.07 -651.432 -0.717708 0.46101 -0.278378 0.441443 
3860 2 -520.61 3009.8 -535.195 0.474145 0.650177 -0.352192 -0.47793 
3916 2 -620.714 3137.62 -647.183 -0.736172 0.143668 -0.579155 -0.319358 
3960 2 -641.397 3141 -617.687 -0.305879 -0.750936 0.179344 -0.557107 
3917 2 -613.075 3143.45 -644.399 -0.161352 -0.268984 -0.458393 -0.831558 
3882 2 -516.068 3102.18 -570.054 0.0387413 -0.285262 0.156053 -0.944866 
3859 2 -512.833 3015.49 -537.254 0.0126168 0.527167 0.375241 -0.762319 
3884 3 -509.384 3127.13 -614.963 -0.539231 0.550541 0.635883 -0.0422776 
3858 2 -504.573 3019.92 -540.188 -0.62092 0.10826 0.594323 -0.499519 
3886 2 -474.345 3128.64 -648.081 0.513344 -0.711473 -0.479421 -0.0209688 
3885 2 -466.348 3124.56 -643.983 0.487868 0.0204822 -0.830554 -0.267854 
3887 2 -479.577 3135.58 -652.902 0.381681 -0.777983 0.259386 0.426358 
3888 2 -483.884 3143.76 -656.521 -0.162126 -0.391071 0.715788 0.555362 
3883 1 -482.383 3108.91 -602.444 -0.570616 0.533061 0.620792 -0.0697226 
4025 2 -843.224 3183.31 -666.313 0.266952 -0.219528 -0.387306 -0.854715 
4026 2 -841.36 3191.24 -660.934 0.81329 -0.515133 -0.122871 -0.241039 
4027 2 -840.765 3200.25 -656.832 0.695453 -0.568522 0.232355 0.373015 
4028 2 -840.288 3210.03 -655.209 0.401268 0.0226638 0.614291 0.679056 
4029 2 -835.346 3218.23 -653.261 -0.314636 0.47495 0.402597 0.716479 
4031 2 -823.344 3233.34 -651.259 -0.626793 0.199959 -0.615305 -0.43422 
4030 2 -830.803 3226.81 -651.1 -0.615936 0.657674 -0.260531 0.346716 
4032 2 -817.321 3241.07 -649.326 -0.156791 -0.433138 -0.580688 -0.671275 
4037 2 -787.884 3278.4 -659.841 -0.308055 0.755186 -0.554032 0.166867 
4019 3 -803.08 3162.53 -663.921 0.725988 -0.49004 0.161418 0.454694 
4001 2 -797.343 3146.87 -538.152 -0.0435113 0.782964 -0.619323 -0.03889 
4002 2 -796.768 3148.16 -547.849 0.0827116 -0.0254054 -0.995465 -0.0395318 
4033 2 -810.009 3247.39 -649.904 0.46087 -0.70901 -0.133712 -0.516744 
4056 2 -766.238 3227.77 -660.601 -0.41823 0.0769004 0.0529562 -0.90353 
4000 2 -800.355 3147.43 -528.802 0.0668343 0.988518 0.101731 0.0895366 
4003 2 -798.279 3148.55 -557.565 0.0888921 -0.739525 -0.662335 -0.0807034 
3999 2 -803.44 3150.57 -519.965 0.25218 0.478561 0.839144 -0.05676 
4004 2 -798.654 3151.29 -567.024 0.071003 -0.976443 0.123541 0.162034 
4005 2 -800.954 3154.37 -576.153 0.0582259 -0.449614 0.874501 0.172352 
4006 2 -801.444 3157.73 -585.478 0.0382783 0.31254 0.831154 0.458297 
4007 2 -798.158 3164.31 -592.138 -0.166249 0.876964 0.374125 0.251646 
4034 2 -804.294 3255.58 -650.952 0.625494 -0.629978 0.447945 0.10597 
4016 2 -757.612 3155.1 -663.933 -0.315265 -0.122966 -0.818304 0.464614 
4057 2 -767.074 3227.81 -650.752 0.559628 -0.00667995 0.0688169 -0.825855 
4036 2 -794.205 3271.64 -656.305 -0.239432 0.758051 0.330453 0.508755 
4058 2 -766.114 3226.4 -641.043 0.997426 0.0660292 0.0112419 0.0255836 
4015 2 -762.101 3161.45 -657.797 0.0880842 0.595365 -0.668298 0.437218 
4035 2 -799.766 3264.22 -653.073 0.276774 0.0790859 0.784583 0.549154 
4014 2 -767.364 3164.88 -650.051 0.260522 0.921811 0.182955 0.221177 
4013 2 -773.03 3167.68 -642.376 0.335498 0.374561 0.864032 0.0243491 
4059 2 -765.729 3224.64 -631.357 0.528331 0.20274 -0.0821712 0.820373 
4012 2 -778.736 3171.03 -634.818 0.134843 -0.475631 0.824865 -0.274209 
4008 2 -795.17 3169.79 -599.715 -0.10084 0.778098 -0.560871 0.264231 
4009 2 -790.246 3169.39 -608.095 -0.115083 0.0582608 -0.984816 -0.116186 