ITEM: TIMESTEP
100000000
ITEM: NUMBER OF ATOMS
4067
ITEM: BOX BOUNDS pp pp pp
-4.6310929470000001e+03 4.6704658980000004e+03
-4.6310929470000001e+03 4.6704658980000004e+03
-4.6310929470000001e+03 4.6704658980000004e+03
ITEM: ATOMS id type x y z c_q[1] c_q[2] c_q[3] c_q[4] 
3396 2 -672.943 1926.09 -587.778 -0.0260032 0.12748 0.959625 -0.249384 
3395 2 -671.592 1931.18 -579.38 -0.245624 -0.739216 0.62018 -0.0927633 
3398 3 -687.152 1972.9 -570.244 0.996686 -0.0199492 -0.069741 -0.0368239 
3391 2 -669.01 1951.03 -546.805 0.237646 0.968904 0.0161049 0.0670021 
3390 2 -675.173 1952.45 -539.096 0.286209 0.433647 0.851003 0.076347 
3389 2 -681.309 1952.69 -531.364 0.295686 -0.377126 0.855147 -0.197662 
3397 1 -684.321 1968.57 -604.793 0.989917 -0.0687062 -0.105628 -0.0647019 
3401 2 -690.911 2006.19 -585.221 0.816743 0.316726 0.232195 0.42273 
3400 2 -697.416 2010.32 -591.366 0.799399 0.0152699 0.427542 -0.421825 
3399 2 -699.497 2013.02 -600.614 -0.00299527 -0.056229 0.211493 -0.975756 
3402 2 -684.138 2003.38 -578.592 0.267538 0.31647 -0.213675 0.884655 
3403 2 -680.567 1997.48 -571.572 -0.450736 0.103698 -0.153842 0.873164 
3404 2 -677.546 1995.16 -562.512 -0.988945 -0.0785657 -0.0849839 0.0926974 
3405 2 -675.477 1993.52 -552.947 -0.722383 -0.157914 -0.217314 -0.637182 
3388 2 -688.212 1951.7 -524.171 0.128857 -0.881659 0.256772 -0.374354 
3387 2 -694.589 1950.9 -516.676 -0.107302 -0.868463 -0.360375 -0.323092 
3406 2 -671.721 1994.18 -543.86 0.064085 -0.211395 0.0886575 -0.97126 
3392 2 -667.508 1946.53 -555.522 0.0994357 0.566667 -0.759575 0.303392 
3394 2 -669.061 1937.18 -572.038 -0.243339 -0.947063 -0.169741 0.122661 
3407 2 -668.141 1993.09 -534.745 0.764802 -0.249946 0.254555 -0.536476 
3393 2 -665.872 1940.91 -563.446 0.0547129 -0.398689 -0.883417 0.240058 
3408 2 -662.175 1994.91 -527.039 0.868856 -0.0861794 0.407462 0.267649 
3409 2 -655.306 1998.3 -520.709 0.311822 0.246719 0.231425 0.887885 
3777 2 -462.535 2631.21 -557.376 -0.766028 0.565124 -0.176066 0.250671 
3778 2 -456.518 2638.66 -554.234 -0.712999 0.182818 -0.427923 -0.524492 
3779 2 -451.629 2645.25 -548.77 -0.17169 -0.149058 -0.355377 -0.906649 
3780 2 -448.485 2650.95 -541.498 0.675919 -0.321388 -0.179308 -0.638507 
3775 1 -461.89 2664.08 -591.253 -0.429641 -0.358377 -0.371657 -0.740841 
3776 3 -434.379 2672.61 -571.401 -0.392146 -0.348395 -0.374616 -0.764529 
3781 2 -446.29 2657.51 -534.486 0.793212 -0.581569 0.0114561 0.18017 
3782 2 -447.094 2666.5 -530.625 0.280783 -0.259597 0.616041 0.688668 
3783 2 -446.68 2676.36 -529.52 -0.421462 0.279527 0.617701 0.602229 
3784 2 -447.351 2686.14 -528.138 -0.846257 0.526401 -0.0531616 0.0626462 
3766 2 -371.439 2686.46 -601.049 -0.0924735 0.694333 0.107448 -0.705553 
3767 2 -381.28 2685.85 -601.166 0.407464 0.518569 -0.535677 -0.52736 
3765 2 -361.577 2686.01 -601.652 -0.596767 0.424143 0.515704 -0.444995 
3755 2 -301.07 2671.83 -543.063 0.0866046 -0.774155 -0.617398 -0.109557 
3754 2 -303.974 2668.18 -534.264 -0.166226 0.0241644 -0.962263 -0.214091 
3756 2 -299.41 2674.09 -552.529 0.0618744 -0.969616 0.129195 0.198308 
3757 2 -302.587 2676.41 -561.649 -0.284347 -0.372637 0.882087 0.0470267 
3753 2 -307.828 2666.59 -525.368 -0.245846 0.653588 -0.712504 0.0687024 
3752 2 -310.562 2664.12 -516.285 -0.0776871 0.959294 0.214995 0.165821 
3758 2 -307.421 2675.96 -570.228 -0.309033 0.48097 0.810212 -0.129315 
3760 2 -318.961 2677.23 -586.226 0.273825 0.554471 -0.727708 -0.296686 
3759 2 -312.679 2676.34 -578.525 -0.0959788 0.922281 0.210641 -0.309543 
3761 2 -326.55 2678.75 -592.475 0.331846 -0.164019 -0.928806 0.017182 
3762 2 -332.951 2681.14 -599.574 0.345582 -0.733015 -0.34728 0.471867 
3763 2 -342.131 2682.35 -603.313 -0.229526 -0.599348 0.355245 0.679633 
3764 2 -351.927 2684.1 -602.647 -0.681234 -0.152946 0.657717 0.282729 
3829 1 -612.792 2736.8 -552.926 0.840288 -0.455153 0.228205 -0.186208 
3831 2 -611.201 2774.63 -581.155 0.893122 -0.283703 0.274312 -0.215864 
3832 2 -604.899 2779.2 -575.225 0.635971 0.0351297 0.503481 0.583792 
3833 2 -597.291 2783.9 -570.975 -0.0989839 0.432739 0.153296 0.882859 
3834 2 -590.104 2787.44 -565.211 -0.729414 0.472637 -0.235249 0.435002 
3835 2 -582.425 2792.53 -561.343 -0.758754 0.149644 -0.536065 -0.338427 
3836 2 -575.06 2798.06 -557.591 -0.0708044 -0.454473 -0.526089 -0.715312 
3837 2 -567.662 2804.8 -557.104 0.527748 -0.696241 0.00122862 -0.486548 
3838 2 -560.929 2812.06 -556.38 0.687601 -0.526474 0.45553 0.206209 
3840 2 -554.179 2830.4 -553.028 -0.360982 0.362209 0.302253 0.80445 
3841 2 -550.957 2838.56 -548.312 -0.864663 0.42614 -0.155643 0.215725 
3839 2 -557.479 2821.22 -554.816 0.356353 -0.0163122 0.656903 0.664248 
3830 3 -591.793 2758.8 -535.708 0.859446 -0.40584 0.287774 -0.117609 
3822 2 -555.979 2742.54 -518.444 -0.881568 -0.0514704 0.432547 -0.181911 
3821 2 -549.41 2745.55 -525.099 -0.661703 -0.393654 0.102256 0.629865 
3820 2 -542.715 2747.12 -532.073 0.0319018 -0.405612 -0.0760137 0.91032 
3819 2 -535.988 2750.09 -538.623 0.611904 -0.183608 -0.386184 0.665375 
3866 2 -639.306 2800.89 -524.298 0.278735 -0.198615 -0.0147389 0.93949 
3864 2 -633.049 2804.39 -541.912 0.887303 0.111465 0.0257781 -0.446772 
3865 2 -633.842 2801.84 -532.46 0.841501 -0.103732 -0.268212 0.457361 
3861 2 -635.017 2818.31 -567.596 -0.955223 -0.259762 0.0760799 -0.119521 
3862 2 -635.749 2813.04 -559.229 -0.53154 -0.22412 0.222136 -0.78606 
3863 2 -634.046 2807.28 -551.335 0.182571 -0.0455018 0.237383 -0.95302 
3818 2 -532.108 2756.09 -545.422 0.896554 0.337731 -0.255218 0.130356 
3817 2 -527.062 2763.02 -550.527 0.687221 0.514952 0.039289 -0.51089 
3860 2 -633.825 2825.19 -574.491 -0.723469 -0.310107 -0.233914 0.570711 
3859 2 -634.971 2831.58 -581.936 -0.0979665 -0.0128491 -0.382467 0.918671 
3816 2 -522.358 2770.19 -555.389 0.00370615 0.310997 0.467716 -0.82735 
3858 2 -636.175 2838.79 -588.748 0.554769 0.343494 -0.277425 0.70518 
3815 2 -517.285 2777.46 -559.707 -0.653164 -0.135447 0.537098 -0.516292 
3867 2 -643.323 2801.94 -515.27 -0.626339 -0.0990854 0.23436 0.736856 
3828 2 -601.27 2712.43 -514.213 -0.383889 -0.795778 0.135219 0.448422 
3814 2 -512.975 2786.02 -561.834 -0.78459 -0.582543 0.112658 0.179918 
3768 2 -390.74 2688.66 -602.119 0.62708 -0.228171 -0.730945 -0.142925 
3769 2 -399.425 2693.36 -603.322 0.505184 -0.545428 -0.403018 0.533736 
3813 2 -506.827 2793.6 -563.461 -0.138133 -0.485684 -0.385817 0.772124 
3812 2 -501.949 2802.14 -563.011 0.350002 0.0457888 -0.725103 0.591294 
3811 2 -496.681 2810.48 -564.455 0.734523 0.543359 -0.405101 0.0336293 
3810 2 -492.556 2819.23 -566.793 0.535717 0.609861 0.185174 -0.553884 
3809 2 -491.347 2827.65 -571.925 -0.0230958 0.0245596 0.428601 -0.902865 
3774 2 -445.649 2703.43 -611.548 0.440224 0.611822 -0.467955 -0.461405 
3773 2 -435.996 2703.7 -609.128 -0.164017 0.748184 0.200807 -0.610734 
3803 3 -449.68 2829.79 -561.547 0.664192 0.196017 -0.509447 0.510774 
3772 2 -427.175 2700.6 -605.849 -0.543765 0.415235 0.723006 -0.0957121 
3771 2 -418.407 2698.48 -601.739 -0.399869 -0.362103 0.788793 0.294605 
3770 2 -408.949 2695.71 -602.504 -0.127515 -0.604514 0.248335 0.746078 
3800 2 -406.146 2823.54 -541.094 -0.126683 -0.403266 -0.753736 -0.5032 
3801 2 -400.286 2830.37 -545.251 0.328059 -0.844107 -0.165673 -0.390402 
3799 2 -412.235 2816.54 -537.693 -0.526076 0.279179 -0.753715 -0.277879 
3798 2 -418.276 2809.99 -533.145 -0.467734 0.820944 -0.216608 0.245678 
3797 2 -420.869 2801.15 -529.278 -0.221927 0.583035 0.579544 0.524355 
3796 2 -422.969 2793.1 -523.8 0.154258 -0.125612 0.909212 0.365731 
3795 2 -427.102 2784.83 -520.392 0.593327 -0.608205 0.506218 0.147625 
3808 2 -489.539 2836.48 -576.163 -0.652821 -0.281973 0.424569 -0.560408 
3785 2 -444.561 2695.15 -525.374 -0.549618 0.218428 -0.629837 -0.503502 
3786 2 -440.44 2704.1 -524.046 0.224397 -0.265149 -0.404961 -0.845783 
3787 2 -437.49 2712.55 -519.642 0.825384 -0.506168 0.0465284 -0.245704 
3788 2 -434.808 2720.88 -515.02 0.644567 -0.498919 0.322901 0.480987 
3794 2 -429.488 2776.3 -515.85 0.398922 -0.800172 -0.324834 -0.308333 
4007 2 -825.78 2919.54 -514.705 0.413434 0.542596 0.544832 0.487667 
4008 2 -816.438 2920.63 -517.804 -0.19961 0.82853 -0.17724 0.492219 
4020 2 -781.973 2974.78 -601.639 0.598862 0.116552 0.337999 0.716614 
4021 2 -777.052 2978.34 -593.789 -0.194331 0.096129 -0.00125903 0.976214 
4012 2 -789.395 2906.87 -538.867 0.0551838 -0.509876 0.716971 -0.472159 
4017 2 -767.337 2887.81 -576.144 -0.126925 -0.573391 -0.803827 0.0947366 
4016 2 -768.782 2890.68 -566.644 -0.0614529 0.190435 -0.966562 0.160364 
4015 2 -773.341 2892.13 -558.061 -0.0372312 0.827324 -0.478055 0.292597 
4014 2 -777.652 2895.43 -549.78 0.250679 0.852747 0.439933 0.128226 
4013 2 -783.556 2900.84 -543.923 0.418455 0.280805 0.833367 -0.227033 
4018 1 -773.704 2928.42 -599.188 -0.987188 0.119231 0.0914098 0.0537394 
4019 3 -777.948 2937.56 -565.531 -0.978949 0.145424 0.0786666 0.119678 
4022 2 -774.93 2979.04 -584.122 -0.905312 0.119564 -0.0466702 0.40489 
4025 2 -773.814 2982.13 -555.289 0.753617 0.0528281 -0.261992 -0.600526 
4023 2 -771.797 2980.76 -574.869 -0.740174 0.0252214 -0.0307094 -0.67124 
4024 2 -771.865 2981.19 -565.052 0.155369 0.0832493 -0.0436636 -0.983374 
4011 2 -794.755 2913.52 -533.733 -0.382344 -0.870299 -0.0278842 -0.309217 
4010 2 -799.998 2919.7 -527.918 -0.505725 -0.528809 -0.676483 0.0835061 
4026 2 -777.385 2983.69 -546.247 0.960366 -0.106887 -0.0788696 0.245055 
4009 2 -807.728 2922 -522.152 -0.36702 0.3438 -0.82777 0.248788 
4027 2 -779.953 2985.49 -536.823 0.365919 -0.283826 0.060322 0.884255 
4028 2 -783.799 2989.69 -528.734 -0.518107 -0.0768386 0.45282 0.721536 
3842 2 -546.456 2846.37 -543.918 -0.524445 0.143723 -0.442191 -0.71328 
3843 2 -543.753 2854.42 -539.039 0.408139 -0.102585 -0.322595 -0.84784 
3844 2 -544.387 2861.24 -531.821 0.843932 -0.406501 -0.271626 -0.220805 
3845 2 -547.171 2868.96 -526.396 0.624915 -0.52522 0.00764854 0.577553 
3846 2 -553.651 2875.12 -522.169 -0.196737 -0.429044 0.149033 0.86891 
3856 1 -636.117 2876.76 -560.896 -0.170198 -0.304804 0.325644 -0.878683 
3857 3 -620.623 2852.39 -541.055 -0.114443 -0.301541 0.333717 -0.885781 
3855 2 -626.391 2899.89 -520.924 -0.355648 0.554722 0.723083 0.20724 
3847 2 -561.578 2877.56 -516.649 -0.811433 -0.234686 0.455916 0.280429 
3854 2 -623.696 2892.41 -514.886 -0.11445 -0.069596 0.889112 0.43765 
3807 2 -485.265 2844.95 -578.422 -0.74993 -0.6212 0.118325 0.194202 
3806 2 -480.835 2851.42 -584.533 -0.30727 -0.405057 -0.224136 0.831431 
3802 1 -430.09 2857.53 -569.592 0.654777 0.217738 -0.597795 0.408042 
3805 2 -474.079 2858.24 -586.792 0.439193 -0.139449 -0.630622 0.624483 
3804 2 -471.45 2867.06 -590.277 0.762095 0.460349 -0.359671 0.279154 
4067 2 -866.787 3019.26 -517.299 0.454029 0.145421 -0.786863 -0.391864 
4066 2 -858.691 3014.62 -514.49 -0.0782337 0.74114 -0.309837 -0.590417 
4029 2 -788.633 2995.52 -522.282 -0.900984 0.362405 0.0889568 0.221308 
4030 2 -788.837 3002.8 -515.662 -0.707639 0.162088 -0.198896 -0.658343 
2670 2 -167.231 1007.9 -370.205 -0.602864 -0.177451 0.631798 0.45376 
2671 2 -176.524 1010.78 -368.753 -0.700694 0.372932 0.535979 -0.287535 
2676 2 -213.932 1039.5 -367.704 0.194294 -0.400163 0.428426 0.786492 
2677 2 -218.272 1048.04 -364.879 -0.420294 -0.0676605 0.432631 0.794736 
2675 2 -207.122 1032.29 -368.268 0.654622 -0.662246 -0.201076 0.304086 
2668 1 -144.798 1046.95 -384.294 -0.215851 0.588785 -0.100195 -0.772464 
2667 2 -142.21 1093.21 -393.153 -0.0195207 0.765413 -0.555594 0.324156 
2666 2 -147.283 1095.72 -385.117 0.200699 0.919503 0.235865 0.24208 
2665 2 -152.946 1098.18 -377.358 0.325993 0.404548 0.852576 0.0564319 
2664 2 -159.774 1100.46 -370.473 0.33007 -0.356718 0.82587 -0.28591 
2669 3 -175.642 1059.06 -373.068 -0.193282 0.590588 -0.0644315 -0.780831 
2663 2 -164.389 1101.75 -361.845 -0.0306387 -0.965354 0.160983 -0.203071 
2672 2 -185.935 1013.84 -367.5 -0.271272 0.694126 -0.0408602 -0.665531 
2673 2 -195.164 1017.38 -368.371 0.217846 0.419109 -0.618 -0.628464 
2674 2 -202.905 1023.47 -369.491 0.602183 -0.346814 -0.565284 -0.444467 
3100 1 -286.38 1594.25 -379.53 0.713688 -0.322628 -0.209959 -0.585216 
3102 2 -246.844 1612.97 -397.111 0.480301 -0.190477 -0.725285 -0.454963 
3103 2 -252.779 1620.73 -398.513 0.780969 -0.576918 -0.231077 -0.0620991 
3180 2 -505.856 1695.26 -402.668 0.433989 0.54303 0.691576 -0.196202 
3179 2 -510.017 1702.41 -397.127 0.0813954 -0.270778 0.851433 -0.44172 
3178 2 -510.041 1711.32 -392.757 -0.509374 -0.762185 0.325688 -0.231384 
3177 2 -507.474 1720.17 -389.064 -0.420487 -0.853404 -0.136029 0.276385 
3176 2 -504.966 1728.79 -384.789 -0.0757998 -0.381029 -0.777437 0.494634 
3175 2 -499.274 1735.9 -380.89 0.45965 0.276925 -0.783429 0.313486 
3174 2 -492.064 1742.58 -380.819 0.666729 0.627246 -0.359549 -0.180995 
3171 2 -464.675 1751.59 -381.883 -0.789156 -0.151547 0.58612 0.103583 
3170 2 -455.72 1751.89 -386.025 -0.416715 -0.49187 0.28672 0.708664 
3172 2 -474.402 1751.23 -379.885 -0.497681 0.298258 0.695154 -0.424402 
3173 2 -483.621 1747.77 -381.092 0.217825 0.665268 0.192969 -0.687556 
3163 2 -406.751 1719.44 -413.142 -0.423297 -0.388848 0.495499 0.651228 
3162 2 -398.574 1718.71 -418.729 0.131752 -0.44171 -0.0168624 0.887271 
3164 2 -416.179 1721.95 -410.986 -0.725178 0.271673 0.550645 0.311609 
3165 2 -422.628 1729.13 -408.486 -0.740045 0.553984 0.119526 -0.362145 
3169 2 -448.449 1752.72 -392.665 0.275984 -0.384489 -0.150258 0.868 
3168 2 -441.263 1749.44 -398.517 0.869737 -0.229915 -0.346334 0.265988 
3166 2 -427.938 1736.44 -404.543 -0.0141264 0.490258 -0.41183 -0.768013 
3167 2 -434.48 1743.63 -402.814 0.561606 0.0987906 -0.55601 -0.604725 
3161 2 -391.023 1715.23 -423.879 0.815292 -0.358478 -0.334127 0.308465 
3160 2 -383.247 1715.94 -430.012 0.830839 0.209017 -0.375466 -0.353616 
3159 2 -375.482 1713.36 -435.396 0.0519218 0.433387 -0.149441 -0.887213 
3181 1 -481.585 1683.48 -363.947 0.120378 0.0698967 -0.651986 -0.745344 
3158 2 -368.448 1709.25 -441.025 -0.663364 0.464267 0.204789 -0.549969 
3157 2 -364.795 1707 -449.945 -0.900496 0.0860274 0.254012 0.342322 
3156 2 -362.319 1705.81 -459.464 -0.272109 -0.0885038 0.0732194 0.955386 
3104 2 -255.721 1630.06 -397.054 0.525362 -0.535135 0.36376 0.552544 
3105 2 -257.522 1639.65 -395.305 -0.254956 -0.145856 0.636683 0.712992 
3154 1 -352.254 1742.59 -487.278 -0.293258 -0.0923864 -0.212431 -0.927544 
3106 2 -262.84 1648 -394.167 -0.62608 0.530451 0.517539 0.242485 
3107 2 -266.994 1656.86 -395.415 -0.646621 0.678972 -0.147936 -0.314633 
3108 2 -269.838 1666.29 -394.82 -0.109506 0.26005 -0.628661 -0.724684 
3109 2 -272.916 1675.54 -394.194 0.571898 -0.233137 -0.660677 -0.426715 
3110 2 -277.967 1684.13 -394.086 0.738057 -0.55896 -0.183637 0.330321 
3111 2 -284.588 1690.74 -390.915 0.301258 -0.407838 0.232773 0.829897 
3112 2 -289.411 1697.47 -385.385 -0.279238 0.0625238 0.411701 0.865228 
3155 3 -341.424 1753.19 -455.525 -0.189089 -0.175575 -0.242855 -0.935115 
3113 2 -290.337 1704.84 -378.949 -0.861687 0.388323 -0.0477223 0.323146 
3137 2 -263.691 1756.3 -369.518 -0.238025 0.856569 0.398692 -0.22512 
3114 2 -287.303 1711.13 -371.914 -0.752919 0.316486 -0.271088 -0.509373 
3115 2 -286.303 1718.81 -365.55 0.110585 0.243261 -0.432729 -0.861011 
3138 2 -268.552 1758.92 -377.615 -0.0627647 0.903739 -0.401977 -0.133155 
3136 2 -258.35 1750.84 -363.206 -0.353686 0.2847 0.871227 0.186589 
3139 2 -271.52 1761.53 -386.629 0.0845064 0.177719 -0.954882 -0.222431 
3140 2 -274.823 1764.24 -395.493 0.155429 -0.645558 -0.743622 -0.0782513 
3141 2 -277.037 1767.24 -404.658 0.234971 -0.932032 0.221296 0.164723 
3142 2 -280.081 1772.6 -412.422 -0.104121 -0.416258 0.878763 0.208959 
3345 2 -678.405 1904.37 -513.534 0.40314 -0.156962 -0.3352 0.836948 
3346 2 -683.977 1900.1 -506.454 -0.434283 -0.326925 0.0407558 0.838366 
3347 2 -689.546 1898.58 -498.619 -0.922658 -0.0964964 0.373316 -0.0050789 
3348 2 -696.786 1896.8 -492.17 -0.536672 0.307333 0.0723034 -0.782497 
3349 2 -702.317 1899.4 -484.336 0.0592065 0.251539 -0.193641 -0.946428 
3350 2 -707.795 1902.29 -476.567 0.754292 0.154746 -0.487478 -0.411658 
3351 2 -716.285 1904.32 -472.048 0.728753 -0.409032 -0.460446 0.299336 
3352 2 -725.372 1907.62 -469.919 0.156335 -0.674989 0.0789569 0.716739 
3353 2 -734.669 1910.92 -468.519 -0.453717 -0.253278 0.619607 0.588284 
3354 2 -743.499 1915.06 -467.363 -0.72374 0.396039 0.565063 0.00749022 
3355 2 -751.763 1920.52 -466.709 -0.352736 0.700608 -0.0448347 -0.61864 
3343 1 -640.991 1919.52 -489.132 0.665985 -0.205661 -0.257798 0.669109 
3344 3 -664.474 1912.47 -464.253 0.630125 -0.156763 -0.207158 0.731747 
3333 2 -637.418 1918.91 -373.631 0.0771005 0.935444 -0.328986 0.103767 
3334 2 -636.961 1915.93 -383.232 0.0685807 0.349855 -0.92764 0.111272 
3339 2 -631.234 1914.27 -430.058 -0.117837 0.7568 0.609144 0.205697 
3336 2 -635.134 1910.28 -401.802 -0.00819467 -0.988958 -0.14541 0.0273957 
3337 2 -635.931 1909.94 -411.603 0.0200878 -0.731899 0.681087 0.00646568 
3335 2 -636.716 1912.22 -392.349 -0.107946 -0.449675 -0.885502 0.0450239 
3338 2 -634.694 1910.58 -421.43 0.199684 0.0971841 0.949704 0.22078 
3340 2 -628.205 1918.09 -438.538 -0.410605 0.868453 -0.224877 0.163166 
3332 2 -641.335 1919.81 -364.725 0.142883 0.869931 0.444838 0.157872 
3341 2 -624.484 1924.7 -444.894 -0.499571 0.292543 -0.780338 -0.236474 
3143 2 -283.402 1776.12 -421.093 -0.291811 0.355423 0.877639 0.13517 
3153 2 -336.53 1786.34 -495.2 0.0865968 0.089134 -0.991883 -0.0269178 
3144 2 -287.09 1780.04 -429.321 -0.362195 0.887945 0.229373 -0.166603 
3152 2 -334.879 1786.07 -485.371 0.0307024 0.768988 -0.634792 -0.0689424 
3150 2 -326.69 1792.85 -468.691 -0.172818 0.380676 0.859734 -0.293391 
3151 2 -331.398 1789.43 -476.698 0.107375 0.917362 0.304181 -0.23322 
3147 2 -306.629 1790.62 -448.3 0.411912 -0.651916 -0.566834 0.289886 
3146 2 -299.944 1787.53 -441.605 0.429879 -0.0510221 -0.884785 -0.172503 
3145 2 -292.393 1785.35 -435.764 0.119126 0.719382 -0.506273 -0.46042 
3148 2 -315.226 1792.15 -453.203 -0.0759178 -0.908006 0.18505 0.368127 
3149 2 -322.501 1793.07 -459.816 -0.211133 -0.364253 0.89932 0.118183 
3369 2 -851.158 1987.82 -417.875 -0.538715 0.490712 -0.250056 -0.637542 
3368 2 -847.233 1979.38 -420.943 -0.812687 0.54538 0.195071 -0.0636195 
3367 2 -843.197 1971.01 -424.28 -0.562679 0.149698 0.563607 0.585944 
3366 2 -838.457 1963.49 -428.653 0.0990423 -0.276932 0.45682 0.839532 
3365 2 -832.509 1955.74 -431.148 0.612056 -0.583735 0.0296125 0.532695 
3364 2 -825.015 1949.91 -433.554 0.770414 -0.181111 -0.588108 -0.166704 
3356 2 -759.983 1926.14 -466.529 0.312312 0.268776 -0.509136 -0.755646 
3363 2 -818.792 1944 -438.617 0.400904 0.142172 -0.484084 -0.764674 
3370 1 -815.418 2018.45 -420.992 0.27352 0.243009 0.852617 -0.373065 
3386 2 -702.12 1951.94 -510.373 -0.392075 -0.31183 -0.863844 -0.0530321 
3385 2 -709.913 1953.36 -504.394 -0.361514 0.377336 -0.803589 0.284903 
3384 2 -717.068 1956.33 -498.47 0.0317715 0.813275 -0.348556 0.464846 
3362 2 -809.679 1941.61 -441.394 -0.257971 0.594945 0.0180587 -0.761029 
3383 2 -723.9 1960.73 -492.738 0.354619 0.801559 0.406293 0.258213 
3357 2 -766.915 1932.53 -463.522 0.804191 -0.00539063 -0.576613 -0.144103 
3358 2 -775.845 1934.87 -459.84 0.532837 -0.475483 -0.318258 0.623468 
3359 2 -785.195 1935.04 -456.674 -0.0941765 -0.427015 0.198374 0.877175 
3360 2 -792.968 1937.54 -451.153 -0.727957 -0.184623 0.497009 0.434712 
3361 2 -801.508 1939.98 -446.873 -0.792962 0.232204 0.431349 -0.362258 
3372 2 -773.465 2032.9 -436.93 -0.404749 -0.676734 -0.550668 0.273814 
3373 2 -772.6 2024.75 -442.315 -0.434076 -0.80374 0.224769 -0.339204 
3371 3 -804.56 1991.52 -440.594 0.312479 0.300602 0.793334 -0.427337 
3374 2 -770.078 2016.43 -446.893 0.0325676 -0.367413 0.698001 -0.613793 
3375 2 -765.477 2007.96 -449.487 0.52758 0.383909 0.704148 -0.280088 
3376 2 -760.473 1999.89 -452.295 0.477263 0.80907 0.235553 0.24928 
3377 2 -755.141 1993.24 -457.402 -0.0532752 0.735362 -0.520731 0.430398 
3378 2 -748.614 1989.36 -463.852 -0.208576 -0.023662 -0.934665 0.286945 
3379 2 -744.488 1984.68 -471.553 -0.537878 -0.706533 -0.45292 0.0797636 
3380 2 -740.212 1976.55 -475.196 -0.389222 -0.836637 0.22824 -0.310565 
3381 2 -737.158 1968.83 -480.489 0.167072 -0.559223 0.667802 -0.461949 
3382 2 -730.079 1964.95 -486.177 0.360421 0.167589 0.906185 -0.144357 
3342 2 -618.452 1931.21 -449.317 -0.187628 -0.318773 -0.7808 -0.503518 
3410 2 -649.41 1999.81 -512.79 -0.534205 0.374446 -0.076702 0.754011 
3450 2 -539.364 2045.03 -506.946 -0.239231 0.651581 -0.492712 0.524829 
3411 2 -642.766 2002.29 -505.82 -0.935173 0.209378 -0.269029 0.0961035 
3412 2 -637.067 2005.66 -498.569 -0.693876 -0.315285 -0.0100435 -0.647326 
3413 2 -633.117 2001.76 -490.285 0.0115084 -0.175041 0.16541 -0.970499 
3449 2 -548.626 2046.78 -503.593 0.230146 0.798606 0.160008 0.532595 
3448 2 -557.258 2048.84 -499.385 0.501175 0.405942 0.754475 0.121662 
3431 2 -642.648 2010.48 -388.708 -0.0794409 -0.679205 -0.710977 0.163958 
3447 2 -566.073 2050.56 -495.251 0.361782 -0.303982 0.82499 -0.310001 
3446 2 -573.781 2052.1 -489.279 0.0275097 -0.87011 0.239283 -0.429994 
3445 2 -581.016 2053.18 -482.427 -0.304835 -0.663802 -0.661159 -0.171203 
3444 2 -589.841 2054.86 -478.452 -0.498761 0.0560445 -0.848433 0.168102 
3443 2 -597.513 2053.71 -472.286 -0.270962 0.736885 -0.535254 0.311582 
3442 2 -605.788 2050.92 -467.466 -0.0620711 0.852972 0.142883 0.498167 
3441 2 -614.99 2048.51 -464.706 0.492681 0.345893 0.69944 0.385237 
3440 2 -622.406 2044.86 -459.46 0.484109 -0.45306 0.747299 -0.0438081 
3439 2 -627.956 2039.6 -453.167 0.276826 -0.917063 0.00307385 -0.286973 
3414 2 -629.206 1998.9 -481.647 0.804259 0.0111393 0.116228 -0.582696 
3415 2 -628.23 1997.06 -471.931 0.896071 0.0760656 0.128047 0.41818 
3416 2 -625.968 1996.74 -462.262 0.229598 0.25074 -0.07171 0.937695 
3417 2 -621.6 1994.62 -453.549 -0.708327 -0.0342388 -0.194199 0.677781 
3418 2 -618.196 1992.2 -444.568 -0.927678 -0.262315 -0.233549 -0.126727 
3419 2 -613.505 1989.12 -436.47 -0.497336 -0.248006 -0.0622876 -0.829017 
3420 2 -607.951 1986.69 -428.7 0.234901 -0.348576 0.404402 -0.812265 
3421 2 -600.314 1981.76 -424.941 0.861951 0.0650437 0.431771 -0.25765 
3425 3 -625.803 2002.95 -392.374 -0.505107 -0.426447 0.728075 0.18143 
3422 2 -593.088 1979.07 -418.599 0.67172 0.388909 0.251238 0.578293 
3423 2 -585.851 1976.51 -412.512 -0.119996 0.413562 -0.195293 0.881152 
3437 2 -638.078 2029.12 -439.713 -0.356865 0.193382 -0.899329 -0.162658 
3428 2 -630.46 2029.1 -369.778 0.278683 0.876207 0.162171 -0.358186 
3429 2 -636.028 2023.03 -375.049 0.370123 0.723952 -0.57612 0.0835972 
3430 2 -638.883 2016.59 -382.021 0.248048 0.0407713 -0.922099 0.294182 
3433 2 -645.431 2007.76 -407.756 0.166674 -0.639376 0.74704 0.0731408 
3432 2 -644.039 2007.04 -397.9 0.0395954 -0.992458 -0.07934 0.0846398 
3424 1 -593.844 2009.83 -379.992 -0.525598 -0.492072 0.660944 0.211578 
3434 2 -644.131 2010.74 -417.3 0.0570417 0.178373 0.922462 0.337629 
3436 2 -641.143 2023.5 -432.087 -0.310706 0.86938 -0.384141 0.00869888 
3435 2 -642.523 2016.75 -424.93 -0.246964 0.822375 0.460957 0.224112 
3438 2 -632.71 2034.05 -446.53 -0.062479 -0.494031 -0.768375 -0.402032 
3427 2 -625.693 2033.23 -362.157 -0.0512869 0.54609 0.760118 -0.348391 
3451 1 -514.724 2075.89 -481.116 -0.633958 -0.138338 0.601389 0.466145 
3477 2 -719.363 2137.71 -443.914 0.467776 0.425279 0.198098 -0.749053 
3476 2 -714.806 2144.5 -449.546 -0.416191 0.0256909 0.454044 -0.787381 
3475 2 -707.984 2150.02 -454.15 -0.857169 -0.298734 0.412006 -0.0791891 
3474 2 -700.441 2152.39 -459.98 -0.469696 -0.452656 0.0872675 0.75291 
3473 2 -692.46 2157.44 -462.936 0.170015 -0.385104 -0.419158 0.804423 
3479 3 -685.598 2169.88 -420.902 -0.211922 -0.228603 -0.843298 -0.437812 
3472 2 -684.425 2162.78 -465.144 0.66035 0.0368657 -0.597555 0.45333 
3471 2 -674.486 2162.79 -465.722 0.630666 0.396125 -0.559732 -0.36338 
3478 1 -703.42 2147.6 -400.598 -0.245208 -0.194296 -0.869656 -0.381863 
3480 2 -676.249 2170.58 -369.685 -0.240249 0.661455 -0.671783 -0.231226 
3481 2 -674.623 2176.95 -376.906 0.0722968 -0.17051 -0.916973 -0.353355 
3482 2 -674.825 2184.14 -383.793 0.369099 -0.76176 -0.432306 -0.310803 
3484 2 -675.035 2198.18 -396.731 0.196048 -0.198823 0.914402 0.293092 
3485 2 -672.395 2204.17 -404.099 0.0131549 0.471678 0.792052 0.387298 
3483 2 -673.513 2192.62 -388.792 0.311114 -0.923619 0.175142 0.139507 
3486 2 -667.805 2210.09 -410.631 -0.259824 0.938114 0.153312 0.170086 
3470 2 -665.254 2159.58 -467.109 -0.00916713 0.66583 -0.221237 -0.712489 
3488 2 -665.42 2224.51 -423.46 -0.149971 0.16036 -0.718145 -0.660349 
3469 2 -656.638 2154.9 -465.912 -0.551211 0.656415 0.351283 -0.376678 
3452 3 -547.595 2087.61 -478.449 -0.653046 -0.159995 0.624144 0.397966 
3468 2 -648.26 2149.77 -466.132 -0.686452 0.148727 0.672687 0.232714 
3462 2 -593.652 2135.11 -463.396 -0.252493 0.687314 0.437045 -0.52234 
3463 2 -602.777 2134.72 -467.153 0.283882 0.672218 -0.304785 -0.612078 
3461 2 -584.251 2135.58 -460.208 -0.558607 0.177973 0.787578 -0.189751 
3464 2 -612.666 2134.34 -467.693 0.622102 0.152187 -0.724165 -0.25576 
3459 2 -565.037 2135.04 -455.92 0.158647 -0.804612 -0.0707653 0.567823 
3460 2 -574.603 2136.15 -458.359 -0.479068 -0.547591 0.518734 0.448947 
3458 2 -555.067 2135.14 -455.677 0.589688 -0.426329 -0.580909 0.36477 
3457 2 -546.146 2131.12 -454.92 0.533003 0.0282419 -0.777544 -0.332468 
3456 2 -537.27 2126.75 -453.574 0.104386 0.626123 -0.421292 -0.647755 
3455 2 -528.801 2121.81 -454.885 -0.583775 0.611751 0.142379 -0.514486 
3454 2 -519.515 2118.53 -455.465 -0.688312 0.26284 0.66923 -0.096297 
3465 2 -622.422 2136.24 -468.16 0.688365 -0.553314 -0.41072 0.226509 
3467 2 -638.831 2146.82 -465.017 -0.313239 -0.4934 0.560659 0.586599 
3466 2 -630.986 2141.35 -467.588 0.312653 -0.573389 0.128015 0.746381 
3487 2 -665.168 2216.41 -417.618 -0.344887 0.754677 -0.505696 -0.236195 
3453 2 -510.176 2115.36 -455.588 -0.573292 -0.217296 0.657604 0.437807 
3507 2 -701.482 2295.77 -393.592 0.660892 0.352765 0.541866 0.380997 
3508 2 -691.918 2295.05 -391.254 0.0379477 0.601336 0.233906 0.763048 
3505 1 -705.046 2328.67 -427.165 -0.440785 -0.564984 -0.346587 -0.605293 
3504 2 -687.168 2360.6 -456.997 0.542041 -0.639419 -0.40104 0.369461 
3503 2 -678.306 2356.34 -455.666 0.633518 -0.0796364 -0.737986 -0.218381 
3509 2 -682.564 2296.88 -388.563 -0.579334 0.501616 -0.184272 0.615465 
3502 2 -670.73 2350.13 -454.951 0.169129 0.465827 -0.582368 -0.644398 
3506 3 -670.806 2328.41 -419.815 -0.340675 -0.587002 -0.316187 -0.662869 
3510 2 -673.858 2299.88 -384.796 -0.783587 0.00771357 -0.61922 0.0499827 
3501 2 -666.654 2341.06 -454.836 -0.477745 0.692646 -0.204905 -0.500015 
3492 2 -667.223 2263.37 -427.617 0.0555596 0.32595 0.755741 0.565265 
3489 2 -665.739 2234.27 -424.94 0.407455 -0.55686 -0.532326 -0.490425 
3491 2 -665.701 2253.74 -425.951 0.413326 -0.519214 0.565115 0.490126 
3490 2 -664.869 2243.98 -426.185 0.687615 -0.719302 -0.0912096 0.0383528 
3511 2 -664.017 2299.32 -383.527 -0.475529 -0.575983 -0.46484 -0.475436 
3493 2 -662.491 2271.35 -431.23 -0.387162 0.786713 0.267109 0.399801 
3494 2 -657.959 2279.55 -434.282 -0.590828 0.691975 -0.401548 -0.104173 
3495 2 -654.072 2288.17 -437.461 -0.171412 0.245744 -0.705973 -0.64174 
3496 2 -654.274 2298.05 -438.59 0.47381 -0.395649 -0.599428 -0.50956 
3497 2 -655.425 2307.85 -438.767 0.62004 -0.782839 0.0513464 0.00877306 
3498 2 -655.611 2317.55 -440.842 0.238815 -0.571735 0.602098 0.503552 
3500 2 -662.696 2332.85 -451.049 -0.550712 0.736478 0.387504 0.0644744 
3499 2 -658.714 2326.05 -444.851 -0.232716 0.0383298 0.924286 0.300115 
3512 2 -654.189 2298.44 -383.806 0.204472 -0.687636 0.15969 -0.67812 
3513 2 -644.278 2298.83 -383.721 0.52 -0.401064 0.725011 -0.207621 
3514 2 -635.304 2300.43 -387.796 0.382871 0.2843 0.803643 0.356009 
3515 2 -626.952 2303.42 -392.134 0.24839 0.784071 0.201733 0.531826 
3516 2 -618.02 2300.48 -395.251 -0.293301 0.594793 -0.395281 0.63557 
3517 2 -608.352 2298.82 -394.915 -0.745167 0.0717662 -0.657025 0.0888487 
3518 2 -598.578 2297.54 -394.185 -0.614752 -0.363615 -0.288175 -0.637823 
3519 2 -590.311 2297.06 -388.877 -0.0608099 -0.499586 0.0641728 -0.861741 
3524 2 -547.778 2287 -368.872 -0.810684 0.0933689 -0.435953 0.379498 
3522 2 -565.204 2287.31 -377.776 0.427713 0.495534 0.250249 0.71336 
3523 2 -555.822 2286.63 -374.556 -0.238596 0.465375 -0.104882 0.845871 
3520 2 -581.995 2295.39 -383.585 0.498651 -0.273608 0.459558 -0.682123 
3521 2 -573.597 2292.07 -379.597 0.788374 0.294211 0.537907 0.0506155 
3525 2 -540.189 2285.33 -362.797 -0.817066 -0.366039 -0.21091 -0.392347 
3544 2 -565.177 2381.54 -362.416 -0.473309 0.677401 -0.185429 -0.531717 
3559 1 -665.633 2496.54 -365.271 -0.728513 -0.0412676 -0.683729 0.00891544 
3558 2 -658.825 2455.2 -387.092 -0.0186251 0.798008 -0.168359 -0.578352 
3557 2 -649.571 2453.81 -384.075 -0.45892 0.626898 0.51912 -0.356238 
3556 2 -642.332 2451.05 -377.972 -0.395868 -0.0927582 0.888123 0.214292 
3555 2 -634.449 2448.13 -372.658 -0.0260911 -0.775077 0.33271 0.536543 
3554 2 -625.805 2449.67 -368.207 0.302989 -0.647467 -0.516679 0.471198 
3553 2 -617.728 2446.17 -363.686 0.479442 -0.096421 -0.862842 -0.127838 
3560 3 -630.946 2492.6 -364.194 -0.731559 -0.0415543 -0.679842 0.03016 
3545 2 -570.662 2389.73 -362.384 0.0985022 0.310525 -0.647933 -0.688516 
3546 2 -576.369 2397.91 -361.935 0.63094 -0.320208 -0.518447 -0.480202 
3912 2 -794.005 2687.74 -441.595 0.717543 -0.592944 0.36541 0.00488883 
3649 2 -462.868 2597.77 -432.109 0.682605 0.0128138 -0.727511 -0.0679208 
3648 2 -452.982 2597.65 -431.461 0.357985 0.62755 -0.376683 -0.579774 
3647 2 -443.323 2599.87 -430.433 -0.156449 0.655446 0.265704 -0.689432 
3646 2 -434.172 2602.81 -427.937 -0.485229 0.252609 0.745151 -0.381433 
3645 2 -425.358 2606.51 -425.312 -0.589623 -0.385081 0.709074 0.0356561 
3644 2 -415.48 2607.33 -424.591 -0.275274 -0.694262 0.271536 0.607037 
3643 2 -406.873 2611.1 -421.766 0.157107 -0.646977 -0.460805 0.586853 