ITEM: TIMESTEP
100000000
ITEM: NUMBER OF ATOMS
4067
ITEM: BOX BOUNDS pp pp pp
-4.6310929470000001e+03 4.6704658980000004e+03
-4.6310929470000001e+03 4.6704658980000004e+03
-4.6310929470000001e+03 4.6704658980000004e+03
ITEM: ATOMS id type x y z c_q[1] c_q[2] c_q[3] c_q[4] 
3531 2 -440.124 2312.93 -824.366 -0.447693 -0.282115 0.847809 -0.0346768 
3507 2 -287.977 2225.49 -687.21 0.44009 0.12405 -0.879547 -0.131639 
3508 2 -296.713 2226.36 -692.001 0.364325 -0.695709 -0.576941 0.224488 
3509 2 -303.338 2228.15 -699.043 0.145731 -0.915285 0.199332 0.318251 
3634 2 -589.873 2382.87 -715.942 0.0501047 0.804529 0.591619 0.0144531 
3633 2 -594.322 2382.16 -707.035 0.236906 -0.0631006 0.967943 0.0545834 
3631 2 -604.399 2379.34 -690.428 -0.100869 -0.877117 -0.290599 -0.368842 
3630 2 -610.341 2377.84 -682.558 -0.292395 -0.210791 -0.921208 -0.146454 
3635 2 -588.591 2382.43 -725.71 0.0889045 0.991644 -0.0900592 0.0250357 
3636 2 -588.76 2381.55 -735.594 0.139349 0.509517 -0.837247 0.141395 
3632 2 -598.294 2380.31 -698.21 0.165886 -0.871845 0.423191 -0.182419 
3637 2 -589.949 2378.43 -744.894 0.0185105 -0.366794 -0.914874 0.167704 
3638 2 -591.252 2375.25 -754.177 0.0411805 -0.939423 -0.337254 -0.0452579 
3639 2 -590.361 2375.63 -764.078 0.0816919 -0.886587 0.454537 -0.0261875 
3629 2 -614.381 2378.65 -673.592 -0.231532 0.373149 -0.886866 0.143597 
3628 2 -621.87 2378.61 -667.158 -0.159139 0.882443 -0.282115 0.341146 
3530 2 -432.737 2315.89 -818.56 -0.291739 -0.840528 0.30115 0.343088 
3493 2 -416.369 2234.76 -679.801 0.385125 0.458639 0.478654 0.642043 
3534 2 -450.353 2246.42 -761.73 0.523561 -0.411909 -0.384163 -0.639245 
3535 2 -448.868 2255.36 -757.604 0.83955 -0.494425 -0.0640673 0.215858 
3536 2 -450.753 2263.6 -752.39 0.370713 -0.232943 0.348508 0.828765 
3532 1 -447.523 2272.64 -800.93 -0.284797 -0.0307011 -0.389201 -0.875483 
3537 2 -451.953 2270.83 -745.835 -0.457911 0.27369 0.368073 0.761534 
3538 2 -451.45 2278.39 -739.441 -0.963609 0.251639 0.0849177 -0.030405 
3540 2 -455.541 2285.76 -721.707 0.136604 0.12305 -0.0947472 -0.978377 
3539 2 -452.798 2283.54 -731.011 -0.566227 0.167512 0.0388476 -0.806113 
3533 3 -440.096 2295.34 -775.4 -0.244502 0.00893591 -0.346547 -0.905563 
3529 2 -423.254 2315.15 -815.746 0.437817 -0.639307 -0.430469 0.462925 
3522 2 -375.443 2298.89 -771.674 0.489284 -0.639189 -0.579554 0.127104 
3523 2 -382.546 2303.73 -776.766 0.166758 -0.869766 0.268065 0.379262 
3524 2 -387.47 2309.1 -783.578 -0.317992 -0.294671 0.870249 0.233916 
3525 2 -394.639 2311.24 -790.182 -0.42187 0.422943 0.78713 -0.153528 
3526 2 -402.16 2311.87 -796.651 -0.193648 0.944292 0.119429 -0.237802 
3527 2 -407.297 2314.9 -804.567 0.209242 0.636605 -0.66743 -0.32479 
3528 2 -414.53 2316.66 -811.128 0.523894 0.0534677 -0.847316 0.0687868 
3541 2 -457.342 2286.97 -712.003 0.874621 -0.102243 -0.0307568 -0.472904 
3521 2 -367.663 2294.06 -767.982 0.455381 0.136811 -0.808851 -0.345935 
3497 2 -381.717 2246.7 -667.21 0.168243 -0.341059 -0.221748 -0.897887 
3542 2 -457.32 2289.37 -702.418 0.904128 -0.0740637 0.0404068 0.41885 
3543 2 -457.863 2291.14 -692.554 0.229649 -0.192625 0.18271 0.936362 
3496 2 -389.347 2243.86 -672.81 -0.550213 -0.261907 -0.475079 -0.6348 
3495 2 -397.963 2241.96 -677.094 -0.846323 0.200675 -0.47478 0.13435 
3494 2 -407.175 2238.35 -678.575 -0.300363 0.667833 -0.0364444 0.680039 
3544 2 -460.212 2294.08 -683.415 -0.624953 -0.123478 0.292813 0.713056 
3520 2 -361.886 2288.58 -762.049 -0.0896214 0.749154 -0.449659 -0.478063 
3545 2 -463.64 2296.8 -674.614 -0.889902 0.283325 0.357484 0.00247279 
3492 2 -425.776 2231.99 -677.955 0.617219 -0.00265077 0.764894 0.184314 
3491 2 -433.832 2233.41 -672.272 0.321135 -0.622325 0.609696 -0.371288 
3546 2 -470.09 2301.46 -668.651 -0.467591 0.497061 0.00949186 -0.730889 
3519 2 -358.182 2282.75 -754.906 -0.364911 0.888449 0.244069 -0.1339 
3518 2 -355.633 2277.82 -746.763 -0.211642 0.253502 0.918774 0.216332 
3510 2 -309.341 2231.63 -706.1 -0.0837848 -0.45861 0.809938 0.35589 
3517 2 -348.521 2273.38 -741.453 -0.163104 -0.576048 0.640905 0.480422 
3511 2 -313.882 2237.11 -712.869 -0.393577 0.377571 0.803021 0.240197 
3516 2 -345.208 2266.25 -735.412 0.285536 -0.907131 0.188281 0.24522 
3515 2 -340.209 2260.08 -729.438 0.465753 -0.74272 -0.476089 0.0691438 
3514 2 -333.688 2254.91 -723.948 0.425577 -0.110855 -0.863932 -0.245392 
3513 2 -325.998 2249.44 -720.945 0.0235827 0.598246 -0.547287 -0.584828 
3512 2 -318.025 2243.76 -718.83 -0.449178 0.758762 0.225349 -0.414411 
3506 3 -332.045 2250.1 -674.72 -0.18261 0.683008 0.566219 -0.423734 
3641 3 -552.394 2394.72 -734.389 0.640513 0.0976467 0.240364 -0.722796 
3640 1 -557.04 2408.92 -766.084 0.753703 0.138963 0.225352 -0.60153 
3642 2 -520.618 2433.28 -748.548 0.81216 0.282889 0.0888992 -0.502461 
3643 2 -521.416 2427.98 -740.331 0.897053 0.305677 -0.0642322 0.312622 
3644 2 -520.197 2422.66 -732.215 0.202956 0.209285 -0.158492 0.943339 
3645 2 -516.131 2419.21 -723.799 -0.517737 -0.0228808 -0.279438 0.808294 
3646 2 -514.03 2413.95 -715.689 -0.912018 -0.373003 -0.14303 0.092916 
3647 2 -512.683 2407.06 -708.743 -0.734051 -0.0938307 0.0146135 -0.672422 
3648 2 -510.554 2406.28 -699.144 0.0995285 -0.122155 -0.0263655 -0.987156 
3649 2 -508.498 2407.33 -689.566 0.856956 -0.0991879 0.0540494 -0.502858 
3650 2 -506.622 2408.41 -679.827 0.858577 -0.0112733 0.0298388 0.511692 
3651 2 -506.409 2409.3 -669.946 0.159341 -0.102604 -0.0637765 0.979804 
3208 1 -278.057 1732.06 -592.58 0.903716 0.309231 0.189368 0.227625 
3210 2 -298.103 1758.16 -558.8 -0.499935 -0.211491 0.167507 -0.822969 
3209 3 -262.967 1720.19 -563.386 0.883389 0.295287 0.252419 0.262133 
3211 2 -296.62 1752.79 -550.505 0.329481 -0.116079 0.38005 -0.856464 
3212 2 -292.387 1747.13 -543.535 0.870655 -0.0279316 0.410008 -0.270321 
3213 2 -285.269 1745.27 -536.871 0.72084 0.189722 0.375026 0.551136 
3214 2 -277.235 1746.47 -531.41 -0.0465159 0.469154 -0.0339869 0.881235 
3207 2 -250.672 1696.86 -607.927 -0.0606247 0.729998 0.621289 0.278258 
3206 2 -252.905 1691.9 -599.621 0.189101 -0.132709 0.946054 0.227181 
3205 2 -253.508 1686.72 -591.27 0.236229 -0.806214 0.529444 0.117912 
3204 2 -251.044 1681.83 -582.949 0.235846 -0.80482 -0.543831 -0.0298061 
3203 2 -252.26 1678.38 -573.711 -0.00204013 -0.148697 -0.971717 -0.18344 
3202 2 -251.449 1676.56 -564.052 -0.0500384 0.575155 -0.802863 -0.148674 
3201 2 -250.175 1672.27 -555.203 -0.171499 0.980778 -0.0599155 -0.0712243 
3200 2 -251.719 1669.08 -545.914 -0.0587672 0.656377 0.729874 0.181656 
3215 2 -268.987 1746.4 -525.849 -0.721734 0.40765 -0.385397 0.405452 
3199 2 -249.516 1665.43 -536.933 -0.101636 -0.137506 0.961238 0.216294 
3216 2 -260.044 1748.54 -522.143 -0.705452 -0.0729973 -0.55287 -0.437429 
3217 2 -252.309 1753.08 -518.075 -0.177069 -0.508056 -0.348017 -0.76773 
3198 2 -246.388 1661.76 -528.246 0.119132 -0.897215 0.356248 0.232164 
3197 2 -242.035 1657.4 -520.495 0.281022 -0.884354 -0.356246 0.109701 
3218 2 -243.931 1757.71 -515.137 0.620393 -0.408498 0.169501 -0.647697 
3264 2 -387.469 1876.74 -576.65 0.831784 0.380842 0.106058 0.389674 
3265 2 -382.688 1870.56 -570.519 0.133272 0.212781 -0.364887 0.89656 
3267 2 -372.952 1857.11 -559.935 -0.921125 -0.158772 -0.342289 -0.0956998 
3266 2 -379.027 1863.21 -564.743 -0.619901 -0.0183224 -0.486509 0.615382 
3268 2 -366.753 1854.07 -552.722 -0.382018 -0.345453 -0.0935336 -0.852042 
3269 2 -360.712 1853.21 -544.831 0.420535 -0.0801605 0.250166 -0.868413 
3270 2 -357.629 1849.54 -536.129 0.916533 0.196235 0.276265 -0.212454 
3271 2 -352.99 1844.91 -528.727 0.71695 0.327802 0.0268542 0.61466 
3263 3 -348.553 1882.33 -542.685 0.518464 0.353344 -0.305575 0.716216 
3259 2 -314.676 1909.04 -528.834 -0.321887 0.546092 -0.628383 -0.450897 
3258 2 -310.397 1900.3 -527.541 -0.575443 0.778999 0.05449 -0.243017 
3251 2 -288.134 1840.93 -549.398 -0.798837 0.462064 0.31699 -0.218802 
3257 2 -306.614 1891.3 -528.242 -0.598563 0.444673 0.537295 0.394084 
3254 2 -299.812 1864.01 -537.188 0.820607 -0.490536 -0.256467 -0.14214 
3252 2 -295.197 1847.05 -546.265 -0.397209 0.399805 -0.279786 -0.77724 
3253 2 -298.498 1855.24 -541.756 0.304471 -0.102718 -0.508864 -0.798626 
3255 2 -302.596 1872.78 -533.679 0.568927 -0.482323 0.351058 0.566079 
3256 2 -304.774 1881.95 -530.803 -0.0473216 -0.0520896 0.610841 0.788619 
3250 2 -280.082 1835.9 -552.715 -0.649907 -0.0661187 0.550327 0.51999 
3249 2 -271.515 1830.87 -552.773 -0.0743033 -0.559258 0.453364 0.690051 
3248 2 -262.452 1827.46 -550.877 0.461661 -0.692778 -0.339056 0.438142 
3247 2 -252.544 1826.88 -551.345 0.713784 -0.071167 -0.694495 0.0558968 
3246 2 -243.134 1828.19 -553.471 0.535337 0.478724 -0.382206 -0.581513 
3245 2 -233.837 1827.39 -556.846 -0.13789 0.557389 0.0557984 -0.816817 
3244 2 -225.286 1823.47 -559.539 -0.708707 0.45778 0.38874 -0.370207 
3243 2 -217.786 1818.74 -563.897 -0.765559 0.0929751 0.530409 0.352054 
3262 1 -355.205 1908.92 -564.546 0.559041 0.346382 -0.277274 0.700437 
3260 2 -315.639 1917.96 -532.764 0.123376 -0.170443 -0.9438 -0.25489 
3272 2 -348.814 1840.54 -520.749 -0.127559 0.0882319 -0.151045 0.976283 
3242 2 -209.227 1816.48 -568.19 -0.307747 -0.388955 0.299437 0.815072 
3261 2 -317.198 1923.7 -540.834 0.286628 -0.851894 -0.430694 -0.0813883 
3241 2 -200.114 1815.31 -572.166 0.387133 -0.531956 -0.145714 0.738863 
3240 2 -190.34 1813.6 -573.245 0.699316 -0.309957 -0.63506 0.107625 
3239 2 -180.545 1813.26 -573.734 0.567839 0.388525 -0.585801 -0.428304 
3236 3 -182.047 1834.34 -535.882 0.355917 -0.372646 -0.439979 0.735443 
3238 2 -170.94 1812.84 -576.229 -0.0848723 0.615758 -0.022118 -0.783038 
3237 2 -161.402 1813.33 -578.693 -0.625357 0.326287 0.53005 -0.470652 
3235 1 -151.01 1846.43 -546.727 0.338711 -0.34405 -0.470686 0.738484 
3394 2 -524.89 2050.19 -556.181 -0.0139537 0.794589 -0.0791462 -0.601805 
3395 2 -534.661 2050.59 -558.45 0.527023 0.493754 -0.572478 -0.38823 
3396 2 -544.439 2049.8 -559.692 0.591682 -0.232416 -0.728548 0.255173 
3393 2 -515.754 2046.72 -554.663 -0.585389 0.532367 0.542463 -0.282204 
3453 2 -535.974 2075.18 -634.089 -0.427083 -0.156352 -0.515891 -0.725954 
3451 1 -513.95 2035.15 -645.726 0.638407 -0.345742 0.654351 0.211478 
3392 2 -506.507 2045.69 -551.075 -0.570671 -0.174956 0.7675 0.233813 
3391 2 -498.048 2040.66 -550.372 -0.135302 -0.563063 0.435179 0.6894 
3450 2 -476.001 2009.65 -657.286 -0.184934 0.280366 0.851276 -0.403141 
3449 2 -470.207 2014.77 -651.171 -0.43227 -0.494592 0.749121 -0.0856727 
3448 2 -463.484 2020.53 -646.702 -0.371049 -0.845201 0.131555 0.361458 
3390 2 -488.597 2039.14 -547.793 0.375741 -0.702169 -0.400394 0.453279 
3389 2 -481.835 2036.28 -541.245 0.370509 -0.0726732 -0.922341 -0.0820319 
3388 2 -477.184 2030.43 -534.875 0.0151395 0.553888 -0.718071 -0.421133 
3447 2 -459.311 2027.22 -640.395 -0.0499316 -0.513346 -0.722174 0.46092 
3446 2 -454.354 2035.1 -636.655 0.346602 0.0497855 -0.827099 0.439654 
3452 3 -488.844 2059.26 -649.352 0.65785 -0.272068 0.686677 0.147266 
3445 2 -447.961 2041.88 -633.207 0.532503 0.61314 -0.579699 -0.0666943 
3444 2 -445.191 2047.81 -625.912 0.267721 0.954869 0.00622604 -0.128501 
3387 2 -473.776 2025.26 -527.211 -0.29566 0.934347 -0.051796 -0.19209 
3386 2 -473.822 2017.6 -520.883 -0.370516 0.741151 0.508665 0.23382 
3385 2 -472.839 2009.25 -515.77 -0.1661 0.198874 0.870407 0.41863 
3443 2 -441.979 2052.53 -617.686 0.0516021 0.594442 0.727183 -0.339385 
3442 2 -439.449 2057.58 -609.611 -0.199786 -0.270021 0.907607 -0.251843 
3441 2 -435.176 2061.06 -601.274 -0.265417 -0.84459 0.45135 0.111825 
3440 2 -431.213 2061.34 -592.183 0.118844 -0.915938 -0.318 0.214033 
3439 2 -427.47 2063.24 -583.255 0.136623 -0.260911 -0.950726 0.0968536 
3438 2 -424.114 2064.1 -574.034 0.123315 0.66417 -0.735553 -0.0513261 
3437 2 -420.943 2065.55 -564.717 0.0494233 0.979481 0.120415 -0.153865 
3436 2 -416.453 2070.26 -557.274 -0.101538 0.490313 0.810541 -0.30382 
3454 2 -529.363 2080.92 -629.277 0.240061 -0.506985 -0.189061 -0.805973 
3398 3 -525.024 2084.96 -526.986 0.757545 0.190565 0.620635 0.0679892 
3397 1 -559.22 2086.69 -534.241 0.75894 0.1359 0.635415 0.0422915 
3402 2 -525.904 2125.38 -516.67 -0.478303 -0.354866 -0.722604 -0.350913 
3455 2 -521.913 2085.97 -625.269 0.838371 -0.35724 0.349181 -0.218143 
3403 2 -516.705 2126.57 -519.925 -0.0975104 -0.751427 -0.246841 -0.604085 
3456 2 -514.787 2090.61 -620.598 0.661121 0.201292 0.606168 0.393651 
3435 2 -412.498 2078.72 -553.844 -0.435153 -0.439229 0.732555 -0.28475 
3404 2 -507.296 2127 -522.752 0.478494 -0.682172 0.401158 -0.38047 
3457 2 -505.37 2092.57 -618.686 0.173344 0.525091 0.265328 0.78983 
3458 2 -496.748 2095.74 -614.73 -0.677473 0.547229 -0.114365 0.478008 
3459 2 -490.121 2102.25 -611.173 -0.762886 0.362397 -0.501172 -0.188413 
3460 2 -483.847 2109.61 -608.796 -0.181849 -0.281817 -0.652757 -0.679278 
3461 2 -477.514 2117.32 -608.969 0.463609 -0.7231 -0.183419 -0.478069 
3462 2 -471.747 2125.11 -609.887 0.763044 -0.537937 0.354951 -0.0489597 
3463 2 -465.902 2133.04 -608.672 0.587746 0.0493433 0.657414 0.468964 
3464 2 -457.469 2138.44 -608.427 0.000535836 0.522651 0.264725 0.810405 
3465 2 -449.015 2143.03 -605.761 -0.665698 0.600492 -0.118405 0.426891 
3466 2 -442.279 2149.78 -602.998 -0.670182 0.278393 -0.587811 -0.357534 
3467 2 -436.156 2157.58 -602.098 -0.290601 -0.172478 -0.610497 -0.716307 
3468 2 -431.078 2165.56 -599.373 0.196012 -0.412502 -0.452388 -0.766007 
3469 2 -427.056 2174.29 -596.791 0.615629 -0.783756 -0.0273655 -0.0773255 
3470 2 -425.014 2183.58 -599.577 0.602572 -0.413839 0.501315 0.462956 
3471 2 -421.542 2192.67 -597.94 0.2004 0.134752 0.703815 0.668076 
3472 2 -416.822 2201.43 -598.373 -0.212511 0.661316 0.216591 0.685995 
3473 2 -408.424 2206.66 -598.664 -0.590644 0.447822 -0.567454 0.358596 
3474 2 -398.697 2208.56 -599.093 -0.761181 -0.217715 -0.559781 -0.24464 
3434 2 -411.007 2088.46 -552.78 -0.658752 -0.74256 -0.0186551 0.119594 
3433 2 -411.177 2097.13 -548.138 -0.298146 -0.445683 -0.737959 0.409747 
3475 2 -389.364 2208.63 -595.922 -0.357664 -0.499982 -0.135855 -0.776941 
3430 2 -411.117 2121.03 -531.976 0.412601 0.830992 0.29446 -0.229143 
3432 2 -412.598 2106.43 -545.311 0.196546 0.312371 -0.734196 0.569869 
3431 2 -412.505 2113.56 -538.408 0.407002 0.846298 -0.327946 0.102865 
3476 2 -381.119 2207.04 -590.752 0.352833 -0.243116 0.193273 -0.882638 
3405 2 -498.491 2130.66 -525.231 0.811868 0.00332225 0.554783 0.181865 
3406 2 -488.985 2132.17 -522.367 0.380341 0.425975 0.37734 0.72904 
3429 2 -407.235 2129.23 -527.769 0.0392175 0.320925 0.767802 -0.553127 
3407 2 -479.774 2133.48 -518.767 -0.264872 0.425894 -0.284703 0.816946 
3477 2 -374.894 2204.65 -583.472 0.912821 0.0284169 0.331082 -0.237351 
3428 2 -400.913 2135.78 -523.846 -0.497046 -0.370037 0.761736 -0.189147 
3427 2 -396.512 2143.15 -519.141 -0.459195 -0.866001 0.146492 0.133123 
3408 2 -470.845 2130.83 -515.413 -0.769512 -0.0671355 -0.574821 0.270046 
3426 2 -392.569 2151.5 -515.514 -0.244786 -0.644474 -0.508611 0.515798 
3627 2 -628.802 2381.87 -660.897 0.365117 0.799007 0.408498 0.247805 
3555 2 -523.369 2367.34 -650.928 0.66328 -0.166429 -0.661636 -0.307569 
3572 2 -608.186 2351.17 -537.091 -0.909785 -0.0539581 -0.168076 0.375673 
3571 2 -611.232 2352.76 -546.488 -0.15676 0.157865 -0.116356 0.96797 
3570 2 -613.253 2353.83 -556.16 0.678388 0.151114 0.0717909 0.715402 
3573 2 -605.298 2348.91 -527.878 -0.829545 -0.168018 -0.215179 -0.487158 
3569 2 -613.264 2356.61 -565.589 0.990457 0.136725 0.00526025 -0.0165434 
3568 2 -614.74 2357.74 -575.247 0.560979 -0.0455236 0.096073 -0.820975 
3567 2 -617.424 2358.63 -584.79 -0.418745 -0.176134 -0.0143011 -0.890744 
3574 2 -599.591 2346.82 -520.024 -0.0847771 -0.280033 0.0997339 -0.951024 
3554 2 -516.638 2360.19 -651.996 0.13426 0.369413 -0.545405 -0.740298 
3560 3 -578.447 2376.34 -623.528 -0.806189 -0.336952 0.13495 -0.467238 
3566 2 -618.928 2363.37 -593.34 -0.948259 -0.272743 -0.0486261 -0.155087 
3565 2 -618.991 2370.69 -599.918 -0.526825 -0.251942 -0.35888 0.728139 
3556 2 -530.89 2373.61 -649.045 0.698186 -0.6491 -0.175361 0.245874 
3564 2 -621.124 2377.33 -606.988 0.328115 0.238421 -0.32064 0.855971 
3563 2 -623.773 2382.73 -614.648 0.907099 0.337414 0.0529562 0.246005 
3626 2 -636.456 2382.37 -654.684 0.390328 0.213679 0.893538 0.0597965 
3557 2 -536.583 2381.73 -648.532 0.326506 -0.498776 0.636157 0.489817 
3675 2 -520.421 2381.07 -554.711 -0.542327 -0.561414 -0.162109 -0.60367 
3498 2 -376.081 2251.8 -660.843 0.812848 -0.370292 0.164562 -0.418427 
3553 2 -511.938 2351.92 -654.424 -0.6002 0.570149 -0.157366 -0.538449 
3547 2 -477.642 2305.61 -663.795 0.217213 0.356014 -0.512025 -0.750935 
3479 3 -410.607 2235.95 -604.307 -0.175918 -0.548249 0.816981 -0.0319045 
3552 2 -508.431 2342.92 -656.608 -0.769467 0.540043 0.332379 0.0761463 
3499 2 -370.076 2256.72 -654.61 0.780363 -0.212979 0.468372 0.355387 
3490 2 -440.247 2234.64 -664.802 -0.109917 -0.937925 -0.100221 -0.313321 
3489 2 -442.725 2238.44 -656.089 -0.226853 -0.560269 -0.790467 0.098985 
3676 2 -512.321 2376.3 -551.652 0.142891 -0.556338 0.0847664 -0.814178 
3551 2 -502.925 2334.67 -657.178 -0.470657 0.0679907 0.675655 0.563338 
3478 1 -400.757 2242.2 -571.238 -0.184796 -0.508095 0.841014 -0.0196492 
3488 2 -444.503 2242.88 -647.442 -0.0195512 0.241979 -0.938282 0.246353 
3487 2 -445.156 2247.47 -638.766 0.172744 0.872044 -0.428712 0.160948 
3486 2 -447.943 2249.88 -629.57 0.161657 0.796636 0.577915 0.0724789 
3484 2 -446.416 2260.5 -612.886 -0.183914 -0.600997 0.756092 -0.182493 
3485 2 -447.828 2255.44 -621.365 0.0764589 0.315029 0.894666 -0.307381 
3483 2 -444.797 2266.17 -604.821 -0.289995 -0.954782 0.0447477 0.0478843 
3550 2 -498.406 2326.13 -659.099 0.223527 -0.460809 0.470302 0.718684 
3549 2 -491.111 2319.7 -660.795 0.643725 -0.608549 -0.228629 0.403751 
3548 2 -485.336 2311.69 -661.956 0.692349 -0.367362 -0.566849 -0.253733 
3482 2 -442.241 2270.51 -596.225 -0.0288595 -0.739591 -0.622966 0.253151 
3480 2 -434.364 2274.49 -578.815 0.175949 0.864589 -0.426864 -0.198279 
3481 2 -439.068 2273.64 -587.334 0.192899 0.218617 -0.946497 0.138345 
3680 2 -474.397 2370.41 -542.997 -0.30777 0.275879 -0.341068 0.844299 
3679 2 -483.623 2372.7 -545.618 0.287019 0.595016 0.0801152 0.74643 
3678 2 -493.266 2374.21 -547.683 0.784453 0.235258 0.540006 0.194116 
3677 2 -502.914 2375.69 -548.701 0.655308 -0.236614 0.617555 -0.36498 
3681 2 -467.615 2366.35 -537.023 -0.854797 0.0169887 -0.285065 0.433327 
3682 2 -462.71 2364.29 -528.49 -0.877461 -0.207848 -0.13907 -0.409292 
3683 2 -458.383 2361.51 -520.137 -0.183747 -0.192187 0.156342 -0.951241 
3500 2 -364.731 2263.79 -650.114 0.21329 0.16967 0.579066 0.768377 
3501 2 -359.584 2271.78 -647.45 -0.385946 0.665238 0.0332323 0.638279 
3505 1 -303.207 2257.54 -656.148 -0.142612 0.69734 0.554402 -0.431297 
3502 2 -351.656 2277.67 -646.526 -0.820347 0.343198 -0.44233 0.116573 
3503 2 -343.118 2281.29 -642.811 -0.683051 -0.0807937 -0.442841 -0.575157 
3504 2 -336.202 2285.57 -637.141 0.0871505 -0.422867 -0.171524 -0.885533 
3615 2 -703.396 2451.97 -622.459 0.225508 0.590823 -0.435033 0.640953 
3613 1 -729.977 2444.34 -584.29 0.373571 -0.265508 0.577328 -0.675753 
3616 2 -698.327 2443.57 -623.523 -0.37963 -0.195344 -0.649119 0.629576 
3617 2 -696.198 2433.86 -622.994 -0.666342 -0.668507 -0.316581 -0.0941498 
3614 3 -703.545 2421.9 -580.207 0.402726 -0.26367 0.557099 -0.676706 
3618 2 -690.739 2425.79 -624.486 -0.191947 -0.574048 0.278903 -0.745546 
3612 2 -741.043 2421.89 -544.295 0.553059 -0.000262888 -0.82218 -0.134705 
3608 2 -704.039 2411.91 -536.711 -0.537079 -0.348963 0.610044 0.466494 
3611 2 -731.918 2419.45 -541.355 0.248755 0.615249 -0.525567 -0.532323 
3607 2 -695.034 2408.02 -538.054 0.124047 -0.665238 0.130193 0.724653 
3619 2 -683.377 2419.3 -622.867 0.461846 -0.0360551 0.714741 -0.52397 
3606 2 -686.618 2402.9 -539.463 0.650749 -0.595061 -0.290405 0.371609 
3610 2 -723.129 2416.48 -537.951 -0.284436 0.78911 0.181269 -0.513364 
3609 2 -713.768 2413.24 -537.206 -0.664125 0.383759 0.614727 -0.183786 
3605 2 -677.839 2398.36 -540.849 0.719796 -0.170023 -0.633987 -0.225936 
3620 2 -676.33 2412.55 -624.597 0.576568 0.628423 0.521395 0.0283108 
3621 2 -670.337 2405.51 -628.153 0.227846 0.807197 -0.286232 0.46324 
3604 2 -668.746 2395.69 -543.866 0.284098 0.535893 -0.272293 -0.74697 
3562 2 -624.633 2388.42 -622.846 0.792728 0.248648 0.188301 -0.523737 
3561 2 -626.733 2394.08 -630.593 0.096371 -0.170937 0.329994 -0.923362 
3625 2 -643.092 2385.15 -647.735 0.0983687 -0.619639 0.685218 -0.369929 
3622 2 -663.508 2399.67 -632.28 -0.24217 0.272593 -0.816495 0.447642 
3624 2 -650.448 2389.4 -642.726 -0.235983 -0.870954 -0.0415173 -0.428984 
3623 2 -657.938 2393.26 -637.523 -0.421456 -0.513224 -0.742559 -0.087073 
3674 2 -527.687 2387.71 -555.91 -0.744333 -0.531086 -0.397546 -0.076633 
3673 2 -535.846 2392.71 -553.265 -0.483488 0.14047 -0.778952 0.373819 
3603 2 -659.213 2396.32 -546.53 -0.438084 0.510789 0.332486 -0.66078 
3558 2 -537.399 2391.12 -651.532 -0.156166 0.144114 0.794811 0.568436 
3559 1 -583.575 2400.33 -648.368 -0.775577 -0.355 0.176364 -0.491276 
3672 2 -542.923 2399.14 -550.959 0.113223 0.660308 -0.421416 0.611213 
3671 2 -549.192 2406.88 -549.454 0.620448 0.692956 0.325523 0.169973 
3670 2 -556.014 2413.37 -546.282 0.5134 0.19622 0.778326 -0.303523 
3669 2 -563.22 2419.69 -544.08 0.156583 -0.429218 0.668586 -0.586725 
3667 1 -531.479 2454.45 -541.131 -0.302087 -0.862919 0.227573 -0.335149 
3601 2 -640.253 2401.3 -545.468 -0.499726 -0.656615 0.368259 0.428387 
3600 2 -631.192 2404.74 -543.369 -0.0219012 -0.659577 -0.346383 0.666706 
3599 2 -621.869 2404.94 -540.195 0.5547 -0.302887 -0.743299 0.219256 
3598 2 -612.297 2406.03 -537.508 0.571037 0.386149 -0.678852 -0.252914 
3602 2 -649.526 2398.2 -546.81 -0.675771 0.018128 0.71455 -0.180063 
3596 2 -594.76 2413.5 -533.591 -0.374999 0.440269 0.594324 -0.558854 
3594 2 -578.25 2420.8 -525.514 -0.346634 -0.848374 0.170141 0.362158 
3593 2 -568.99 2422.14 -522.003 0.234746 -0.731069 -0.386407 0.511 
3595 2 -586.148 2417.25 -530.523 -0.596112 -0.325165 0.731728 -0.0591023 
3597 2 -604.031 2410.45 -534.567 0.28566 0.825315 -0.0409985 -0.485359 
3592 2 -559.415 2422.89 -519.54 0.55765 -0.256568 -0.742289 0.268711 
3668 3 -515.419 2430.72 -561.159 -0.311259 -0.856249 0.153954 -0.382432 
3591 2 -550.208 2424.33 -516.309 0.543291 0.529804 -0.566617 -0.321073 
3652 2 -507.224 2408.64 -660.124 -0.580496 0.00815192 -0.107995 0.807028 
3653 2 -505.229 2407.59 -650.387 -0.990473 0.0307201 -0.117636 -0.0646697 
3654 2 -503.933 2407.86 -640.58 -0.470533 0.0540826 -0.212939 -0.854594 
3655 2 -502.458 2410.93 -631.294 0.417495 -0.148477 -0.0800564 -0.892885 
3656 2 -500.969 2414.1 -621.963 0.865917 -0.343099 -0.00816967 -0.363874 
3657 2 -498.123 2419.59 -614.232 0.837519 -0.272295 0.18236 0.43722 
3658 2 -497.028 2425.22 -606.208 0.169022 0.250742 0.321523 0.89732 
3659 2 -491.745 2430.64 -599.68 -0.712746 0.461596 0.108063 0.516956 
3666 2 -491.125 2475.86 -552.886 -0.448506 0.0540207 0.162575 0.877208 
3665 2 -490.182 2471.64 -561.858 0.438374 -0.118379 0.123048 0.882425 
3660 2 -488.14 2438.18 -594.446 -0.858019 0.428228 -0.163966 -0.231386 
3661 2 -486.928 2446.42 -589.094 -0.454166 0.35249 -0.340684 -0.743921 
3662 2 -490.016 2454.47 -584.376 0.258053 -0.0142559 -0.33631 -0.905594 
3663 2 -491.639 2460.01 -576.441 0.727438 -0.43978 -0.11101 -0.514882 
3664 2 -488.593 2467.51 -570.672 0.910623 -0.215658 0.0363178 0.350627 
3912 2 -699.168 2900.07 -528.257 0.90556 -0.348129 -0.217074 -0.107923 
3913 2 -702.057 2906.37 -521.262 0.527617 -0.531264 0.105268 0.654444 
3914 2 -708.077 2912.6 -516.592 -0.297178 -0.247171 0.321459 0.86444 
3910 1 -656.336 2919.1 -523.406 -0.648117 0.169662 0.0368771 -0.741485 
3178 2 -225.896 1598.67 -372.992 0.0641545 0.775756 -0.134442 0.613198 
3179 2 -216.187 1596.5 -374.119 -0.516566 0.378109 -0.656981 0.398206 
3177 2 -231.949 1606.2 -370.719 0.610367 0.693553 0.380522 0.0404801 
3176 2 -236.802 1614.84 -370.445 0.482914 0.132094 0.719432 -0.481418 
3180 2 -206.578 1594.83 -375.317 -0.635172 -0.287677 -0.686602 -0.205855 
3175 2 -244.124 1621.37 -370.514 0.0105168 -0.465632 0.52312 -0.713738 
3219 2 -235.742 1759.69 -509.984 0.795525 -0.225617 0.55502 0.090504 
3220 2 -227.248 1764.15 -507.227 0.304569 0.282241 0.520518 0.746082 
3221 2 -220.231 1770.28 -503.994 -0.471079 0.569117 0.24391 0.62825 
3174 2 -251.548 1627.65 -370.4 -0.512061 -0.722921 -0.0695071 -0.458637 
3173 2 -259.54 1633.03 -368.532 -0.62065 -0.354971 -0.696322 0.0626443 
3196 2 -240.37 1655.96 -510.854 0.106134 -0.292837 -0.950146 0.0142701 
3195 2 -238.93 1656.23 -501.056 0.0334889 0.571206 -0.819903 -0.0189951 
3192 2 -230.351 1662.42 -473.361 -0.157496 -0.0733974 0.984143 -0.0356478 
3191 2 -226.544 1664.1 -464.328 -0.218661 -0.795463 0.557917 0.090301 
3193 2 -232.946 1661.29 -482.752 0.0113058 0.722644 0.665753 -0.185558 
3194 2 -235.462 1658.22 -491.989 0.0495445 0.98265 -0.11748 -0.134692 
3189 2 -223.236 1671.31 -446.246 0.000925355 -0.272834 -0.938269 0.21263 
3190 2 -224.859 1667.2 -455.056 -0.10598 -0.921153 -0.346877 0.141148 
3188 2 -223.259 1674.25 -436.718 0.105623 0.436881 -0.88114 0.146873 
3187 2 -218.393 1676.16 -428.438 0.144931 0.92699 -0.267602 -0.219258 
3182 3 -217.708 1636.63 -404.24 0.358696 -0.0830609 -0.927306 0.0673905 
3186 2 -211.277 1677.1 -421.744 -0.194586 0.712314 0.523315 -0.425307 
3172 2 -268.908 1634.72 -365.828 -0.418616 0.41789 -0.694358 0.409873 
3171 2 -278.489 1635.9 -363.783 0.0911323 0.785693 -0.0517963 0.609671 
3185 2 -205.019 1677.16 -414.121 -0.363508 -0.140568 0.92091 -0.0052741 
3184 2 -199.244 1678.23 -406.198 -0.16797 -0.836408 0.47634 0.212855 
3183 2 -195.173 1682.99 -398.501 -0.0495869 -0.812297 -0.5211 0.257233 
3181 1 -195.399 1640.67 -377.466 0.347877 0.0407093 -0.933095 0.0815944 
3372 2 -515.512 1925.13 -448.658 -0.274619 0.804703 0.0750895 0.520959 
3366 2 -444.8 1872.21 -481.173 -0.546005 0.10663 0.258125 -0.78986 
3365 2 -441.172 1877.61 -488.61 -0.927716 -0.30627 0.188514 -0.10002 
3367 2 -448.347 1868.93 -472.556 0.410749 0.364288 0.232696 -0.802765 
3368 2 -452.115 1862.82 -465.828 0.836662 0.494304 -0.127852 -0.198278 
3369 2 -456.679 1855.63 -460.694 0.779053 0.294483 -0.397059 0.385616 
3364 2 -440.062 1884.76 -495.508 -0.745885 -0.333922 -0.12982 0.561515 
3363 2 -440.788 1891.31 -503.002 -0.102988 -0.0899066 -0.359788 0.922964 
3361 2 -444.728 1910.15 -506.746 0.753246 0.653212 0.0764264 0.00968496 
3362 2 -443.509 1900.5 -505.209 0.443496 0.407152 -0.465203 0.648941 
3370 1 -489.796 1885.64 -445.454 0.252303 -0.482299 0.816118 0.194118 
3371 3 -477.204 1901.17 -474.352 0.215858 -0.435089 0.849888 0.204437 
3291 2 -394.601 1864.27 -435.431 -0.172213 -0.765086 -0.0516097 -0.618322 
3292 2 -385.156 1862.27 -437.788 0.610645 -0.53795 0.421952 -0.3996 
3289 1 -389.917 1827.06 -406.846 0.54661 -0.44764 0.692695 -0.144948 
3293 2 -375.782 1865.27 -438.406 0.529183 0.112548 0.797339 0.267485 
3360 2 -444.61 1920.09 -506.055 0.353472 0.334059 0.598383 -0.63671 
3294 2 -366.713 1868.07 -441.305 0.0513701 0.639345 0.354926 0.680167 
3288 2 -365.198 1792.95 -385.62 -0.808425 -0.328045 0.476681 -0.107752 
3222 2 -215.496 1778.83 -502.345 -0.615889 0.713587 -0.2456 -0.226175 
3273 2 -346.739 1837.66 -511.431 -0.753939 -0.0680503 -0.229225 0.611883 
3223 2 -214.427 1788.59 -503.844 -0.503445 0.0740345 -0.628517 -0.588242 
3295 2 -357.711 1871.95 -442.183 -0.630654 0.69672 -0.207285 0.271826 
3290 3 -357.512 1831.57 -419.479 0.561837 -0.424839 0.698856 -0.124304 
3296 2 -350.92 1879.07 -442.809 -0.748294 0.293952 -0.548427 -0.229948 
3287 2 -357.957 1799.36 -387.99 -0.582853 -0.585735 0.0834141 0.556991 
3274 2 -344.447 1833.97 -502.624 -0.95362 -0.0511042 0.0404017 -0.293881 
3275 2 -345.267 1832.69 -492.94 -0.351208 0.111322 0.0846126 -0.925798 
3276 2 -348.379 1830.9 -483.762 0.389256 0.0469483 -0.0763914 -0.916755 
3277 2 -349.724 1830.85 -473.786 0.918915 -0.0397682 -0.132508 -0.3694 
3278 2 -351.685 1831.84 -464.259 0.872705 -0.0406481 -0.0775805 0.480327 
3279 2 -353.67 1831.77 -454.487 0.125673 0.0510841 0.0158131 0.990629 
3280 2 -352.488 1831.15 -444.684 -0.695778 -0.148839 -0.111697 0.693732 
3281 2 -354.045 1828.33 -435.337 -0.941257 -0.18833 0.0220419 -0.279431 
3282 2 -353.143 1824.66 -426.134 -0.35995 -0.179779 0.182015 -0.89721 
3285 2 -354.542 1813.24 -400.031 0.68582 0.335845 -0.230313 0.603171 
3286 2 -353.319 1805.62 -393.982 0.0594868 -0.225294 -0.406634 0.883376 
3284 2 -351.658 1817.88 -408.128 0.944055 0.276563 -0.0908156 -0.155002 
3283 2 -350.343 1821.07 -417.376 0.422713 0.176859 0.101756 -0.882995 
3299 2 -332.885 1901.82 -444.966 0.669597 -0.612287 0.409986 -0.0930358 
3298 2 -338.692 1893.74 -445.792 0.394559 -0.647558 -0.252717 -0.600937 
3297 2 -344.324 1886.48 -442.137 -0.253217 -0.215614 -0.786188 -0.520865 
3300 2 -326.425 1909.15 -445.074 0.636709 -0.0376401 0.635705 0.434815 
3301 2 -318.957 1915.55 -443.377 0.0432645 0.376936 0.555218 0.740122 
3302 2 -312.675 1923.17 -442.768 -0.599526 0.538717 -0.0404886 0.59052 
3224 2 -209.803 1797.24 -502.889 0.114839 -0.234342 -0.458408 -0.849563 
3225 2 -206.017 1805.7 -499.159 0.684717 -0.627824 -0.0698526 -0.363484 
3226 2 -202.604 1814.77 -497.801 0.787746 -0.336051 0.420574 0.299406 
3234 2 -160.426 1873.6 -509.418 0.300307 0.281183 0.708316 0.573621 
3233 2 -167.958 1867.35 -508.324 0.659223 -0.453396 0.596696 0.0617396 
3230 2 -184.615 1847.37 -495.485 -0.419055 0.242081 -0.803295 -0.347142 
3229 2 -187.919 1838.49 -492.627 -0.588891 0.736591 -0.327916 -0.0557913 
3228 2 -191.085 1829.32 -491.014 -0.437021 0.662553 0.368063 0.484319 
3231 2 -180.062 1855.31 -499.263 -0.0502958 -0.428112 -0.771948 -0.467211 
3227 2 -196.871 1821.85 -494.087 0.20917 0.230142 0.526706 0.791115 
3232 2 -175.261 1861.64 -505.002 0.335066 -0.805039 -0.0410134 -0.487813 
3384 2 -471.934 1999.59 -513.627 0.363711 -0.488951 0.598454 0.52009 
3383 2 -469.266 1990.48 -510.469 0.576156 -0.801113 -0.137405 0.085922 