ITEM: TIMESTEP
100000000
ITEM: NUMBER OF ATOMS
4067
ITEM: BOX BOUNDS pp pp pp
-4.6310929470000001e+03 4.6704658980000004e+03
-4.6310929470000001e+03 4.6704658980000004e+03
-4.6310929470000001e+03 4.6704658980000004e+03
ITEM: ATOMS id type x y z c_q[1] c_q[2] c_q[3] c_q[4] 
3700 2 -699.801 2533.79 -672.689 -0.197912 0.651955 -0.697192 -0.222954 
3695 3 -644.898 2523.84 -672.283 -0.378772 0.483498 -0.671371 -0.414756 
3693 2 -607.963 2489.75 -684.925 -0.671739 -0.7314 -0.0241232 0.115061 
3692 2 -606.422 2499.36 -684.068 -0.340165 -0.481827 -0.585308 0.556368 
3691 2 -603.097 2508.61 -683.687 0.30524 0.0972113 -0.701084 0.637071 
3690 2 -602.926 2518.2 -682.215 0.610587 0.703335 -0.306227 0.196797 
3689 2 -603.707 2528.11 -681.854 0.625811 0.661165 0.308476 -0.275797 
3701 2 -700.56 2539.63 -680.488 0.0290419 -0.139484 -0.893695 -0.425452 
3703 2 -698.29 2556.73 -689.655 0.590928 -0.73083 0.339081 -0.0414214 
3702 2 -700.063 2547.6 -686.462 0.490966 -0.68435 -0.401156 -0.360128 
3704 2 -694.338 2565.13 -693.173 0.156039 -0.125525 0.871273 0.448084 
3705 2 -692.856 2573.22 -698.667 -0.168715 0.555707 0.709529 0.399115 
3706 2 -690.843 2580.82 -704.87 -0.339151 0.918804 -0.134882 0.150272 
3707 2 -687.488 2586.38 -712.241 -0.312644 0.635213 -0.681551 -0.185058 
3708 2 -684.896 2592.5 -719.692 -0.175177 -0.120117 -0.891993 -0.399041 
3709 2 -681.422 2598.87 -726.363 0.13537 -0.849891 -0.31467 -0.400429 
3710 2 -675.414 2603.91 -732.343 0.444142 -0.709234 0.546619 -0.0305383 
3711 2 -670.001 2609.4 -738.544 0.242572 0.0483162 0.936721 0.247747 
3741 2 -667.492 2625.52 -669.581 0.524064 -0.210359 -0.437539 -0.699761 
3740 2 -668.361 2616.41 -673.382 -0.325738 0.139485 -0.534527 -0.76728 
3721 1 -615.74 2607.92 -818.365 0.0680452 -0.0385419 -0.176215 -0.98124 
3712 2 -665.491 2613.92 -746.061 -0.13456 0.662976 0.694462 0.245108 
3713 2 -663.811 2618.89 -754.265 -0.223527 0.970609 0.0617713 0.0643324 
3739 2 -663.808 2609.48 -679.037 -0.812062 0.468718 0.0501368 -0.344012 
3738 2 -658.669 2604.16 -685.703 -0.741725 0.024071 0.398959 0.538606 
3714 2 -662.79 2623.77 -762.875 -0.244217 0.638437 -0.711291 -0.163773 
3715 2 -661.656 2628.52 -771.535 -0.115988 -0.087746 -0.947306 -0.285411 
3720 2 -640.276 2647.56 -811.281 -0.304809 0.926579 -0.17467 0.134288 
3719 2 -644.071 2642.65 -803.517 -0.03739 0.629591 0.702511 0.32969 
3716 2 -658.312 2633.48 -779.48 0.0090993 -0.846983 -0.355574 -0.3951 
3723 2 -586.666 2573.26 -804.944 -0.929462 0.138278 0.088307 0.330427 
3725 2 -587.457 2577.64 -785.741 0.00538688 0.282558 -0.253999 -0.924995 
3726 2 -592.045 2581.42 -777.745 0.780947 -0.0358064 -0.306651 -0.54296 
3724 2 -587.661 2575.19 -795.338 -0.764321 0.101636 -0.127921 -0.623795 
3727 2 -596.036 2585.31 -769.479 0.967523 -0.0360295 -0.230388 0.0975824 
3728 2 -601.659 2585.67 -761.449 0.588419 -0.275092 -0.127958 0.749476 
3729 2 -607.176 2587.03 -753.443 -0.132762 -0.239626 0.0852053 0.957963 
3722 3 -611.852 2613.71 -784.148 -0.012541 -0.0389249 -0.15568 -0.986961 
3717 2 -651.833 2636.55 -786.362 0.26983 -0.84952 0.439995 -0.109143 
3718 2 -647.387 2640.36 -794.371 0.234592 -0.210398 0.94431 0.09475 
3730 2 -611.54 2589.24 -744.898 -0.722715 -0.128168 0.220598 0.642334 
3731 2 -616.454 2589.85 -736.443 -0.966819 0.0385433 0.248341 -0.0458438 
3732 2 -621.93 2590.17 -728.027 -0.640718 0.233916 0.3779 -0.626064 
3733 2 -629.606 2587.71 -721.905 -0.0493873 0.372217 -0.0871842 -0.922721 
3734 2 -636.429 2589.12 -714.84 0.491077 0.170097 -0.346766 -0.780809 
3735 2 -641.942 2592.65 -707.365 0.90278 -0.180013 -0.359669 -0.152386 
3736 2 -647.573 2597.09 -700.445 0.762966 -0.35377 -0.10603 0.530554 
3737 2 -653.635 2600.45 -693.459 -0.0431713 -0.320472 0.252818 0.911875 
3688 2 -603.722 2537.97 -680.923 0.180821 0.213341 0.692848 -0.664643 
3687 2 -605.499 2547.54 -679.442 -0.285975 -0.509925 0.587084 -0.559935 
3686 2 -604.439 2557.47 -678.757 -0.670643 -0.731659 0.072473 0.0982875 
3685 2 -605.792 2565.72 -673.475 -0.277459 -0.409227 -0.768026 0.407045 
3684 2 -609.542 2574.6 -670.974 0.0624235 0.360628 -0.682435 0.632719 
3683 2 -610.569 2584.56 -670.567 0.611923 0.690607 -0.263411 0.281472 
3682 2 -609.053 2594.16 -670.297 0.545853 0.638007 0.314147 -0.443061 
3681 2 -605.56 2603.06 -667.785 -0.0188967 0.262028 0.713942 -0.649054 
4067 2 -840.733 3032.81 -712.051 -0.479917 -0.826766 -0.024332 0.292482 
4066 2 -836.863 3041.45 -709.124 -0.085757 -0.468897 -0.667655 0.571855 
4065 2 -829.608 3047.72 -706.984 0.567123 0.257237 -0.733963 0.271107 
4064 2 -822.774 3054.82 -707.928 0.714661 0.628044 -0.241242 -0.191371 
4050 2 -696.803 3076.66 -742.658 0.678189 0.285857 -0.578807 -0.35118 
4051 2 -706.459 3076.38 -740.443 0.624221 -0.140046 -0.643599 0.420137 
4052 2 -715.777 3073.73 -738.423 0.227869 -0.543861 -0.284289 0.755957 
4053 2 -725.052 3072.93 -735.37 -0.499145 -0.433626 0.263414 0.702449 
4054 2 -734.024 3072.11 -731.268 -0.841157 -0.0819786 0.534306 0.0158794 
4055 2 -743.186 3071.96 -727.484 -0.694858 0.373653 0.280962 -0.546458 
4056 2 -750.733 3072.55 -721.189 -0.0198079 0.493923 0.0593802 -0.86725 
4046 3 -699.944 3094.12 -703.332 -0.223627 0.342631 0.47491 -0.779138 
4057 2 -759.261 3071.23 -716.305 0.645677 0.361992 -0.230063 -0.63177 
4058 2 -767.339 3069.3 -710.841 0.853403 0.0148362 -0.52075 0.0173822 
4059 2 -776.526 3068.91 -707.221 0.385547 -0.554636 -0.472423 0.566169 
4060 2 -786.374 3068.12 -707.832 -0.279826 -0.646657 0.0927902 0.703507 
4061 2 -796.153 3066.4 -707.365 -0.730793 -0.272529 0.578318 0.239202 
4062 2 -805.655 3064.08 -705.891 -0.524741 0.233449 0.679752 -0.456164 
4049 2 -687.002 3077.66 -743.909 0.373131 0.603719 -0.188976 -0.678664 
4048 2 -677.465 3080.11 -743.619 -0.212606 0.607039 0.377982 -0.665908 
4063 2 -815.107 3060.82 -706.258 0.229727 0.735113 0.265422 -0.579988 
4045 1 -674.306 3116.93 -710.27 -0.182638 0.384631 0.473871 -0.770811 
4043 2 -697.541 3126.21 -668.916 0.212405 -0.0438087 0.824646 0.522421 
4044 2 -695.026 3135.22 -671.985 -0.290982 0.590728 0.575705 0.4847 
4047 2 -668.146 3083.39 -742.913 -0.64339 0.0372848 0.719591 -0.25855 
3699 2 -693.654 2529.66 -666.098 -0.271747 0.884926 0.178764 -0.333321 
3698 2 -689.8 2525.7 -658.099 -0.294115 0.511799 0.7947 0.141456 
3697 2 -687.945 2518.3 -651.855 -0.0540655 -0.160625 0.872643 0.458008 
3696 2 -686.766 2512.6 -643.793 0.275486 -0.877804 0.338347 0.197707 
3694 1 -648.647 2491.04 -661.221 -0.409787 0.5213 -0.636504 -0.393933 
3627 2 -442.5 2523.45 -561.392 -0.024544 0.740186 0.665113 0.0956429 
3626 2 -441.806 2523.8 -551.583 0.0210416 -0.226674 0.973667 -0.0121892 
3625 2 -444.461 2525.62 -542.19 -0.0882959 -0.94811 0.280584 -0.120677 
3628 2 -441.271 2524.19 -571.24 -0.0943945 0.990896 -0.0420548 0.086287 
3629 2 -439.437 2525.62 -580.836 -0.189127 0.563225 -0.802115 -0.0601694 
3630 2 -436.025 2528.42 -589.595 -0.0296133 -0.177474 -0.952785 -0.244595 
3631 2 -434.6 2532.69 -598.517 0.0127047 -0.792899 -0.564444 -0.229245 
3632 2 -430.496 2534.68 -607.284 0.0365589 -0.944274 0.277011 -0.173996 
3639 2 -374.146 2526.11 -636.014 -0.203358 -0.713236 -0.203517 -0.639156 
3637 2 -393.848 2525.81 -633.614 -0.647701 0.234644 -0.69569 0.203572 
3638 2 -384.011 2526.21 -634.989 -0.545625 -0.413325 -0.630365 -0.36619 
3624 2 -446.567 2529.61 -533.163 -0.225809 -0.735014 -0.638881 0.0244122 
3633 2 -426.506 2534.36 -616.388 0.285579 -0.308456 0.828646 -0.369656 
3634 2 -420.239 2529.51 -622.12 0.5427 0.388554 0.744452 0.0171509 
3636 2 -403.269 2525.1 -630.605 -0.350793 0.653574 -0.44633 0.500575 
3635 2 -412.18 2525.94 -626.401 0.142489 0.817822 0.192088 0.523418 
3742 2 -669.136 2634.14 -664.852 0.856652 -0.478621 -0.0149251 -0.191956 
3756 2 -725.428 2661.66 -594.08 0.368273 0.0303129 -0.531882 0.761943 
3767 2 -694.598 2597.92 -543.555 0.208723 -0.0596778 0.268572 -0.938479 
3766 2 -699.614 2598.31 -552.105 -0.666039 -0.226399 -0.189261 -0.685066 
3757 2 -728.812 2653.73 -589.442 -0.436345 -0.436613 -0.31816 0.719546 
3765 2 -705.861 2601.19 -559.338 -0.930597 -0.140287 -0.336415 -0.0336699 
3758 2 -732.434 2645.84 -584.717 -0.818859 -0.520402 0.115551 0.212837 
3759 2 -736.14 2637.73 -580.542 -0.658993 -0.361619 0.362994 -0.550632 
3760 2 -736.082 2628.83 -576.309 0.0472217 -0.0510304 0.584439 -0.808454 
3761 2 -734.215 2619.4 -573.868 0.708197 0.316599 0.54302 -0.321484 
3763 2 -722.817 2604.23 -568.947 0.0895086 0.531264 -0.105238 0.835866 
3764 2 -714.335 2602.06 -564.485 -0.615336 0.317868 -0.378288 0.614182 
3762 2 -728.017 2611.95 -571.917 0.733881 0.605809 0.112432 0.285959 
3768 2 -692.19 2592.77 -535.382 0.874114 0.0920885 0.286862 -0.380991 
3769 2 -687.961 2588.61 -527.484 0.868841 0.243152 -0.0813637 0.423524 
3749 3 -690.561 2671.52 -628.098 0.765868 0.478166 -0.410571 0.127421 
3755 2 -725.734 2670.24 -598.804 0.844206 0.467314 -0.118565 0.234255 
3770 2 -687.876 2583.61 -518.985 0.232753 0.0524226 -0.230437 0.943386 
3754 2 -725.254 2679.37 -602.639 0.554781 0.420477 0.396959 -0.598197 
3743 2 -668.476 2641.85 -658.711 0.674881 -0.291775 0.513835 0.442015 
3746 2 -651.377 2663.42 -648.515 -0.631719 0.596136 -0.466415 0.16736 
3747 2 -643.567 2669.33 -649.955 -0.511876 -0.0269595 -0.754549 -0.409769 
3745 2 -658.492 2657.73 -652.55 -0.432893 0.470094 0.0864088 0.764296 
3744 2 -664.32 2650.24 -655.472 0.205649 0.177058 0.601786 0.751141 
3680 2 -602.471 2611.63 -664.28 -0.460725 -0.436884 0.707677 -0.309931 
3679 2 -599.22 2619.29 -659.036 -0.447531 -0.878313 0.117807 0.120014 
3678 2 -598.41 2626.92 -652.81 -0.262274 -0.706237 -0.576819 0.315787 
3677 2 -596.876 2633.48 -645.571 0.11945 0.0187214 -0.930197 0.346576 
3676 2 -596.766 2638.55 -637.073 0.213212 0.723429 -0.639057 0.15099 
3675 2 -595.006 2641.48 -627.701 0.154602 0.974446 0.153242 -0.0554092 
3674 2 -595.706 2647.16 -619.608 0.200446 0.446467 0.837884 -0.241743 
3673 2 -595.535 2653.62 -612.187 -0.159827 -0.252619 0.872972 -0.385433 
3672 2 -594.968 2660.21 -604.875 -0.307529 -0.79471 0.478729 -0.211375 
3671 2 -589.972 2666.26 -598.866 -0.299901 -0.885431 -0.148333 0.322596 
3668 3 -573.125 2626.12 -584.351 0.106016 -0.19204 0.944096 -0.246096 
3667 1 -584.507 2642.03 -555.388 0.116773 -0.189073 0.949006 -0.223612 
3666 2 -581.511 2596.8 -542.475 -0.654054 -0.201363 0.432292 0.587188 
3665 2 -573.891 2594.29 -548.452 0.0557063 -0.434835 0.100006 0.893204 
3664 2 -566.022 2594.05 -554.437 0.74385 -0.234603 -0.297409 0.550633 
3663 2 -561.493 2590.74 -562.698 0.879251 -0.114819 -0.322554 -0.331199 
3662 2 -555.423 2591.15 -570.573 0.436386 0.275323 -0.121846 -0.84789 
3661 2 -547.698 2591.13 -576.803 -0.355353 0.387366 0.179714 -0.83149 
3660 2 -540.805 2593.01 -583.604 -0.892372 0.079444 0.380306 -0.229628 
3659 2 -533.961 2596.63 -589.812 -0.806422 -0.397255 0.219974 0.378792 
3658 2 -528.437 2600.45 -597.104 -0.231155 -0.391111 -0.178886 0.872696 
3670 2 -583.997 2671.96 -593.486 0.145163 -0.364545 -0.80774 0.439989 
3669 2 -580.29 2677.48 -586.181 0.30254 0.378937 -0.847849 0.21454 
3657 2 -521.085 2603.45 -603.125 0.527021 -0.213027 -0.449874 0.688826 
3656 2 -514.538 2609.75 -606.796 0.819006 0.338685 -0.439201 0.14705 
3623 2 -447.378 2536.61 -526.108 0.0176394 0.109283 -0.922761 0.369133 
3642 2 -386.094 2616.91 -641.726 0.718948 -0.0191772 -0.613736 0.325691 
3640 1 -370.314 2572.63 -643.039 -0.869474 -0.0751756 0.480297 0.0876289 
3643 2 -394.784 2612.65 -639.752 0.181482 -0.591188 -0.310598 0.721866 
3644 2 -404.178 2610.36 -637.512 -0.453007 -0.499888 0.456418 0.580154 
3641 3 -400.679 2569.69 -626.158 -0.843341 -0.0627085 0.526971 0.0845288 
3645 2 -413.944 2611.82 -636.175 -0.745285 -0.175728 0.642661 0.0256096 
3646 2 -423.583 2610.17 -634.459 -0.450611 0.510178 0.517841 -0.518178 
3647 2 -433.358 2609.45 -635.094 0.0781154 0.723636 -0.211518 -0.65231 
3648 2 -443.013 2611.24 -636.455 0.663144 0.292393 -0.540718 -0.427049 
3649 2 -452.738 2612.37 -634.678 0.77623 -0.117269 -0.583999 0.206545 
3651 2 -470.984 2611.98 -627.169 -0.271055 -0.429638 0.328434 0.796286 
3650 2 -462.123 2611.43 -631.771 0.369363 -0.500183 -0.218145 0.752197 
3652 2 -479.628 2614.51 -622.952 -0.77882 -0.0363844 0.515378 0.35567 
3653 2 -488.209 2616.73 -618.833 -0.672543 0.252288 0.424762 -0.551012 
3654 2 -496.947 2615.41 -614.326 0.0834372 0.49707 0.173585 -0.846066 
3655 2 -505.444 2611.89 -610.244 0.621576 0.457982 -0.36372 -0.521156 
3622 2 -447.322 2545.36 -521.561 0.44333 0.737813 -0.44742 0.242706 
3621 2 -448.32 2553.02 -515.308 0.425397 0.780873 0.451317 -0.0747577 
3753 2 -723.56 2688.48 -606.414 -0.195328 -0.0222373 0.559849 -0.804936 
3752 2 -719.343 2697.28 -608.557 -0.763453 -0.526949 0.342997 -0.147709 
3751 2 -717.594 2706.95 -609.179 -0.555753 -0.614588 -0.354426 0.433361 
3750 2 -713.935 2715.32 -612.811 -0.123556 -0.320798 -0.498651 0.79572 
3748 1 -673.885 2701.56 -633.618 0.794817 0.461769 -0.393392 0.0166718 
4001 2 -833.933 2965.66 -629.255 -0.282933 0.0680028 -0.587791 0.754869 
4000 2 -838.712 2973.5 -633.077 0.375162 0.437393 -0.302213 0.759347 
3999 2 -845.867 2980.25 -634.151 0.699148 0.610596 0.235887 0.287614 
3998 2 -851.487 2988.13 -635.857 0.67858 0.284119 0.570396 -0.365313 
4002 2 -829.985 2957.35 -625.544 -0.828915 -0.287508 -0.407289 0.253683 
4003 2 -824.22 2950.14 -621.794 -0.839952 -0.402433 0.0453035 -0.361215 
4004 2 -821.432 2942.86 -615.698 -0.0224195 -0.40828 0.249583 -0.877789 
4005 2 -813.781 2938.44 -611.068 0.519842 -0.240616 0.640197 -0.511875 
4006 2 -804.688 2934.67 -609.732 0.656292 0.397456 0.629272 0.1238 
4017 2 -731.353 2903.01 -576.772 -0.599319 -0.123335 -0.233935 -0.755566 
4009 2 -780.825 2922.08 -620.752 -0.599419 -0.175489 -0.742942 0.240704 
4010 2 -772.572 2917.14 -622.953 -0.566907 -0.577774 -0.323697 -0.489913 
4008 2 -788.657 2926.86 -617.146 -0.193395 0.501793 -0.644629 0.543375 
4011 2 -763.154 2914.99 -621.213 -0.0644992 -0.439811 0.223716 -0.867386 
4007 2 -795.951 2930.43 -611.551 0.258324 0.890811 0.0792566 0.365299 
4012 2 -755.809 2910.76 -616.109 0.566624 -0.120555 0.506586 -0.638572 
4013 2 -748.97 2905.8 -610.991 0.94273 0.139426 0.302943 0.00675315 
4014 2 -743.384 2903.96 -603.027 0.599691 0.184289 -0.0560118 0.776705 
4015 2 -741.156 2901.4 -593.77 -0.368513 0.271826 -0.0690022 0.886311 
4016 2 -735.77 2901.45 -585.333 -0.953511 0.12357 -0.215537 0.170563 
4019 3 -713.509 2935.45 -613.247 -0.409277 0.382593 0.823834 -0.0860936 
4025 2 -698.934 2972.06 -638.403 -0.10298 0.43406 -0.419273 -0.790694 
4024 2 -693.617 2963.71 -637.391 -0.565333 0.720296 -0.0279473 -0.400987 
4023 2 -685.542 2959.56 -633.542 -0.56667 0.343696 0.748558 -0.0204491 
4022 2 -676.724 2955.83 -631.007 -0.295533 -0.428125 0.69316 0.498898 
4018 1 -690.745 2923.37 -589.525 -0.415366 0.354452 0.837707 0.00903319 
4021 2 -669.554 2950.97 -626.196 0.234572 -0.877029 0.0477402 0.416553 
4026 2 -704.996 2979.06 -634.79 0.572002 -0.240056 -0.629556 -0.467809 
3912 2 -761.92 2880.27 -528.661 -0.56312 0.454237 0.191899 -0.663128 
3913 2 -769.781 2882.52 -523.24 0.211308 0.462514 -0.299698 -0.807224 
4027 2 -710.52 2987.2 -633.621 0.781126 -0.566279 -0.261084 0.0317051 
3914 2 -778.278 2885.21 -519.005 0.872817 -0.000894019 -0.367948 -0.320629 
4020 2 -663.633 2948.76 -618.636 0.315607 -0.685303 -0.646643 0.11227 
3975 2 -842.932 2994.39 -515.359 -0.300971 0.448311 -0.838569 -0.072361 
3997 2 -857.001 2995.53 -639.46 0.182454 -0.247759 0.538024 -0.784765 
3976 2 -838.605 2997.64 -523.663 -0.170932 -0.361038 -0.860395 -0.316472 
3996 2 -859.453 3002.05 -646.53 -0.562966 -0.345166 0.204059 -0.722696 
3995 2 -866.241 3008.42 -650.317 -0.824485 -0.445455 -0.257343 -0.235729 
3994 2 -873.418 3015.18 -649.657 -0.578108 -0.194764 -0.716691 0.337952 
3993 2 -880.92 3021.17 -652.251 -0.110752 0.434361 -0.511899 0.732819 
3992 3 -836.834 3033.34 -627.957 -0.175932 -0.622586 0.393754 -0.652987 
3991 1 -862.654 3056.75 -627.018 -0.257411 -0.60533 0.344814 -0.66964 
3977 2 -833.37 3001.94 -530.977 0.0356072 -0.897516 -0.305005 -0.316495 
3978 2 -827.973 3004.72 -538.874 0.236383 -0.760254 0.578667 -0.176864 
3979 2 -822.728 3006.56 -547.125 0.124198 -0.100827 0.970037 0.182858 
3990 2 -826.864 3079.15 -605.871 0.339915 0.240863 -0.683341 -0.599573 
3989 2 -819.83 3072.1 -605.581 -0.266366 0.673232 -0.233408 -0.649098 
3980 2 -819.955 3010.31 -555.776 0.0120923 0.667972 0.663022 0.337741 
4042 2 -699.905 3116.96 -665.884 0.547978 -0.671206 0.440555 0.234763 
3981 2 -814.767 3014.19 -563.366 -0.318788 0.916293 -0.0881349 0.225862 
4028 2 -715.646 2995.59 -632.469 0.431423 -0.552532 0.273324 0.658693 
4041 2 -703.212 3108.16 -662.805 0.454381 -0.778291 -0.277394 -0.332948 
4040 2 -707.785 3099.41 -661.01 -0.156095 -0.155156 -0.771711 -0.596676 
3988 2 -813.603 3064.77 -603.164 -0.601613 0.695933 0.346973 -0.182618 
3987 2 -810.76 3056.04 -599.394 -0.39241 0.399301 0.73448 0.383552 
4039 2 -712.309 3090.65 -660.256 -0.613858 0.429494 -0.588299 -0.304332 
3982 2 -810.456 3019.82 -570.32 -0.237852 0.492917 -0.816571 -0.183496 
4038 2 -718.296 3083 -658.459 -0.540817 0.762831 -0.151662 0.32032 
3984 2 -805.579 3030.62 -586.258 0.34195 -0.832947 -0.385818 -0.201031 
3983 2 -808.235 3025.42 -578.192 -0.0493808 -0.36274 -0.896839 -0.248318 
3985 2 -805.03 3038.55 -592.262 0.459488 -0.818837 0.188247 0.287993 
3986 2 -808.486 3046.99 -595.994 0.112345 -0.364185 0.772377 0.508116 
4037 2 -720.896 3074.14 -654.992 -0.194507 0.48262 0.618332 0.588991 
4036 2 -720.591 3065.88 -649.556 0.0960829 -0.280801 0.850344 0.43455 
4035 2 -722.421 3056.9 -645.748 0.550018 -0.800222 0.214841 0.104733 
4034 2 -726.063 3048.31 -642.563 0.380553 -0.707323 -0.350191 -0.481913 
4033 2 -729.11 3039.72 -638.841 -0.036612 -0.207762 -0.805443 -0.553855 
4029 2 -720.42 3003.9 -630.361 -0.112772 -0.119248 0.776067 0.608918 
4032 2 -729.599 3031.29 -633.27 -0.308517 0.510842 -0.665932 -0.447653 
4031 2 -727.141 3022.05 -630.991 -0.540097 0.827063 0.0561821 -0.145278 
4030 2 -724.01 3012.84 -632.681 -0.613024 0.386439 0.558689 0.403402 
2967 2 -346.47 1335.37 -363.319 0.820718 -0.411349 0.0174199 -0.396118 
3153 2 -406.969 1541.49 -461.209 0.437495 0.51133 -0.409717 0.615851 
3147 2 -427.293 1594.72 -458.545 -0.342432 -0.112783 -0.818211 0.447829 
3148 2 -422.9 1586.48 -461.845 -0.493558 -0.716258 -0.46363 0.168589 
3149 2 -421.541 1577.66 -465.964 -0.613445 -0.721862 0.00509008 -0.320274 
3151 2 -412.479 1560.25 -464.715 0.490707 0.263538 0.586085 -0.588438 
3150 2 -417.389 1568.77 -464.947 0.00283919 -0.321006 0.603934 -0.729528 
3152 2 -409.965 1550.78 -462.654 0.742855 0.637816 0.201317 0.0287909 
3146 2 -430.074 1602.27 -452.852 0.168232 0.599156 -0.67823 0.390786 
3145 2 -430.267 1610.38 -447.097 0.432882 0.900753 -0.028804 0.0206629 
3144 2 -430.015 1615.77 -438.696 0.133227 0.651075 0.692064 -0.281779 
3155 3 -372.971 1580.47 -459.616 -0.556823 0.326352 0.523597 0.556137 
2991 2 -439.691 1492.32 -367.653 -0.36793 0.292195 0.879387 -0.0769933 
3143 2 -428.993 1619.95 -429.755 -0.0912009 -0.176258 0.951591 -0.234715 
3154 1 -360.75 1548.75 -467.755 -0.5401 0.292527 0.512514 0.600042 
3160 2 -339.073 1607.98 -453.692 0.841474 -0.515646 -0.116686 0.111424 
3159 2 -333.6 1599.89 -455.137 0.544635 -0.184747 -0.660515 -0.48266 
3158 2 -328.864 1591.68 -457.882 -0.156843 0.356799 -0.456719 -0.799689 
3157 2 -324.869 1583.34 -461.098 -0.678638 0.587895 -0.0492862 -0.437494 
3156 2 -321.471 1574.85 -464.968 -0.719467 0.368527 0.42958 0.402512 
3161 2 -343.215 1615.77 -449.29 0.44392 -0.423008 0.110211 0.78221 
3226 2 -520.096 1753.39 -366.059 -0.221133 -0.13175 0.461683 0.848876 
3225 2 -513.53 1749.47 -372.367 0.476083 -0.460548 -0.0654587 0.746295 
3210 2 -513.643 1686.39 -492.909 0.905702 0.152977 0.192122 0.345529 
3207 2 -442.985 1742.57 -509.89 0.170927 -0.909225 -0.30944 0.219867 
3208 1 -483.39 1718.2 -510.406 0.605515 0.191818 0.116673 0.763509 
3206 2 -437.458 1740.62 -501.937 0.327869 -0.394652 -0.856376 0.0580638 
3142 2 -426.321 1622.79 -420.776 -0.172825 -0.821237 0.543218 0.0248086 
3211 2 -509.589 1685.89 -483.941 0.44884 0.0870003 0.0855915 0.885239 
3212 2 -507.083 1686.87 -474.534 -0.513464 0.0925802 0.134281 0.842468 
3213 2 -507.046 1690.27 -465.219 -0.931382 0.223385 -0.0200941 0.286745 
3205 2 -433.179 1736.62 -493.921 0.156359 0.407808 -0.860935 -0.260835 
3214 2 -504.892 1693.91 -456.211 -0.813123 0.111638 -0.333294 -0.463986 
3215 2 -500.226 1698.18 -448.604 -0.0207076 -0.132839 -0.167388 -0.976681 
3221 2 -494.521 1732.47 -402.376 -0.788923 0.335965 0.0262956 -0.513845 
3220 2 -493.488 1725.58 -409.273 -0.847948 0.316176 0.242052 0.349896 
3216 2 -497.231 1701.54 -439.645 0.626887 -0.307856 -0.105901 -0.707829 
3222 2 -498.168 1737.21 -394.532 -0.0858335 0.261793 -0.27137 -0.922201 
3223 2 -503.618 1741.99 -387.873 0.666583 0.0449897 -0.314095 -0.674528 
3218 2 -493.848 1712.99 -423.925 0.631834 -0.239761 0.212228 0.705875 
3219 2 -494.862 1718.48 -415.789 -0.145343 0.155128 0.363586 0.906982 
3217 2 -494.924 1706.53 -431.366 0.912806 -0.397225 0.0864697 0.0390054 
3204 2 -431.727 1734.58 -484.453 -0.0389745 0.937951 -0.319377 -0.129338 
3141 2 -426.67 1628.53 -412.596 -0.273588 -0.868718 -0.40136 0.0968992 
3140 2 -425.995 1635.86 -406.021 -0.0577097 -0.264015 -0.851168 0.449977 
3199 2 -402.379 1716.31 -450.611 0.399292 -0.718548 -0.510314 0.252654 
3200 2 -409.84 1718.86 -456.661 0.157441 -0.861744 0.228991 0.424469 
3198 2 -395.429 1714.6 -443.689 0.377399 -0.00856835 -0.924264 -0.0568608 
3203 2 -427.657 1730.96 -476.284 -0.307789 0.852386 0.402893 -0.12799 
3201 2 -417.073 1722.87 -462.012 -0.244978 -0.451699 0.791641 0.330543 
3202 2 -423.684 1726.09 -468.624 -0.263768 0.346361 0.886118 0.158921 
3129 2 -428.193 1733.52 -387.723 -0.234873 -0.124294 0.865899 -0.423798 
3209 3 -470.595 1711.63 -478.49 0.571408 0.219577 0.110775 0.782948 
3130 2 -431.868 1726.03 -392.979 0.194353 0.561746 0.642281 -0.483883 
3131 2 -434.733 1717.9 -397.903 0.647736 0.750279 0.105332 -0.0801473 
3132 2 -434.186 1708.27 -399.226 0.563076 0.474924 -0.548021 0.396316 
3133 2 -435.075 1698.45 -399.956 0.0282443 -0.0970759 -0.649117 0.75394 
3134 2 -436.892 1688.65 -398.657 -0.737849 -0.447608 -0.394084 0.316107 
3135 2 -434.32 1679.48 -396.588 -0.716191 -0.523818 0.164998 -0.430652 
3136 2 -432.454 1670.3 -393.225 -0.0763773 -0.226988 0.629459 -0.739205 
3137 2 -430.465 1660.83 -391.243 0.416748 0.510168 0.639848 -0.395782 
3138 2 -428.385 1651.6 -394.408 0.53655 0.84153 0.0585736 0.0225865 
3139 2 -426.879 1642.85 -398.955 0.182954 0.650834 -0.663278 0.320945 
3197 2 -389.186 1713.88 -435.957 0.167082 0.75278 -0.549072 -0.322374 
3196 2 -383.826 1711.85 -427.783 -0.202836 0.899348 0.330902 -0.20133 
3195 2 -376.766 1710.39 -420.8 -0.410145 0.375951 0.824459 -0.103482 
3224 2 -508.989 1745.88 -380.374 0.952132 -0.16994 -0.190731 0.167888 
3170 2 -372.768 1667.71 -386.47 -0.883617 0.0610975 0.161344 0.435265 
3171 2 -375.429 1670.61 -377.437 -0.860533 0.322689 0.0153525 -0.393851 
3172 2 -378.121 1676.3 -369.864 -0.381738 0.249855 -0.31922 -0.830631 
3173 2 -379.21 1682.62 -362.399 0.411565 -0.155716 -0.271467 -0.855963 
3169 2 -368.897 1664.6 -394.89 -0.24487 -0.131095 0.204328 0.938671 
3194 2 -369.547 1710.58 -414.147 -0.392821 -0.366247 0.825672 0.172686 
3168 2 -366.088 1659.36 -402.822 0.617905 -0.287505 0.166124 0.712697 
3167 2 -362.962 1653.87 -410.459 0.925612 -0.334511 -0.158152 -0.0795818 
3128 3 -451.694 1694.86 -362.027 0.235446 0.0253324 0.75861 -0.606988 
3162 2 -348.655 1621.59 -443.468 -0.41851 -0.0738497 0.441748 0.790098 
3166 2 -360.949 1646.34 -416.592 0.545486 -0.0911582 -0.378057 -0.742434 
3165 2 -359.416 1637.97 -421.604 -0.158794 0.213216 -0.452239 -0.851354 
3193 2 -360.636 1708.67 -410.396 -0.0941897 -0.792197 0.314346 0.514528 
3163 2 -353.885 1627.4 -437.405 -0.92005 0.20375 0.245306 0.227638 
3164 2 -356.611 1631.51 -428.777 -0.776293 0.387043 -0.109626 -0.485334 
3192 2 -351.01 1707.76 -408.156 0.283061 -0.701983 -0.328139 0.565173 
3191 2 -341.428 1707.2 -405.681 0.574564 -0.204269 -0.78862 0.0789239 
3190 2 -332.07 1707.12 -402.396 0.36046 0.595964 -0.569205 -0.436922 
3185 2 -289.765 1711.6 -383.346 0.0409743 -0.864083 -0.363607 0.345647 
3184 2 -284.491 1711.85 -374.975 0.288079 -0.313303 -0.898249 0.109547 
3183 2 -277.598 1712.05 -367.927 0.325853 0.537431 -0.741488 -0.234912 
3187 2 -303.029 1711.21 -398.144 -0.642624 -0.350594 0.648188 0.209693 
3186 2 -295.715 1710.47 -391.37 -0.117538 -0.849157 0.349387 0.378213 
3189 2 -322.63 1708.7 -400.025 -0.124428 0.739236 0.27695 -0.601121 
3188 2 -312.725 1709.4 -399.76 -0.597205 0.347971 0.634261 -0.346374 
3519 2 -447.904 2217.91 -415.37 -0.0922118 -0.718924 -0.688637 -0.0206037 
3520 2 -446.103 2217.25 -425.1 0.0889997 -0.95712 0.224398 -0.160141 
3518 2 -449.36 2223.42 -407.174 -0.0791136 0.0181769 -0.944752 0.317575 
3521 2 -442.979 2218.44 -434.465 0.387808 -0.455665 0.800757 -0.0276226 
3522 2 -436.699 2220.69 -441.825 0.376792 0.38012 0.795411 0.284356 
3524 2 -419.463 2226.42 -449.078 -0.524966 0.6065 -0.581892 0.134054 
3523 2 -428.705 2223.59 -446.859 -0.150887 0.766439 0.110226 0.614537 
3525 2 -411.304 2230.67 -452.645 -0.375508 0.0590362 -0.893943 -0.237432 
3495 2 -362.948 2201.51 -362.878 0.741102 -0.411205 -0.358877 0.391006 
3517 2 -448.672 2229.02 -399.077 0.259876 0.835338 -0.451947 0.174408 
3493 2 -346.179 2191.11 -362.49 0.11808 0.50702 -0.571143 -0.634653 
3494 2 -353.934 2197.37 -363.851 0.658596 -0.00253814 -0.676198 -0.330154 
3490 2 -322.217 2174.95 -361.822 -0.580209 -0.134223 0.575343 0.560645 
3489 2 -312.575 2172.41 -362.822 0.0661764 -0.685478 0.0921427 0.719202 
3526 2 -403.872 2234.02 -458.23 -0.351773 -0.668274 -0.508518 -0.413611 
3516 2 -450.078 2233.52 -390.345 0.239674 0.92879 0.282036 -0.0189985 
3515 2 -452.33 2237.42 -381.518 0.167469 0.285579 0.930732 -0.155357 
3529 2 -378.015 2234 -472.827 0.43209 0.550729 0.63283 0.33094 
3530 2 -369.415 2233.63 -477.661 -0.0360858 0.843098 -0.0441849 0.534726 
3527 2 -394.83 2233.53 -462.248 0.140062 -0.795155 0.312728 -0.500312 
3528 2 -385.958 2233 -466.84 0.397445 -0.146814 0.905651 0.0167323 
3514 2 -453.801 2238.95 -371.73 0.0138409 -0.600252 0.795081 -0.0857481 
3534 2 -377.328 2323.51 -494.184 -0.667231 -0.260198 0.233007 0.657881 
3535 2 -383.84 2324.06 -486.694 -0.925032 -0.129615 0.324604 -0.148822 
3536 2 -389.098 2321.76 -478.582 -0.563151 0.167982 0.0441455 -0.807895 
3533 3 -385.919 2277.85 -470.691 -0.945322 -0.0254911 0.314731 0.0816179 
3537 2 -392.69 2321.41 -469.518 0.259212 0.270754 0.101165 -0.921557 
3538 2 -397.849 2318.7 -461.496 0.903421 0.246882 -0.15016 -0.316752 
3539 2 -402.442 2315.06 -453.518 0.703173 0.00706856 -0.212861 0.678371 
3540 2 -405.941 2311.41 -445.019 -0.13155 -0.11979 -0.115674 0.977223 
3541 2 -406.683 2308.31 -435.615 -0.854227 -0.0508182 -0.130531 0.500675 
3542 2 -404.068 2305.15 -426.678 -0.925517 -0.142627 -0.0567806 -0.346196 
3543 2 -401.122 2302.68 -417.604 -0.309938 -0.172263 -0.0549169 -0.933407 
3544 2 -398.469 2303.03 -408.079 0.605721 -0.156129 -0.0667105 -0.777352 
3545 2 -396.573 2306.51 -398.971 0.934829 -0.164 0.277827 0.148359 
3546 2 -392.527 2310.47 -391.012 0.533251 0.0655325 0.240895 0.808281 
3548 2 -385.068 2318.69 -375.082 -0.866044 0.367577 -0.0035733 0.338884 
3547 2 -388.198 2313.2 -382.516 -0.244104 0.220156 0.267772 0.905673 
3549 2 -382.278 2324.51 -367.679 -0.815604 0.23775 -0.302421 -0.432211 
3532 1 -363.77 2278.39 -497.774 -0.957947 0.00252769 0.281999 0.0529814 
3569 2 -374.075 2376.47 -423.574 0.603153 0.236762 -0.606233 -0.461119 
3572 2 -402.781 2381.82 -418.071 -0.477108 -0.496833 0.156941 0.707739 
3570 2 -383.474 2378.69 -421.74 0.721024 -0.330773 -0.567603 0.22032 
3571 2 -393.243 2380.09 -420.048 0.275222 -0.598445 -0.166811 0.733683 
3574 2 -421.122 2379.04 -411.49 -0.622514 0.445477 0.427823 -0.480618 
3573 2 -411.886 2379.13 -414.926 -0.802791 -0.141511 0.564514 0.129712 
3513 2 -456.493 2242.35 -362.866 -0.128717 -0.980492 0.00632199 -0.148419 
3568 2 -364.507 2377.58 -426.078 0.22677 0.62992 -0.13015 -0.731326 
3575 2 -430.291 2381.19 -408.864 -0.125212 0.486681 -0.0471747 -0.863272 
3531 2 -360.371 2234.14 -481.719 -0.444403 0.465098 -0.707362 0.292966 
3560 3 -339.169 2371.56 -382.902 0.342163 -0.411337 -0.702303 0.469571 
3562 2 -307.92 2374.68 -420.729 0.509723 0.0364639 -0.846728 -0.148 
3561 2 -299.319 2373.99 -415.912 0.253373 0.7488 -0.426728 -0.439322 
3563 2 -316.565 2376.87 -424.996 0.446622 -0.415983 -0.636579 0.471439 
3564 2 -325.97 2374.88 -427.125 -0.0533016 -0.759001 -0.0145135 0.648742 
3565 2 -335.799 2373.91 -428.325 -0.470364 -0.345681 0.626142 0.516923 
3566 2 -344.961 2377.5 -429.521 -0.796452 -0.0139333 0.604059 -0.0241384 
3567 2 -354.57 2377.28 -427.194 -0.529031 0.49797 0.456103 -0.513928 
3612 2 -532.64 2513.05 -505.948 0.41834 0.164315 -0.783154 -0.429723 
3611 2 -524.98 2507.27 -503.527 -0.0339121 0.683921 -0.380647 -0.621458 
3610 2 -516.155 2503.72 -501.06 -0.521389 0.629029 0.480034 -0.319442 
3576 2 -438.497 2383.82 -403.996 0.537689 0.326241 -0.443129 -0.638823 
3609 2 -507.783 2500.14 -496.958 -0.528921 0.103477 0.827729 0.156203 
3577 2 -447.044 2386.26 -399.836 0.841351 -0.322163 -0.424184 0.0916934 
3578 2 -454.933 2390.1 -394.913 0.50822 -0.315893 -0.119054 0.792307 
3579 2 -461.219 2391.63 -387.419 -0.124593 -0.150694 0.16227 0.96718 
3608 2 -502.643 2492.66 -493.283 0.0811966 -0.492152 0.688542 0.526405 
3607 2 -499.332 2486.33 -486.565 0.346195 -0.921071 -0.0703628 0.16379 
3606 2 -495.834 2481.8 -478.457 0.256953 -0.691754 -0.672457 -0.0570368 
3605 2 -492.044 2478.35 -469.905 0.159063 -0.0163069 -0.977172 -0.139887 
3604 2 -485.295 2474.74 -463.524 0.140322 0.608598 -0.663808 -0.411432 
3603 2 -478.905 2470.54 -457.258 -0.248004 0.899855 -0.0271045 -0.3578 
3602 2 -472.864 2467.96 -449.921 -0.362611 0.578507 0.729187 -0.0461497 
3601 2 -466.931 2468.95 -441.943 -0.281673 -0.210053 0.934977 0.0485311 
3600 2 -460.799 2466.87 -434.364 -0.0294239 -0.812669 0.49282 0.309568 
3599 2 -455.549 2460.72 -428.774 0.366619 -0.868701 -0.211154 0.25761 