ITEM: TIMESTEP
100000000
ITEM: NUMBER OF ATOMS
4067
ITEM: BOX BOUNDS pp pp pp
-4.6310929470000001e+03 4.6704658980000004e+03
-4.6310929470000001e+03 4.6704658980000004e+03
-4.6310929470000001e+03 4.6704658980000004e+03
ITEM: ATOMS id type x y z c_q[1] c_q[2] c_q[3] c_q[4] 
3370 1 -467.731 1987.95 -705.67 0.801961 -0.10494 0.587699 -0.0213414 
3372 2 -469.297 2034.3 -697.131 0.402856 0.459354 0.632702 0.475803 
3373 2 -460.261 2037.43 -699.337 -0.334545 0.583103 -0.131683 0.728512 
3374 2 -450.722 2039.17 -696.956 -0.826267 0.178412 -0.504778 0.175075 
3369 2 -445.965 1946.06 -707.95 0.272548 -0.583228 -0.641416 0.41731 
3375 2 -441.988 2039.68 -692.469 -0.551913 -0.494862 -0.599376 -0.30208 
3368 2 -438.07 1948.41 -702.58 0.46836 0.101563 -0.870704 0.110444 
3367 2 -430.27 1950.68 -696.829 0.380374 0.713248 -0.515486 -0.284372 
3371 3 -435.386 1994.92 -694.254 0.859591 -0.0778046 0.504612 -0.0203879 
3376 2 -432.466 2037.3 -694.149 0.0194609 -0.599501 -0.0115433 -0.800054 
3366 2 -423.776 1952.03 -689.571 0.0165859 0.921723 0.203847 -0.329541 
3377 2 -422.815 2038.23 -691.817 0.765716 -0.302053 0.329678 -0.462337 
3378 2 -415.037 2040.06 -685.765 0.826976 0.171114 0.381293 0.376095 
3379 2 -407.338 2040.75 -679.554 0.284928 0.485361 0.0775181 0.822941 
3380 2 -399.053 2039.2 -674.428 -0.489835 0.362501 -0.377678 0.697147 
3381 2 -390.611 2036.86 -669.7 -0.659727 -0.0314827 -0.74778 0.0677826 
3382 2 -380.97 2035.5 -670.749 -0.551051 -0.522577 -0.327275 -0.56227 
3365 2 -415.986 1956.31 -685.025 -0.297556 0.403259 0.762335 -0.409498 
3364 2 -409.566 1960.72 -678.883 -0.410194 -0.366747 0.831348 -0.0780946 
3363 2 -403.718 1963.9 -671.669 -0.246649 -0.904756 0.253846 0.236945 
3383 2 -371.835 2033.85 -667.392 0.0526978 -0.474488 0.199714 -0.855686 
3402 2 -348.016 2062.26 -737.99 -0.865502 0.286055 -0.124786 -0.3918 
3400 2 -345.31 2052.93 -754.61 -0.203599 0.0349751 0.328665 0.921577 
3399 2 -343.086 2044.79 -759.838 0.401143 -0.37162 0.361531 0.755168 
3401 2 -346.234 2059.5 -747.254 -0.921618 0.128955 0.0936085 0.353877 
3398 3 -316.682 2044.28 -715.213 -0.847005 0.374374 0.180181 -0.331604 
3397 1 -302.04 2028.81 -742.79 -0.846313 0.354951 0.163429 -0.362016 
3396 2 -269.1 2024.35 -709.409 -0.33129 -0.312335 -0.876284 -0.157543 
3395 2 -275.433 2022.98 -701.917 -0.350769 0.502503 -0.776373 0.1473 
3394 2 -282.727 2021.06 -695.484 -0.162355 0.877229 -0.20372 0.403247 
3393 2 -289.06 2021.51 -687.845 0.261083 0.68409 0.649805 0.203987 
3392 2 -295.705 2021.95 -680.58 0.259299 -0.213746 0.936229 -0.10272 
3391 2 -303.424 2021.29 -674.468 0.249457 -0.747548 0.478082 -0.387789 
3403 2 -348.586 2068.68 -730.556 -0.323047 0.131954 -0.250259 -0.903105 
3404 2 -349.399 2073.98 -722.316 0.534834 -0.0908055 -0.259371 -0.79902 
3390 2 -311.73 2020.42 -669.004 -0.100757 -0.823283 -0.289573 -0.477704 
3405 2 -351.125 2078.07 -713.475 0.91843 -0.291112 -0.245539 -0.107008 
3411 2 -386.636 2117.23 -692.762 0.664735 -0.0493451 -0.545923 -0.507602 
3410 2 -379.458 2111.25 -695.9 -0.0686444 0.487531 -0.338044 -0.802077 
3409 2 -371.642 2105.85 -698.689 -0.607345 0.565647 0.150096 -0.537259 
3408 2 -364.614 2099.04 -699.893 -0.723498 0.25679 0.59173 0.245896 
3412 2 -392.997 2123.89 -689.063 0.906993 -0.366227 -0.144577 0.149466 
3413 2 -396.537 2130.17 -682.186 0.620689 -0.223468 0.0917255 0.745918 
3414 2 -399.035 2134.82 -673.817 -0.105923 -0.0532769 0.404502 0.906819 
3415 2 -400.699 2142.19 -667.422 -0.71703 0.499947 0.219903 0.433086 
3407 2 -359.474 2090.57 -700.763 -0.136981 -0.256674 0.609772 0.737247 
3406 2 -355.307 2083.6 -706.616 0.585914 -0.427953 0.0960604 0.68142 
3204 2 -267.476 1739.45 -541.237 0.280064 0.921588 -0.00670684 0.268692 
3205 2 -262.28 1733.99 -547.648 -0.0912165 0.536453 -0.666329 0.509807 
3206 2 -256.168 1727.87 -552.401 -0.519939 -0.278822 -0.802351 0.0902988 
3203 2 -267.363 1747.51 -535.564 0.267881 0.593075 0.663013 -0.37002 
3207 2 -248.775 1723.03 -556.893 -0.410246 -0.805557 -0.327559 -0.274738 
3202 2 -271.498 1755.15 -530.855 0.121564 -0.216462 0.851409 -0.462027 
3201 2 -274.839 1762.4 -524.979 -0.256691 -0.831997 0.375016 -0.318204 
3208 1 -216.897 1755.98 -545.814 0.817486 0.140714 -0.186816 -0.526323 
3209 3 -234.265 1751.21 -515.912 0.808075 0.17978 -0.288716 -0.480974 
3200 2 -278.603 1769.01 -518.654 -0.420777 -0.83779 -0.338954 -0.0785082 
3210 2 -194.047 1784.15 -515.727 0.965143 0.125557 -0.223655 0.0520932 
3362 2 -399.394 1970.23 -665.386 -0.159359 -0.783224 -0.459191 0.387696 
3361 2 -395.915 1977.32 -659.381 0.187307 -0.117003 -0.888633 0.401943 
3360 2 -394.089 1983.88 -652.261 0.32041 0.737592 -0.575425 0.148932 
3347 2 -425.818 2065.89 -568.242 -0.111644 0.283965 -0.638233 0.706794 
3348 2 -419.414 2058.27 -568.259 -0.4516 -0.47172 -0.716263 0.245978 
3349 2 -414.67 2051.15 -573.169 -0.351409 -0.927986 0.0200724 -0.122274 
3350 2 -412.427 2044.72 -580.329 -0.164909 -0.61675 0.683287 -0.354321 
3351 2 -410.486 2037.66 -587.081 0.253498 0.228028 0.861671 -0.375852 
3359 2 -391.213 1988.66 -644.099 0.253552 0.92233 0.213229 -0.198878 
3352 2 -408.126 2030.26 -593.224 0.414807 0.849899 0.324015 0.0249226 
3353 2 -404.581 2023.72 -599.765 0.0877054 0.742138 -0.579215 0.325651 
3354 2 -400.538 2017.92 -606.786 -0.183557 -0.0542868 -0.879755 0.43519 
3358 2 -392.017 1996.25 -637.781 0.250842 0.387066 0.810721 -0.360542 
3357 2 -395.407 2000.93 -629.78 0.0633817 -0.349262 0.896547 -0.264956 
3355 2 -397.48 2010.5 -612.563 -0.238588 -0.802877 -0.531218 0.127562 
3356 2 -396.647 2005.05 -620.857 -0.224823 -0.924589 0.276444 -0.134787 
3291 2 -407.292 2010.33 -534.207 -0.218074 -0.520563 -0.459747 -0.685632 
3292 2 -398.016 2013.8 -533.485 0.212756 -0.744496 0.0963942 -0.625435 
3293 2 -388.198 2015.72 -534.01 0.658697 -0.450428 0.574623 -0.181774 
3294 2 -379.124 2019.87 -533.932 0.615221 0.0886602 0.621636 0.476666 
3346 2 -432.445 2073.3 -567.464 0.380936 0.677229 -0.183461 0.602154 
3295 2 -370.737 2025.04 -532.913 -0.0354792 0.468621 0.172349 0.865697 
3296 2 -363.713 2029.05 -527.369 -0.662477 0.545681 -0.191322 0.476185 
3384 2 -363.466 2030.78 -662.95 0.661175 -0.244598 0.486018 -0.516532 
3385 2 -354.729 2028.41 -659.141 0.755601 0.381125 0.531003 0.0429738 
3389 2 -319.793 2020.28 -663.248 -0.377312 -0.421831 -0.795023 -0.21825 
3388 2 -328.318 2018.08 -658.419 -0.514271 0.253394 -0.819298 -0.00821968 
3386 2 -346.976 2022.68 -656.95 0.421838 0.643044 0.124974 0.62684 
3387 2 -337.844 2019.35 -655.69 -0.350826 0.653981 -0.429781 0.514313 
3325 2 -248.475 2060.96 -574.549 -0.213422 0.849631 -0.0833935 -0.474998 
3326 2 -256.398 2065.32 -578.744 0.361862 0.382751 -0.7736 -0.352279 
3324 2 -240.012 2056.14 -572.553 -0.611369 0.531214 0.576176 -0.109818 
3323 2 -231.158 2052.69 -569.949 -0.572263 -0.0803957 0.770877 0.267956 
3317 3 -216.334 2051.49 -520.137 -0.380939 0.612082 0.452221 -0.525108 
3322 2 -223.03 2049.6 -565.216 -0.215465 -0.652808 0.54604 0.478808 
3321 2 -213.806 2046.26 -564.187 0.408878 -0.700141 -0.197943 0.550855 
3327 2 -264.959 2068.05 -583.103 0.502205 -0.485645 -0.709433 0.0929733 
3328 2 -272.642 2071.62 -588.061 0.375685 -0.877319 -0.0805796 0.287539 
3329 2 -279.15 2077.78 -592.405 -0.00462753 -0.594059 0.553626 0.583585 
3297 2 -356.205 2034.54 -523.61 -0.878977 0.117114 -0.43388 -0.159473 
3298 2 -348.771 2037.61 -517.99 -0.412221 -0.300324 -0.467266 -0.722179 
3299 2 -340.173 2041.51 -515.161 0.186458 -0.419314 0.0954061 -0.88335 
3320 2 -205.422 2041.33 -562.303 0.649159 -0.345158 -0.677768 -0.00944497 
3319 2 -196.689 2037.14 -559.851 0.378211 0.388482 -0.697544 -0.468477 
3318 2 -188.37 2031.9 -559.332 -0.209548 0.709968 -0.133871 -0.658873 
3316 1 -181.478 2050.18 -516.378 -0.461934 0.521679 0.474438 -0.537938 
3345 2 -439.23 2080.46 -565.929 0.660109 0.578856 0.478728 0.00112356 
3416 2 -399.623 2151.15 -663.218 -0.849874 0.349628 -0.261915 -0.294745 
3417 2 -396.828 2158.97 -657.804 -0.271348 0.144102 -0.504353 -0.80699 
3418 2 -396.21 2167.63 -653.078 0.415452 -0.349012 -0.502504 -0.673112 
3344 3 -390.25 2094.75 -576.02 0.388069 0.804354 -0.171853 0.415792 
3343 1 -411.344 2118.09 -560.613 0.377046 0.790835 -0.197097 0.439965 
3421 2 -401.491 2195.51 -645.446 -0.17486 -0.0777099 0.727208 0.659207 
3427 2 -480.096 2168.04 -621.908 -0.584775 -0.485601 0.044809 -0.648245 
3428 2 -474.238 2161.98 -616.598 0.0810508 -0.244547 0.296707 -0.919561 
3429 2 -469.639 2157.42 -609.052 0.796489 0.0476271 0.370857 -0.475187 
3431 2 -461.862 2149.17 -592.87 0.25972 0.133491 0.0555809 0.954796 
3430 2 -464.564 2153.19 -601.622 0.880214 0.248071 0.0668767 0.399013 
3432 2 -459.939 2149.41 -583.144 -0.565778 0.0263388 -0.00708349 0.824107 
3433 2 -458.785 2149.27 -573.195 -0.944706 0.220147 -0.0752633 0.231088 
3434 2 -456.903 2152.06 -563.865 -0.800499 0.178796 -0.392607 -0.416044 
3425 3 -437.027 2173.02 -628.879 -0.632405 -0.568989 0.117866 -0.512273 
3422 2 -404.995 2204.74 -646.183 -0.60863 0.458475 0.598373 0.247628 
3424 1 -454.893 2201.33 -639.365 -0.585803 -0.547185 0.0719564 -0.593503 
3426 2 -488.666 2172.83 -622.931 -0.722529 -0.394532 -0.561153 -0.086046 
3435 2 -451.444 2157.45 -557.736 -0.232919 -0.179606 -0.394408 -0.870593 
3436 2 -446.724 2162.48 -550.71 0.588791 -0.340163 -0.0129615 -0.733107 
3437 2 -442.979 2167.39 -542.956 0.983037 -0.0376026 0.171382 0.0534078 
3438 2 -440.051 2168.64 -533.44 0.595474 0.0363963 0.0387033 0.801616 
3439 2 -438.441 2168.49 -523.641 -0.268242 0.139776 0.151915 0.940973 
3423 2 -409.981 2213.27 -647.228 -0.571205 0.730472 0.00869431 -0.374246 
3420 2 -399.053 2186.36 -648.434 0.522052 -0.493018 0.328827 0.613406 
3419 2 -395.555 2177.08 -650.047 0.740343 -0.649495 -0.173038 0.0102943 
3342 2 -370.621 2141.54 -564.901 0.817262 -0.453812 -0.0657048 0.349028 
3341 2 -366.163 2134.83 -570.832 0.763192 -0.202241 -0.418838 -0.448566 
3340 2 -364.232 2128.66 -578.259 0.154871 0.0503137 -0.353798 -0.921038 
3339 2 -361.654 2121.84 -584.926 -0.503397 0.36639 -0.224944 -0.7495 
3440 2 -436.81 2172.01 -514.534 -0.861741 0.342754 -0.162963 0.336699 
3330 2 -286.297 2084.07 -595.276 -0.541017 0.127546 0.755154 0.347526 
3331 2 -294.147 2090.18 -596.769 -0.683304 0.55851 0.408249 -0.233442 
3332 2 -302.074 2096.27 -596.337 -0.228191 0.68304 -0.0305186 -0.693147 
3333 2 -311.351 2099.57 -596.326 0.388946 0.418283 -0.574885 -0.58589 
3334 2 -320.75 2102.18 -596.917 0.67647 0.00160225 -0.734935 -0.0475019 
3335 2 -330.535 2103.59 -597.404 0.603682 -0.427916 -0.294278 0.604861 
3336 2 -339.322 2105.72 -593.563 0.0182748 -0.492069 0.175711 0.852444 
3337 2 -347.212 2109.31 -588.846 -0.547777 -0.0572682 0.675688 0.490006 
3338 2 -355.09 2115.37 -588.242 -0.78451 0.476632 0.352456 -0.182044 
3597 2 -669.618 2419.23 -548.435 -0.870504 -0.00591276 -0.1378 0.472439 
3596 2 -670.013 2418.38 -558.362 -0.429516 0.0490559 0.00644488 0.901703 
3595 2 -672.523 2416.41 -567.792 0.317709 0.089474 0.117516 0.936614 
3598 2 -668.172 2418.37 -538.692 -0.813306 -0.179113 -0.0217345 -0.553154 
3594 2 -670.702 2415.14 -577.536 0.951969 -0.0671105 -0.0661012 0.291344 
3582 2 -612.768 2383.69 -521.115 0.399138 0.358931 0.78991 0.29648 
3593 2 -665.497 2413.8 -585.878 0.871728 0.0275922 -0.299216 -0.387037 
3599 2 -665.285 2416.62 -529.29 0.179385 -0.0987931 -0.202163 -0.957701 
3600 2 -664.308 2419.69 -520.027 0.82411 -0.272194 -0.127348 -0.480142 
3583 2 -605.06 2386.17 -526.934 -0.0289079 0.901646 0.137018 0.409177 
3584 2 -597.64 2387.86 -533.19 -0.446821 0.547191 -0.633867 0.314874 
3585 2 -588.374 2389.16 -536.568 -0.540414 -0.126873 -0.812725 -0.177013 
3592 2 -660.562 2413.96 -594.516 0.186031 0.279402 -0.00648953 -0.941958 
3587 3 -630.053 2399.11 -565.867 -0.718139 0.201761 0.491377 -0.449576 
3591 2 -653.234 2415.26 -601.116 -0.560372 0.283819 0.309896 -0.713719 
3590 2 -644.249 2416.44 -605.192 -0.822951 -0.126224 0.550617 0.0603274 
3589 2 -635.437 2417.85 -609.452 -0.468552 -0.4965 0.240308 0.690071 
3588 2 -628.092 2414.85 -615.347 0.314946 -0.44374 0.061791 0.836711 
3586 1 -598.602 2405.22 -579.795 -0.727724 0.125572 0.538805 -0.405386 
3936 2 -572.257 2806.06 -531.165 0.265389 0.903759 -0.0187567 -0.335314 
3935 2 -566.615 2810.69 -524.407 -0.0636481 0.576541 0.696892 -0.421771 
3934 2 -561.156 2818.64 -522.278 -0.427075 -0.105702 0.793821 -0.419859 
3933 2 -556.19 2826.91 -520.054 -0.659058 -0.603965 0.44633 -0.0407343 
3932 2 -551.582 2835.64 -517.867 -0.425717 -0.708058 -0.294976 0.480009 
4044 2 -978.913 2956.69 -547.529 -0.560824 0.617297 0.541543 -0.1056 
4043 2 -971.399 2950.91 -544.536 -0.342025 -0.24885 0.765554 0.484789 
4042 2 -964.962 2946.82 -538.335 0.112319 -0.857061 0.304183 0.40038 
4046 3 -928.758 2969.48 -543.097 0.690933 0.192195 0.526665 -0.456395 
4041 2 -958.017 2942.5 -532.976 0.445789 -0.678031 -0.541786 0.21912 
3991 1 -825.621 2912.37 -545.327 0.626584 0.103697 0.363781 0.681398 
4040 2 -949.473 2940.11 -528.508 0.46723 0.141499 -0.850643 -0.195141 
4039 2 -941.881 2935.28 -524.494 0.023169 0.713091 -0.438373 -0.54662 
4038 2 -933.527 2930.73 -521.756 -0.493133 0.743083 0.298801 -0.339654 
4037 2 -925.056 2926.9 -518.165 -0.537909 0.180012 0.806752 0.165532 
4053 2 -868.956 2992.91 -519.596 -0.77009 -0.207295 -0.550298 -0.247308 
4054 2 -859.767 2992.95 -516.111 -0.0556185 -0.598952 -0.143335 -0.785887 
3992 3 -803.441 2925.77 -521.705 0.545028 0.129139 0.437223 0.703636 
3990 2 -788.33 2924.95 -571.45 -0.0770222 -0.888539 -0.385295 0.236884 
3982 2 -726.878 2936.77 -540.16 0.62428 -0.361287 -0.550719 0.420066 
3981 2 -717.535 2935.04 -543.041 0.688688 0.178329 -0.596707 -0.371281 
3980 2 -708.306 2936.32 -546.573 0.155683 0.562221 0.00055835 -0.812201 
3979 2 -699.506 2940.08 -549.366 -0.404003 0.37263 0.427515 -0.717746 
3978 2 -690.657 2944.6 -550.225 -0.713419 -0.0854176 0.67105 -0.182834 
3977 2 -683.25 2950.41 -553.604 -0.719513 -0.534173 0.109994 0.429955 
3983 2 -736.611 2937.38 -538.397 0.0524405 -0.70634 -0.150897 0.689611 
3984 2 -746.425 2935.87 -538.1 -0.300631 -0.643716 0.409539 0.572301 
3985 2 -756.216 2935.86 -539.538 -0.544268 -0.0605779 0.836342 0.0251971 
3986 2 -765.369 2936.22 -542.893 -0.370673 0.512361 0.731981 -0.253559 
3987 2 -773.541 2935.46 -548.573 0.196692 0.957051 0.080078 -0.197365 
3988 2 -777.475 2931.71 -556.743 0.423335 0.575111 -0.698487 -0.0463711 
3989 2 -784.358 2928.16 -562.837 0.167252 -0.0963427 -0.964087 0.18243 
3976 2 -675.377 2955.14 -557.363 0.0301097 -0.480464 -0.290355 0.827008 
3975 2 -666.448 2958.98 -557.863 0.594588 -0.187663 -0.643731 0.443686 
3974 2 -659.371 2965.82 -559.082 0.745288 0.512601 -0.419846 -0.0742648 
3973 2 -652.166 2972.48 -557.652 0.384399 0.728498 0.111416 -0.555981 
3972 2 -643.959 2976.94 -554.214 -0.279023 0.46027 0.677456 -0.501349 
3971 2 -636.146 2982.79 -553.347 -0.674667 -0.244916 0.669514 -0.191289 
3970 2 -628.842 2989.41 -552.336 -0.617245 -0.657187 0.163717 0.400388 
3931 2 -544.553 2842.27 -516.115 0.134867 -0.36499 -0.665199 0.637263 
3930 2 -537.533 2849.17 -514.954 0.622442 0.190251 -0.70433 0.283355 
4045 1 -950.936 2994 -554.463 0.699132 0.15082 0.531205 -0.454189 
4052 2 -877.355 2996.61 -523.212 -0.474475 0.251812 -0.526678 0.658843 
4051 2 -885.406 2998.47 -528.579 0.184577 0.461336 -0.0380053 0.866981 
4047 2 -909.816 3017.05 -552.202 -0.652597 -0.482397 -0.11148 -0.573569 
4048 2 -903.232 3011.43 -547.416 0.032729 -0.20834 0.212797 -0.954065 
4049 2 -899.036 3007.37 -539.492 0.803146 0.0560709 0.418636 -0.420185 
4050 2 -893.253 3002.28 -533.242 0.816371 0.378284 0.348591 0.262534 
3969 2 -621.508 2995.15 -549.115 0.0427669 -0.634471 -0.516698 0.573272 
3968 2 -614.011 3000.51 -545.883 0.489361 -0.0487103 -0.797417 0.349686 
3967 2 -608.256 3004.78 -539.156 0.410232 0.577468 -0.70391 -0.0524519 
3966 2 -601.654 3008.66 -532.599 0.151469 0.899114 0.118358 -0.393246 
1938 2 214.677 -160.276 -368.97 -0.565264 0.777262 -0.26422 -0.0808006 
1937 2 212.865 -169.394 -365.353 -0.415198 0.695782 0.446958 0.379113 
1936 2 211.394 -178.738 -362.237 0.0972867 0.12686 0.790498 0.591232 
2778 2 -151.796 1111.92 -389.717 0.678152 -0.228625 -0.270282 -0.64404 
2779 2 -152.171 1118.83 -382.496 0.916981 -0.385808 0.0732362 -0.0702543 
2780 2 -150.858 1125.82 -375.61 0.593674 -0.271077 0.284664 0.702164 
2776 1 -161.711 1072.94 -364.995 -0.916516 0.32426 0.130227 0.194668 
2781 2 -151.048 1132.73 -368.508 -0.0935981 -0.0532377 0.234358 0.966169 
2724 2 -45.5097 1091.48 -362.188 -0.626332 -0.0279611 0.441983 -0.641543 
3163 2 -300.412 1756.48 -389.217 -0.616471 0.61843 0.132017 0.469126 
3162 2 -302.601 1746.82 -390.322 0.0736296 0.0687593 0.677069 0.728991 
3161 2 -303.235 1737.01 -389.437 0.612486 -0.61951 0.386522 0.302769 
3160 2 -302.017 1727.43 -386.865 0.590501 -0.749641 -0.275652 -0.115598 
3156 2 -292.975 1694.2 -399.974 -0.814776 0.235955 0.306042 0.432208 
3157 2 -294.895 1700.43 -392.615 -0.824097 0.450113 -0.215734 -0.267809 
3159 2 -298.236 1718.35 -386.496 0.374853 -0.221645 -0.694471 -0.572773 
3158 2 -295.048 1709.04 -387.612 -0.231874 0.452605 -0.478076 -0.716119 
3164 2 -296.567 1764.97 -386 -0.801754 0.424119 -0.367669 -0.205264 
3154 1 -312.052 1665.35 -367.914 -0.791765 0.432326 0.0600064 0.427319 
3165 2 -291.956 1772.99 -382.357 -0.221633 0.139833 -0.651163 -0.712259 
3215 2 -220.601 1772.42 -476.147 -0.467127 0.343754 -0.0136266 -0.814519 
3214 2 -214.156 1774.26 -483.272 -0.818255 0.0230683 0.417388 -0.394606 
3216 2 -225.948 1775.46 -468.382 0.408163 0.163235 -0.273987 -0.855388 
3199 2 -281.6 1776.42 -512.848 -0.289448 -0.385327 -0.816501 0.317912 
3166 2 -290.242 1782.64 -380.897 0.408958 -0.302824 -0.671282 -0.538917 
3223 2 -246.296 1788.46 -406.177 0.383588 0.0350596 0.0780129 -0.919535 
3224 2 -245.657 1787.56 -396.336 0.970092 0.063323 0.180049 -0.149982 
3225 2 -241.816 1785.5 -387.468 0.706883 0.185658 0.201413 0.652135 
3222 2 -244.802 1785.21 -415.469 -0.487272 0.151529 -0.115766 -0.852175 
3226 2 -236.417 1785.4 -379.162 -0.134423 0.24177 -0.0373227 0.960252 
3221 2 -243.004 1783.91 -425.014 -0.955947 0.0539798 0.0592123 -0.282394 
3198 2 -284.557 1784.36 -508.009 -0.0369772 0.299154 -0.820067 0.486446 
3197 2 -289.035 1792.25 -504.097 0.287598 0.71949 -0.391704 0.496174 
3196 2 -294.482 1798.94 -499.19 0.404491 0.848494 0.257887 0.223472 
3195 2 -296.53 1807.57 -494.748 0.319484 0.307138 0.810755 -0.382457 
3194 2 -298.858 1815.84 -489.984 -0.139274 -0.463464 0.708488 -0.513663 
3193 2 -301.689 1824.47 -486.207 -0.552894 -0.821803 0.0155815 -0.136769 
3192 2 -303.776 1833.9 -484.301 -0.463859 -0.4571 -0.624844 0.430655 
3191 2 -306.862 1842.98 -482.185 0.00065094 0.247905 -0.729422 0.637562 
3190 2 -307.501 1852.78 -481.688 0.615326 0.612625 -0.325103 0.374663 
3189 2 -310.582 1862.03 -483.402 0.736099 0.546396 0.3532 -0.186706 
3167 2 -292.041 1792.31 -381.607 0.620386 -0.751544 -0.0272089 -0.222625 
3188 2 -311.769 1871.21 -486.673 0.254666 0.0809057 0.573992 -0.774037 
3168 2 -289.876 1801.81 -383.376 0.491448 -0.568595 0.474916 0.457858 
3169 2 -289.453 1811.62 -384.167 0.0131629 0.104105 0.71967 0.686341 
3170 2 -288.49 1821.58 -384.581 -0.433957 0.795941 0.421723 0.017603 
3171 2 -292.225 1828.76 -390.063 -0.226032 0.790821 -0.335325 -0.459423 
3172 2 -298.254 1835.28 -394.57 0.233733 0.245692 -0.768343 -0.54282 
3173 2 -303.922 1842.59 -397.642 0.468912 -0.384273 -0.752144 -0.258332 
3174 2 -309.003 1850.3 -401.632 0.475411 -0.813327 -0.15763 0.296033 
3175 2 -314.163 1857.43 -405.975 0.248455 -0.538704 0.477592 0.648054 
3176 2 -318.845 1866.05 -406.593 -0.38867 0.13724 0.693613 0.590764 
3177 2 -322.408 1875.42 -405.926 -0.812955 0.538798 0.194098 0.105484 
3187 2 -314.078 1880.63 -489.075 -0.364487 -0.381185 0.475682 -0.70397 
3186 2 -315.24 1890.31 -487.584 -0.62028 -0.767852 0.0773607 -0.140257 
3185 2 -316.251 1900.18 -486.222 -0.439039 -0.477072 -0.597158 0.472281 
3184 2 -316.646 1910.01 -485.071 0.0468939 0.12261 -0.746186 0.652666 
3183 2 -319.482 1919.46 -484.422 0.471759 0.619433 -0.354778 0.51757 
3182 3 -323.514 1885.38 -445.437 -0.08968 0.101469 -0.734161 0.665334 
3178 2 -324.363 1884.58 -402.789 -0.511981 0.563014 -0.0833052 -0.64339 
3179 2 -331.09 1890.95 -399.238 0.0175816 0.411005 -0.494208 -0.765848 
3180 2 -337.549 1897.99 -396.981 0.652494 -0.220383 -0.608166 -0.394737 
3227 2 -232.524 1785.22 -369.975 -0.812035 0.0785659 -0.0769039 0.57316 
3242 2 -263.168 1881.47 -386.471 0.272818 0.0626444 -0.920731 -0.271847 
3241 2 -256.525 1878.64 -379.819 0.0614024 0.731998 -0.544257 -0.405207 
3240 2 -252.93 1877.55 -370.529 -0.121892 0.959806 0.160987 -0.194932 
3243 2 -268.426 1886.41 -393.36 0.559148 -0.68401 -0.467458 0.0310828 
3244 2 -273.39 1894.01 -397.21 0.407767 -0.644514 0.240234 0.600513 
3245 2 -279.927 1901.45 -396.848 -0.317516 -0.18031 0.651646 0.664853 
3220 2 -240.08 1781.28 -434.176 -0.853767 0.0362443 0.200486 0.479139 
3219 2 -239.858 1779 -443.694 -0.150406 -0.0729919 0.109068 0.979875 
3218 2 -237.945 1779.49 -453.442 0.628737 -0.0755647 -0.134758 0.762116 
3246 2 -285.767 1909.54 -395.816 -0.689933 0.442651 0.498024 0.282884 
3247 2 -289.788 1918.51 -395.417 -0.727066 0.587563 -0.246061 -0.256124 
3217 2 -231.521 1779.42 -461.13 0.930781 0.0204128 -0.331932 -0.151824 
3181 1 -330.6 1918.99 -438.651 -0.036798 0.128881 -0.715903 0.685214 
3213 2 -208.18 1775.13 -491.008 -0.792757 -0.135501 0.275602 0.526517 
3212 2 -202.76 1777.89 -498.993 -0.110087 -0.31244 -0.115709 0.936415 
3211 2 -197.644 1781.19 -506.966 0.63233 -0.0886848 -0.288266 0.71358 
3288 2 -417.537 2040.69 -448.216 -0.651446 0.360792 0.645989 -0.167768 
3289 1 -421.348 2019.37 -490.113 0.376317 -0.691616 0.162954 -0.594557 
3290 3 -390.509 2035.83 -492.193 0.488359 -0.682179 0.168634 -0.517398 
3287 2 -408.053 2037.78 -447.283 -0.459662 -0.396062 0.628874 0.486172 
3286 2 -398.407 2038.48 -445.48 -0.0418706 -0.791032 0.00109944 0.61034 
3285 2 -388.645 2039.07 -443.935 0.460108 -0.596112 -0.50753 0.418766 
3284 2 -379.495 2038.21 -440.35 0.60148 -0.016547 -0.798713 0.00255046 
3283 2 -369.863 2038.35 -437.926 0.456482 0.592894 -0.520257 -0.411624 
3282 2 -359.994 2038.53 -437.026 -0.167323 0.728145 0.131188 -0.651611 
3248 2 -289.588 1928.04 -392.646 -0.388139 0.0910025 -0.590582 -0.701627 
3281 2 -351.336 2040.29 -432.683 -0.349791 0.40238 0.758489 -0.374741 
3305 2 -291.615 2059.41 -489.674 -0.480617 -0.444946 -0.484996 -0.57949 
3307 2 -272.097 2060.25 -487.455 0.770274 -0.326045 0.529231 -0.142432 
3309 2 -254.117 2067.97 -484.095 0.163155 0.717318 0.112443 0.667976 
3308 2 -262.753 2063.33 -486.225 0.556185 0.214914 0.612741 0.518671 
3310 2 -244.263 2068.34 -485.309 -0.469449 0.478276 -0.416373 0.614413 
3306 2 -281.88 2059.3 -488.218 0.290179 -0.676306 0.180871 -0.652451 
3311 2 -234.271 2068.29 -484.201 -0.722727 -0.0630562 -0.663408 -0.183247 
3304 2 -300.694 2056.5 -492.666 -0.805194 0.115726 -0.579457 -0.0500076 
3303 2 -309.52 2052.45 -494.64 -0.515461 0.594267 -0.194382 0.585972 
3302 2 -317.862 2048.28 -497.762 0.0930467 0.46437 0.344406 0.810609 
3301 2 -325.705 2044.08 -502.111 0.67299 0.122932 0.490776 0.539546 
3300 2 -332.623 2041.54 -508.582 0.865442 -0.270209 0.31197 -0.284028 
3253 2 -287.32 1975.43 -382.798 -0.680667 0.558265 0.392827 0.265931 
3252 2 -285.451 1965.71 -382.418 -0.272868 0.129127 0.678903 0.669298 
3251 2 -286.166 1955.87 -383.259 0.505594 -0.441264 0.5081 0.539903 
3250 2 -286.098 1946.56 -386.805 0.789028 -0.588909 -0.0864265 -0.152155 
3249 2 -286.943 1937.16 -389.585 0.330392 -0.283192 -0.454516 -0.777212 
3254 2 -289.86 1984.94 -383.537 -0.692622 0.609179 -0.201509 -0.329499 
3255 2 -290.899 1994.6 -382.234 -0.170171 0.418808 -0.597669 -0.662143 
3256 2 -294.333 2004.03 -382.565 0.557068 -0.0543749 -0.610166 -0.560728 
3257 2 -300.353 2011.61 -380.741 0.809429 -0.520865 -0.228038 0.146705 
3258 2 -305.687 2019.09 -377.358 0.278334 -0.39133 0.0463895 0.875922 
3263 3 -280.533 2051.65 -375.805 0.156314 0.221289 0.960447 0.0643305 
3280 2 -344.357 2044.91 -427.29 -0.43832 -0.334226 0.829555 -0.0894787 
3279 2 -336.848 2050.56 -424.428 -0.463333 -0.781749 0.199989 0.366327 
3278 2 -328.474 2055.11 -421.86 0.0864039 -0.613627 -0.506499 0.599546 
3277 2 -319.452 2059.12 -422.645 0.67844 -0.0055911 -0.681936 0.273224 
3259 2 -311.684 2023.28 -370.574 -0.327542 -0.161465 0.481507 0.796741 
3312 2 -224.554 2069.79 -482.363 -0.37519 -0.578131 -0.321955 -0.649109 
3276 2 -310.432 2063.37 -421.675 0.515554 0.663068 -0.33751 -0.425008 
3275 2 -302.125 2068.76 -421.013 0.0297156 0.636585 0.361714 -0.68047 
3313 2 -215.046 2069.5 -480.367 0.199204 -0.564604 0.19546 -0.776747 
3274 2 -294.333 2074.78 -419.899 -0.491767 0.0461033 0.735358 -0.463993 
3260 2 -316.852 2029.1 -364.342 -0.914208 -0.0460315 0.361673 0.176914 
3315 2 -195.911 2069.98 -476.132 0.682881 0.146107 0.593839 0.3996 
3314 2 -205.524 2068.21 -477.706 0.752374 -0.297329 0.550146 -0.207044 
3558 2 -604.82 2221.43 -416.866 0.209914 -0.0495281 -0.444822 0.869262 
3557 2 -602.155 2229.17 -422.286 0.790931 0.329418 -0.327352 0.398438 
3441 2 -432.387 2177.29 -507.49 -0.723944 0.157833 -0.383946 -0.55098 
3442 2 -428.025 2183.12 -500.768 -0.20136 -0.181229 -0.395056 -0.877805 
3443 2 -423.259 2189.1 -494.273 0.590714 -0.49097 -0.172549 -0.61663 
3445 2 -415.299 2205.56 -486.708 0.258827 -0.254211 0.667369 0.650387 
3462 2 -454.025 2189 -410.91 -0.96495 -0.0281184 -0.250045 -0.0745534 
3463 2 -449.234 2190.2 -402.285 -0.493641 -0.239616 -0.0903544 -0.831107 
3464 2 -444.274 2190.35 -393.881 0.277648 -0.103604 0.0526165 -0.953629 
3465 2 -441.839 2188.8 -384.47 0.935313 0.00421131 0.0255373 -0.352873 
3461 2 -458.217 2187.47 -419.677 -0.667611 0.231719 -0.142305 0.693074 
3444 2 -418.799 2196.73 -489.838 0.818942 -0.493281 0.286852 0.0610148 
3446 2 -414.25 2215.29 -486.681 -0.375785 0.289548 0.70329 0.529462 
3447 2 -414.953 2225.04 -488.193 -0.598171 0.780104 0.166138 -0.0776432 
3452 3 -452.131 2213.18 -471.662 -0.61922 -0.452395 0.0760578 -0.637275 
3455 2 -489.609 2191.98 -469.03 -0.923099 -0.112752 -0.360375 0.0728407 
3454 2 -496.421 2197.11 -474.011 -0.454796 0.114615 -0.47519 0.744458 
3453 2 -502.618 2203.6 -478.352 0.36916 0.487379 -0.159205 0.775136 
3460 2 -462.211 2188.15 -428.762 0.0399246 0.162969 -0.0259692 0.985481 
3459 2 -467.337 2188.67 -437.193 0.791977 0.152432 0.194014 0.558475 
3456 2 -483.56 2189.02 -461.801 -0.593692 -0.263023 -0.235118 -0.723234 
3458 2 -472 2188.26 -445.863 0.912312 -0.106012 0.208574 -0.336072 
3457 2 -477.407 2188.87 -454.1 0.199011 -0.28537 0.136401 -0.927552 
3466 2 -441.335 2188.42 -374.616 0.838988 0.0866625 -0.136426 0.519592 
3467 2 -442.169 2185.83 -365.2 0.00478283 0.00975396 -0.25658 0.966462 
3273 2 -287.441 2081.34 -416.824 -0.612373 -0.523008 0.592119 -0.0292764 
3272 2 -279.835 2084.31 -411.275 -0.118488 -0.867095 -0.0171812 0.48354 
3271 2 -272.992 2085.98 -404.234 0.174796 -0.594335 -0.724114 0.303104 
3270 2 -265.016 2085.68 -398.308 0.40542 0.0709446 -0.904411 -0.112435 
3269 2 -258.072 2085.93 -391.176 0.240019 0.809681 -0.472587 -0.251931 
3268 2 -253.091 2086.42 -382.471 -0.0149174 0.926958 0.307855 -0.213896 
3267 2 -249.399 2081.94 -374.571 -0.349594 0.444057 0.809017 0.161521 
3266 2 -247.333 2079.16 -365.294 -0.0760622 -0.478772 0.861726 0.149733 
3581 2 -617.635 2380.88 -512.917 0.293112 -0.401935 0.866996 0.029185 
3580 2 -619.585 2375.27 -505.072 0.307441 -0.922429 0.216657 -0.0875433 
3556 2 -599.765 2236.99 -427.817 0.801237 0.521076 0.0182046 -0.293545 
3555 2 -601.489 2244.95 -433.537 0.500794 0.129088 0.42366 -0.743675 
3554 2 -598.76 2253.99 -436.348 -0.308428 -0.122067 0.59613 -0.731164 
3577 2 -629.533 2364.65 -479.774 -0.201789 0.727356 -0.631102 0.178727 
3559 1 -630.636 2240.94 -382.423 -0.265509 0.201473 -0.859102 -0.388404 
3553 2 -593.564 2261.97 -433.821 -0.613957 -0.536048 0.562077 -0.140638 
3552 2 -587.383 2268.74 -430.33 -0.437204 -0.818707 -0.00150394 0.372249 
3551 2 -582.647 2275.47 -424.777 0.0105237 -0.503398 -0.750838 0.42746 
3560 3 -619.604 2268.7 -400.754 -0.266851 0.198837 -0.854571 -0.3987 
3550 2 -580.05 2283.39 -419.543 0.311347 0.342755 -0.812165 0.354922 
3549 2 -576.56 2289.81 -412.777 0.356382 0.883277 -0.298001 -0.0633166 
3548 2 -572.015 2294.08 -405.098 0.0367216 0.801591 0.504696 -0.318409 
3566 2 -650.716 2311.69 -392.205 0.303803 -0.946894 0.103715 0.0184124 
3567 2 -651.573 2317.77 -400.195 0.217068 -0.542759 0.756363 0.293614 
3568 2 -649.869 2324.26 -407.608 0.139417 0.228351 0.903037 0.33607 
3569 2 -646.609 2329.62 -415.369 -0.32029 0.811518 0.417818 0.253537 
3575 2 -639.007 2356.48 -464.886 0.141979 0.33528 0.868765 0.335675 
3576 2 -634.772 2361.94 -471.9 -0.0633719 0.890237 0.345625 0.289836 
3544 2 -543.178 2312.58 -389.581 0.196383 -0.457031 -0.610315 0.6165 
3545 2 -551.074 2306.55 -389.786 -0.247633 -0.796923 0.045532 0.549107 
3547 2 -566.327 2299.57 -399.147 -0.294183 0.112647 0.904911 -0.286189 
3546 2 -560.027 2303.82 -392.96 -0.480733 -0.626865 0.608924 0.0717484 
3570 2 -645.028 2336.27 -422.567 -0.144546 0.928155 -0.335001 -0.0735431 
3571 2 -645.955 2339.71 -431.723 -0.0839134 0.178658 -0.963004 -0.183478 
3574 2 -644.232 2354.13 -456.786 0.290434 -0.487253 0.823435 0.0137008 
3573 2 -644.688 2347.11 -450.007 0.371155 -0.925095 0.0498554 0.0629038 
3572 2 -645.157 2343.13 -440.971 0.129237 -0.66551 -0.722333 -0.136487 
3565 2 -650.899 2304.95 -385.031 0.240655 -0.63375 -0.654464 -0.334849 
3640 1 -576.152 2352 -407.367 -0.443432 0.420832 0.540185 0.578333 
3578 2 -624.139 2366.16 -488.068 -0.178683 0.0719382 -0.959565 -0.205261 
3564 2 -651.119 2296.74 -379.527 -0.0382958 0.0631545 -0.896159 -0.437542 
3639 2 -619.812 2366.04 -396.587 0.65634 0.54629 0.349417 -0.385607 
3563 2 -649.603 2288.65 -374.053 -0.236788 0.664485 -0.612229 -0.357164 
3543 2 -534.715 2317.8 -389.679 0.645119 0.109484 -0.693348 0.301832 
3579 2 -621.75 2370.01 -496.86 0.138518 -0.766734 -0.592377 -0.204991 
3642 2 -530.545 2359.97 -417.154 -0.888537 0.369657 -0.239804 -0.127864 
3562 2 -647.269 2282.41 -366.605 -0.359479 0.908857 0.205237 -0.0512991 