ITEM: TIMESTEP
100000000
ITEM: NUMBER OF ATOMS
4067
ITEM: BOX BOUNDS pp pp pp
-4.6310929470000001e+03 4.6704658980000004e+03
-4.6310929470000001e+03 4.6704658980000004e+03
-4.6310929470000001e+03 4.6704658980000004e+03
ITEM: ATOMS id type x y z c_q[1] c_q[2] c_q[3] c_q[4] 
4067 2 -947.368 2811.14 -764.914 -0.105749 0.852996 0.374211 -0.348111 
4059 2 -892.22 2808.94 -711.273 -0.422327 0.314683 0.845733 -0.0857323 
4060 2 -899.952 2810.15 -717.208 -0.272359 0.838568 0.351048 -0.31526 
4061 2 -907.628 2812.99 -722.881 0.31081 0.598028 -0.632733 -0.381325 
4058 2 -885.306 2808.76 -704.289 -0.26168 -0.633905 0.646262 0.334714 
4057 2 -877.334 2808.45 -698.539 0.0613332 -0.877617 -0.0824284 0.468222 
4056 2 -872.38 2807.04 -689.982 0.247193 -0.597583 -0.759372 0.0717252 
4055 2 -868.82 2809.49 -681.121 0.201961 0.222072 -0.949097 0.0954536 
4062 2 -916.059 2814.14 -728.107 0.386171 -0.143239 -0.906614 0.0916839 
4063 2 -922.811 2813.66 -735.184 0.219657 -0.72607 -0.540877 0.363353 
4064 2 -930.711 2813.01 -740.907 0.0249551 -0.925529 0.238634 0.292964 
4065 2 -936.534 2813.78 -748.967 -0.191427 -0.576429 0.789287 0.0900696 
4066 2 -940.908 2811.87 -757.579 -0.310872 0.242396 0.910773 -0.122864 
4054 2 -863.876 2813.75 -673.781 0.32281 0.813157 -0.476483 -0.0867954 
3585 2 -726.698 2458.34 -518.539 -0.4827 -0.806983 0.271639 0.204919 
3584 2 -720.262 2464.49 -514.499 -0.146123 -0.72288 -0.439233 0.512998 
4053 2 -860.859 2816.48 -664.719 0.0380697 0.893875 0.426558 -0.132616 
4052 2 -859.445 2818.67 -655.157 -0.104422 0.190875 0.970279 -0.105928 
4051 2 -856.657 2820.99 -646.029 -0.149132 -0.501344 0.850259 -0.0589285 
4050 2 -851.49 2819.48 -637.834 0.0116782 -0.950636 0.162866 0.263875 
4049 2 -850.432 2820.33 -628.038 0.0473769 -0.673371 -0.732392 0.0890478 
4048 2 -849.047 2817.61 -618.61 0.072684 0.131504 -0.977072 -0.150842 
4047 2 -848.262 2817.99 -608.709 0.00523105 0.846486 -0.531271 -0.0344242 
4046 3 -858.48 2867.05 -622.265 0.0447254 -0.86509 -0.392315 -0.309366 
4045 1 -875.128 2854.03 -594.354 0.0151797 -0.855162 -0.397701 -0.332117 
4044 2 -894.024 2896.97 -598.982 0.569221 0.396319 -0.0791701 -0.715996 
4043 2 -887.527 2901.11 -605.399 -0.111884 0.336278 0.221196 -0.908555 
4042 2 -879.543 2905.92 -608.428 -0.635102 0.073746 0.559655 -0.527251 
4041 2 -871.732 2909.59 -613.232 -0.840732 -0.283413 0.428763 0.170319 
4040 2 -863.927 2912.68 -618.487 -0.434603 -0.475584 0.0204309 0.764541 
4039 2 -855.854 2915.56 -623.565 0.405537 -0.348242 -0.353204 0.767798 
4038 2 -847.099 2916.38 -627.964 0.843844 0.0285161 -0.535789 0.00662448 
4037 2 -838.067 2918.13 -631.72 0.499766 0.507315 -0.315943 -0.626934 
4007 2 -831.397 2957.28 -542.373 -0.626166 0.691905 0.253806 0.254493 
4008 2 -830.905 2966.87 -544.246 -0.572861 0.630203 -0.485674 -0.196966 
4009 2 -827.957 2975.9 -546.686 -0.239793 -0.148327 -0.854509 -0.436249 
4006 2 -832.106 2947.46 -542.119 -0.159339 0.216024 0.685336 0.676949 
4005 2 -831.968 2937.82 -539.856 0.365578 -0.395516 0.687533 0.487051 
4036 2 -829.248 2921.14 -635.172 -0.118894 0.542989 0.298774 -0.775733 
4004 2 -828.521 2928.71 -539.928 0.69008 -0.692846 -0.0917655 0.187973 
4003 2 -824.737 2919.76 -538.953 0.574126 -0.434363 -0.609199 -0.332542 
4035 2 -819.481 2922.52 -635.925 -0.711447 0.135225 0.628601 -0.283581 
4010 2 -822.786 2983.27 -550.75 0.250968 -0.605239 -0.509312 -0.557945 
4011 2 -818.413 2991.57 -553.817 0.392099 -0.916353 0.0512206 -0.0627138 
4002 2 -818.788 2912.06 -540.39 0.097146 0.370857 -0.582284 -0.716919 
4001 2 -810.915 2906.09 -540.869 -0.344988 0.680937 -0.11761 -0.635197 
4000 2 -802.811 2900.56 -541.915 -0.684365 0.571085 0.325574 -0.315451 
3999 2 -794.502 2894.89 -541.926 -0.662007 0.203466 0.693857 0.197257 
3993 2 -741 2872.63 -546.735 -0.594514 0.583244 0.201058 -0.515708 
3998 2 -785.974 2889.94 -541.51 -0.32276 -0.404024 0.598484 0.611888 
3997 2 -777.001 2886.52 -544.115 0.286518 -0.613546 -0.0257937 0.735394 
4033 2 -802.889 2931.68 -631.652 -0.136147 -0.686715 -0.32058 0.638056 
4034 2 -810.295 2925.55 -634.106 -0.581216 -0.576407 0.51327 0.25787 
4032 2 -796.145 2938.52 -628.799 0.436959 -0.0345193 -0.769144 0.465073 
4029 2 -775.621 2956.72 -618.885 -0.0591042 0.644196 0.549939 -0.528286 
4028 2 -767.767 2962.4 -616.554 -0.575354 -0.20774 0.751365 -0.247513 
4027 2 -760.678 2967.26 -611.682 -0.439344 -0.776312 0.366323 0.264808 
4031 2 -788.67 2943.5 -624.722 0.53562 0.4986 -0.678263 -0.0668414 
4030 2 -782.751 2951.26 -622.733 0.435165 0.779165 0.0494238 -0.448431 
3995 2 -758.066 2882.28 -545.125 0.546712 0.202576 -0.694701 -0.42126 
3996 2 -767.548 2885.02 -546.149 0.710102 -0.356262 -0.538391 0.281013 
4026 2 -753.304 2971.77 -606.967 -0.0695727 -0.781673 -0.358844 0.505349 
3994 2 -749.566 2877.05 -544.447 -0.0364797 0.65343 -0.346549 -0.672014 
4025 2 -746.162 2974.68 -600.731 0.358454 -0.253284 -0.857718 0.267727 
4024 2 -739.659 2978.78 -594.639 0.414052 0.52162 -0.745465 -0.0274761 
4023 2 -734.652 2981.67 -586.808 0.205349 0.947632 -0.0737094 -0.233222 
4022 2 -729.78 2986.95 -579.942 0.110395 0.6885 0.592154 -0.4039 
3968 2 -827.286 3043.77 -524.779 -0.412671 -0.506371 -0.47216 0.591909 
3969 2 -829.581 3034.15 -525.306 -0.737155 -0.653856 0.162888 0.0504219 
3970 2 -832.628 3024.77 -524.728 -0.597276 -0.345489 0.364408 -0.625384 
3967 2 -823.331 3052.79 -524.74 0.272837 0.0134625 -0.731422 0.624821 
3966 2 -821.155 3062.43 -525.015 0.686818 0.599047 -0.361838 0.19621 
3971 2 -832.378 3016.25 -519.71 0.238038 0.140655 0.525479 -0.804628 
3972 2 -831.384 3007.12 -515.72 0.744255 0.334102 0.182881 -0.548648 
4021 2 -724.894 2994.31 -575.812 -0.232634 0.0561976 0.85842 -0.453695 
4012 2 -816.522 2998.39 -560.578 0.344353 -0.427836 0.754894 0.358487 
4013 2 -815.218 3006.58 -566.038 -0.0254824 0.315036 0.70985 0.629457 
4014 2 -811.951 3015.74 -568.014 -0.598086 0.738363 0.208482 0.231621 
4015 2 -810.431 3025.18 -570.494 -0.652946 0.537659 -0.468341 -0.255421 
4016 2 -806.57 3034.37 -571.106 -0.300817 0.0830436 -0.630468 -0.71072 
4017 2 -803.574 3043.62 -569.807 0.325554 -0.428461 -0.475386 -0.69602 
4020 2 -721.346 3002.8 -572.377 -0.523364 -0.611566 0.561903 -0.190633 
4019 3 -772.985 3002.73 -578.977 -0.249434 -0.589585 -0.588163 0.494203 
4018 1 -758.056 3031.8 -565.985 -0.245293 -0.607283 -0.592442 0.469096 
2106 2 -80.1743 77.92 -406.986 -0.798741 0.538447 0.0330169 0.266455 
2105 2 -80.0536 71.7833 -414.82 -0.331339 0.0690509 0.278157 0.89893 
2104 2 -76.7122 65.6216 -421.946 0.368026 -0.330803 0.23758 0.835872 
2103 2 -69.2566 64.1514 -428.34 0.811698 -0.264171 -0.300586 0.42545 
2107 2 -77.4799 86.3069 -402.697 -0.803097 0.360688 -0.275902 -0.385769 
2108 2 -74.7328 94.1492 -397.45 -0.145184 -0.00948964 -0.395029 -0.907074 
2069 2 215.808 51.168 -371.021 -0.613442 0.632804 -0.0888837 0.464055 
2070 2 222.985 57.7189 -369.178 -0.689192 0.312282 -0.59029 -0.281163 
2071 2 229.513 64.9709 -367.414 -0.100344 -0.408308 -0.381084 -0.823402 
2068 2 207.973 45.4834 -372.078 0.00270821 0.535875 0.454055 0.711804 
2067 2 199.273 41.2977 -369.878 0.540137 0.0268447 0.767106 0.345078 
2072 2 236.752 70.7616 -363.976 0.379197 -0.694369 0.159518 -0.590437 
2066 2 190.68 37.8782 -366.236 0.503085 -0.648056 0.516711 -0.244826 
2065 2 181.169 35.2748 -364.913 0.0165413 -0.747117 -0.0830398 -0.659277 
2073 2 246.045 73.8845 -364.178 0.703534 -0.368178 0.600713 -0.0928884 
2064 2 172.321 31.4446 -362.699 -0.373741 -0.366649 -0.689017 -0.50114 
2063 2 163.686 26.6147 -362.255 -0.717566 0.318606 -0.619263 0.0100873 
2109 2 -73.3622 101.618 -391.159 0.611079 -0.290854 -0.284378 -0.679055 
2110 2 -73.0738 108.883 -384.489 0.874349 -0.378042 0.0929413 0.289757 
2111 2 -73.7425 116.251 -377.807 0.555145 -0.125723 0.415933 0.70923 
2112 2 -71.5216 124.133 -372.271 -0.299787 0.269305 0.312983 0.860026 
2113 2 -69.8355 131.035 -365.536 -0.858174 0.361153 0.000459585 0.364836 
2101 1 -40.3476 99.9009 -438.976 -0.484428 0.105174 -0.0499049 -0.867051 
2102 3 -43.0477 101.948 -404.082 -0.521814 0.0903453 -0.0440922 -0.847115 
2095 2 23.3013 136.283 -395.836 -0.343609 -0.189875 0.909977 0.133501 
2100 2 -13.0591 136.817 -428.055 0.245078 -0.772345 -0.506965 0.293949 
2099 2 -5.69592 135.488 -421.658 0.391251 -0.0664372 -0.915968 -0.0592602 
2098 2 1.47692 136.99 -415.194 0.345574 0.670621 -0.599648 -0.266959 
2097 2 8.49202 139.045 -408.56 0.0354596 0.887593 0.16076 -0.430207 
2096 2 16.4845 137.343 -402.949 -0.422052 0.511585 0.708716 -0.240571 
2094 2 28.4478 135.463 -387.336 -0.143208 -0.78105 0.548603 0.2617 
2093 2 33.6349 135.542 -378.984 0.145446 -0.925856 -0.243825 0.249371 
2092 2 40.8606 134.03 -372.224 0.394306 -0.358089 -0.839549 0.107019 
2091 2 47.7783 130.929 -366.027 0.253752 0.455321 -0.782243 -0.341158 
2090 2 56.5822 127.989 -362.561 -0.0736427 0.796644 -0.137035 -0.584087 
2317 1 -147.17 526.692 -389.79 -0.803485 -0.13572 -0.155535 -0.558392 
2315 2 -98.3767 520.763 -387.132 -0.0804539 0.988647 0.0188021 -0.125504 
2316 2 -100.659 522.508 -396.526 0.0685114 0.697523 -0.700519 -0.134319 
2314 2 -95.3617 518.209 -378.011 -0.194905 0.524426 0.827939 0.0388091 
2313 2 -91.9032 515.169 -369.179 -0.0594694 -0.402626 0.893271 0.190848 
2319 2 -186.129 525.582 -363.09 -0.453738 0.273347 0.0188589 0.847966 
2746 2 -335.118 1108.97 -372.58 -0.241404 0.400125 0.823287 -0.322213 
2747 2 -340.92 1105.69 -379.988 0.170923 0.912535 0.190734 -0.318881 
2748 2 -346.369 1102.21 -387.554 0.372596 0.723347 -0.578811 -0.0540296 
2749 1 -313.275 1078.53 -411.56 -0.32256 0.0613191 -0.11073 0.938048 
2751 2 -272.933 1054.25 -414.632 -0.668188 0.177298 0.0940171 0.716416 
2752 2 -271.359 1057.43 -405.43 -0.936822 0.343063 -0.0297179 -0.0615527 
2750 3 -305.739 1071.39 -378.123 -0.283666 0.0364166 -0.105184 0.952441 
2753 2 -269.739 1063.32 -397.691 -0.518737 0.0944561 -0.322822 -0.785987 
2754 2 -267.397 1068.89 -389.786 0.152876 -0.203668 -0.123976 -0.959051 
2755 2 -264.032 1072.07 -380.925 0.821392 -0.0623736 -0.124552 -0.553092 
2756 2 -265.753 1074.21 -371.425 0.933279 -0.23238 0.0193315 0.273158 
2745 2 -329.85 1107.9 -364.122 -0.235638 -0.375723 0.88349 0.150838 
2757 2 -266.829 1077.95 -362.388 0.314723 -0.289782 0.153922 0.890665 
3180 2 -294.508 1632.96 -362.918 0.315178 -0.555551 -0.661098 0.393669 
3158 2 -96.1231 1647.45 -371.045 0.79948 0.279111 -0.354712 -0.396369 
3156 2 -91.9893 1656.84 -387.603 -0.680712 -0.105065 0.197201 -0.697642 
3157 2 -92.3899 1652.67 -378.666 0.206234 0.197052 0.249468 -0.925421 
3154 1 -118.094 1692.38 -370.827 0.113234 -0.0601215 0.343673 -0.930297 
3159 2 -103.338 1644.67 -364.795 0.853494 -0.277272 -0.359607 0.255637 
3295 2 -533.09 1905.8 -413.595 0.557525 0.244744 -0.279675 -0.742326 
3296 2 -539.606 1906.88 -406.292 0.928398 -0.0595634 -0.279821 0.237127 
3297 2 -544.879 1906.77 -398.022 0.410668 -0.280608 -0.23587 0.834851 
3294 2 -526.359 1900.93 -418.862 -0.199687 0.516126 -0.17536 -0.814241 
3298 2 -550.727 1904.53 -390.422 -0.432709 -0.427121 0.140899 0.781331 
3299 2 -558.481 1902.74 -384.576 -0.773513 -0.216756 0.369364 0.467188 
3300 2 -565.849 1902.32 -377.981 -0.824852 -0.0282966 0.457849 -0.330445 
3301 2 -573.206 1898.85 -372.219 -0.222566 0.517241 0.35314 -0.74714 
3302 2 -581.859 1894.89 -369.549 0.26754 0.450668 -0.370946 -0.766629 
3303 2 -590.987 1897.25 -366.106 0.749224 0.153085 -0.639963 -0.0753437 
3304 2 -600.824 1897.07 -364.528 0.592306 -0.495562 -0.372567 0.514574 
3305 2 -610.381 1899.07 -363.344 -0.189666 -0.70448 0.0178442 0.683679 
3307 2 -629.642 1895.04 -363.862 -0.736207 0.0697976 0.651398 -0.16973 
3293 2 -520.576 1897.82 -426.257 -0.876775 0.267556 0.272713 -0.292074 
3290 3 -516.447 1871.46 -393.796 -0.756404 0.243077 0.547597 -0.262496 
3292 2 -514.698 1894.29 -433.479 -0.752753 -0.0107735 0.375609 0.540522 
3306 2 -619.793 1896.03 -363.442 -0.575826 -0.471061 0.55746 0.368462 
3308 2 -639.37 1893.34 -362.989 -0.378606 0.531732 0.37762 -0.656751 
3309 2 -649.159 1892.09 -361.982 0.181932 0.602145 -0.0378719 -0.776459 
3291 2 -507.984 1892.7 -440.516 -0.127483 -0.362939 0.116275 0.915698 
3289 1 -484.829 1867.53 -408.085 -0.763994 0.260702 0.544777 -0.227081 
3288 2 -480.8 1845.47 -366.578 0.429351 0.0760824 0.805604 -0.401087 
3287 2 -487.445 1852.35 -363.872 -0.098468 -0.642278 0.478614 -0.590518 
3342 2 -567.541 1951.04 -393.606 0.559906 0.323897 0.695332 -0.313224 
3341 2 -573.146 1958.86 -391.235 0.128533 -0.350807 0.688658 -0.621421 
3345 2 -612.914 1968.52 -471.545 -0.470832 0.399361 -0.447828 -0.646745 
3346 2 -613.964 1977.64 -467.685 0.340508 0.0532739 -0.52994 -0.774841 
3343 1 -585.639 1951.15 -437.208 0.865746 -0.44481 -0.0862052 0.212596 
3347 2 -618.445 1985.28 -463.236 0.742187 -0.448638 -0.251782 -0.429522 
3348 2 -620.067 1993.8 -458.592 0.698935 -0.518509 0.178329 0.45917 
3340 2 -578.036 1966.45 -387.471 -0.416234 -0.754067 0.274533 -0.427509 
3339 2 -582.714 1974.02 -382.95 -0.514815 -0.784814 -0.325157 -0.115348 
3338 2 -589.283 1981.17 -380.982 -0.587578 -0.228152 -0.712456 0.308391 
3349 2 -621.869 2002.33 -453.977 0.0156682 0.0584073 0.435804 0.898008 
3350 2 -620.539 2009.25 -447.156 -0.693252 0.264133 0.280003 0.60929 
3351 2 -620.845 2015.77 -439.638 -0.914937 0.399783 -0.0383781 -0.0398878 
3352 2 -620.463 2023.06 -432.827 -0.570593 0.316593 -0.214395 -0.726792 
3353 2 -621.944 2029.68 -425.654 0.268013 -0.0840002 -0.283339 -0.916969 
3354 2 -622.226 2034.58 -417.165 0.815857 -0.435194 -0.135206 -0.355953 
3355 2 -621.109 2042.14 -410.58 0.749572 -0.42917 0.187607 0.467717 
3344 3 -597.925 1981.03 -423.408 0.817809 -0.534232 -0.0443859 0.20932 
3356 2 -621.243 2049.72 -404.44 0.0662942 0.0737444 0.377779 0.92057 
3357 2 -619.139 2056.61 -397.567 -0.786627 0.292555 0.223063 0.495856 
3337 2 -598.068 1984.96 -378.362 -0.0999008 0.602147 -0.514473 0.602293 
3335 2 -617.553 1986.53 -375.689 0.659221 0.08813 0.746711 0.00913127 
3336 2 -607.823 1985.45 -377.101 0.304103 0.629058 0.385416 0.602712 
3334 2 -627.162 1988.05 -374.084 0.330348 -0.566119 0.487656 -0.57669 
3333 2 -636.977 1987.39 -372.816 -0.173332 -0.702109 -0.212599 -0.657116 
3358 2 -619.614 2063.28 -390.29 -0.857285 0.349343 -0.222521 -0.305786 
3332 2 -645.851 1990.36 -369.849 -0.592537 -0.424602 -0.675186 -0.112862 
3331 2 -654.931 1991.57 -365.93 -0.501795 0.326687 -0.748799 0.284215 
3359 2 -618.945 2071.01 -384.082 -0.317942 0.0963124 -0.557446 -0.760849 
3330 2 -663.678 1989.6 -361.775 -0.226788 0.815286 -0.200355 0.493695 
3360 2 -617.31 2080.62 -381.606 0.452924 -0.39294 -0.354439 -0.717517 
3361 2 -615.373 2089.49 -377.519 0.873907 -0.484421 -0.0214781 0.0340904 
3362 2 -615.835 2097.23 -371.344 0.548395 -0.311221 0.308886 0.712036 
3363 2 -616.537 2104.65 -364.999 -0.212906 0.0159608 0.293065 0.931949 
3498 2 -520.304 2227.91 -383.144 -0.250627 0.821897 -0.508278 -0.0576604 
3497 2 -513.526 2222.47 -378.397 -0.503193 0.76286 0.367089 -0.173454 
3496 2 -505.089 2219.92 -373.717 -0.547234 0.107944 0.829966 0.00623919 
3495 2 -497.814 2216.29 -368.11 -0.225667 -0.506483 0.730902 0.397909 
3494 2 -489.535 2215.03 -362.808 -0.0850741 -0.878194 0.10914 0.45785 
3499 2 -519.078 2233.96 -390.763 -0.130588 0.0719694 -0.962775 -0.225459 
3500 2 -515.769 2238.72 -398.833 -0.0325887 -0.692876 -0.569079 -0.441599 
3501 2 -509.877 2242.78 -405.629 0.0863226 -0.9073 0.186523 -0.36683 
3502 2 -502.909 2243.39 -412.697 0.38496 -0.312858 0.864674 -0.0791444 
3503 2 -495.519 2243.87 -419.254 0.211048 0.445086 0.851163 0.181327 
3504 2 -490.473 2244.98 -427.677 -0.0477675 0.95828 0.0643501 0.274368 
3506 3 -480.99 2263.68 -380.305 0.793958 0.318207 -0.128024 -0.501982 
3505 1 -458.927 2272.7 -405.972 0.742298 0.331714 -0.196169 -0.548158 
3507 2 -439.308 2291.77 -367.448 -0.729732 -0.0895099 0.473897 0.484665 
3508 2 -447.217 2295.09 -362.189 -0.738808 0.284028 0.496964 -0.355693 
3448 2 -308.522 2246.45 -408.308 -0.0669631 0.979513 0.0187252 0.188995 
3447 2 -311.431 2247.36 -398.949 0.161807 0.543459 0.823202 -0.0284487 
3449 2 -304.284 2248.8 -416.852 -0.140099 0.62052 -0.768114 0.0729956 
3450 2 -300.942 2249.55 -426.191 -0.1499 -0.357572 -0.919738 -0.0612723 
3446 2 -315.35 2245.19 -390.081 0.229404 -0.261597 0.935764 0.0573218 
3451 1 -277.09 2287.74 -412.246 -0.85354 -0.289074 0.137113 0.411225 
3445 2 -321.901 2244.94 -382.756 0.196712 -0.825832 0.392172 -0.354269 
3444 2 -326.662 2249.57 -375.274 -0.331528 -0.840156 -0.405156 -0.14169 
3452 3 -294.684 2278.66 -383.39 -0.851471 -0.232117 0.152895 0.444683 
3443 2 -330.363 2255.62 -368.473 -0.290983 -0.15099 -0.895274 0.301688 
3442 2 -334.905 2263.57 -364.866 0.164704 0.601954 -0.553704 0.551303 
3453 2 -264.405 2320.56 -380.852 0.351627 -0.182835 -0.211946 0.893313 
3441 2 -336.442 2273.4 -365.941 0.677772 0.702294 -0.0408849 0.213861 
3440 2 -336.103 2283.19 -366.843 0.525044 0.577838 0.388539 -0.489357 
3454 2 -269.015 2317.78 -372.476 -0.58064 -0.1873 0.0495814 0.79077 
3455 2 -272.721 2315.79 -363.708 -0.923507 -0.372479 0.0158749 -0.0902286 
3439 2 -332.829 2292.16 -364.353 0.00405013 0.20107 0.79979 -0.565589 
3438 2 -327.171 2300.2 -363 -0.60092 -0.271172 0.689896 -0.299005 
3583 2 -711.612 2468.3 -511.655 0.44775 -0.141604 -0.788443 0.397274 
3582 2 -704.01 2472.29 -506.611 0.469005 0.632456 -0.589479 -0.180409 
3581 2 -696.352 2473.37 -500.539 0.0533993 0.892808 0.116328 -0.431867 
3586 1 -751.916 2446.74 -480.427 -0.499091 -0.194561 -0.566843 -0.625893 
3588 2 -760.912 2446.75 -434.132 0.654861 -0.564097 0.0686478 -0.498236 
3589 2 -754.575 2453.9 -431.477 0.800916 -0.285179 0.519739 0.0841345 
3590 2 -746.901 2459.51 -428.448 0.286485 0.209664 0.501327 0.789075 
3591 2 -740.595 2465.48 -423.841 -0.376909 0.527043 0.141771 0.748376 
3592 2 -733.17 2470.68 -419.885 -0.778334 0.535934 -0.32316 0.050388 
3587 3 -725.217 2464.92 -467.039 -0.510686 -0.170119 -0.528948 -0.656105 
3593 2 -728.009 2478.9 -417.918 -0.54374 -0.065376 -0.615057 -0.567254 
3594 2 -721.311 2485.39 -415.172 0.200393 -0.495519 -0.526093 -0.66146 
3595 2 -717.219 2494.42 -415.525 0.361831 -0.882018 0.221098 -0.205519 
3596 2 -712.167 2500.74 -421.264 0.433878 -0.36253 0.794247 0.222469 
3597 2 -707.088 2507.3 -426.489 0.0201383 0.332952 0.804663 0.491177 
3598 2 -703.869 2515.48 -430.962 -0.305796 0.791802 0.367545 0.380065 
3599 2 -699.928 2522.84 -436.273 -0.628901 0.685686 -0.321065 0.176738 
3580 2 -690.045 2475.31 -493.221 -0.214028 0.465193 0.816022 -0.268134 
3579 2 -685.298 2474.82 -484.478 -0.208872 -0.313457 0.921855 0.0911107 
3578 2 -680.179 2473.21 -476.176 -0.0374568 -0.897915 0.295446 0.324125 
3577 2 -675.564 2471.57 -467.499 0.169567 -0.852494 -0.444097 0.217436 
3576 2 -668.037 2469.35 -461.524 0.464265 -0.259797 -0.846608 -0.0147639 
3600 2 -692.752 2529.55 -437.536 -0.607347 0.0782626 -0.708561 -0.350637 
3601 2 -684.896 2535.4 -438.662 -0.117746 -0.446905 -0.495371 -0.73554 
3575 2 -661.798 2469.58 -453.722 0.255767 0.611084 -0.72566 -0.185951 
3574 2 -654.563 2468.45 -446.895 -0.00102193 0.896121 -0.159077 -0.41432 
3573 2 -646.195 2468.37 -441.655 -0.358614 0.67398 0.546884 -0.343607 
3572 2 -639.283 2470.16 -434.806 -0.345794 0.0174791 0.935102 -0.0755348 
3571 2 -630.952 2469.18 -429.75 -0.282995 -0.669296 0.56824 0.386083 
3570 2 -624.377 2471.48 -422.619 -0.0157269 -0.890873 -0.261974 0.370767 
3569 2 -615.902 2472.05 -417.464 0.453129 -0.183467 -0.862416 0.131348 
3568 2 -606.305 2473.47 -415.649 0.523585 0.541106 -0.53917 -0.377304 
3567 2 -596.577 2475.37 -415.838 0.0366857 0.688623 0.123865 -0.713519 
3566 2 -586.916 2477.3 -414.864 -0.528346 0.380648 0.636017 -0.414053 
3565 2 -577.131 2478.14 -416.325 -0.693562 -0.197953 0.677776 0.142853 
3564 2 -569.398 2480.99 -421.763 -0.418045 -0.464457 0.110527 0.772853 
3560 3 -523.554 2508.91 -399.204 -0.394559 -0.0517909 0.266477 -0.877856 
3563 2 -561.711 2483.91 -427.436 0.28286 -0.340688 -0.300923 0.84461 
3562 2 -552.656 2484.41 -431.104 0.810277 -0.0597623 -0.536086 0.229111 
3561 2 -546.366 2484.09 -438.681 0.774434 0.16295 -0.265173 -0.550802 
3559 1 -518.095 2521.14 -431.554 -0.425953 -0.0702021 0.155392 -0.888532 
3613 1 -600.181 2529.88 -383.563 -0.370268 0.521123 0.733263 0.23164 
3612 2 -646.291 2532.52 -374.088 0.468115 0.356649 -0.353472 0.727136 
3553 2 -504.352 2529.7 -365.786 -0.262837 0.470081 0.782712 0.311933 
3602 2 -677.783 2542.29 -438.183 0.441796 -0.605292 -0.138833 -0.647429 
3657 2 -738.209 2673.59 -399.193 -0.813579 -0.430651 0.253773 0.297033 
3656 2 -729.743 2676.26 -403.586 -0.301879 -0.564948 0.0639055 0.765257 
3655 2 -720.556 2676.79 -407.257 0.480857 -0.377361 -0.361703 0.70395 
3654 2 -712.185 2674.81 -412.009 0.864011 -0.172667 -0.471875 0.0316986 
3653 2 -705.361 2671.19 -418.36 0.612249 0.140974 -0.397343 -0.668877 
3652 2 -696.991 2667.75 -422.361 -0.052514 0.512614 -0.193248 -0.83494 
3650 2 -687.586 2660.45 -437.762 -0.864856 0.0944689 0.246906 0.426775 
3651 2 -691.202 2663.16 -429.028 -0.779787 0.393089 0.19298 -0.447407 
3658 2 -744.326 2667.7 -394.231 -0.751071 -0.0605488 0.503481 -0.422767 
3659 2 -751.598 2663.83 -388.723 -0.0688425 0.238794 0.358241 -0.899945 
3660 2 -756.526 2658.07 -382.31 0.621014 0.332254 -0.0631679 -0.707078 
3663 2 -775.842 2649.58 -362.13 0.0735191 -0.648293 0.000625032 0.757833 
3661 2 -762.591 2655.07 -375.029 0.916254 0.242374 -0.309257 -0.0780583 
3662 2 -768.2 2650.51 -368.306 0.666331 -0.261979 -0.3594 0.598499 
3646 2 -678.06 2676.02 -471.379 0.818227 0.242401 0.21535 -0.474733 
3649 2 -683.281 2662.31 -446.625 -0.336208 -0.178733 -0.0307904 0.924159 
3648 2 -680.548 2665.86 -455.383 0.465525 -0.0297736 -0.246168 0.849589 
3647 2 -677.455 2669.49 -464.052 0.957559 0.196911 -0.181604 0.106427 
3603 2 -671.236 2549.56 -436.852 0.862001 -0.482823 0.145145 -0.0526179 
3645 2 -675.041 2684.39 -475.73 -0.0514845 0.165396 0.493057 -0.852577 
3604 2 -667.567 2556.92 -431.368 0.712748 -0.0440628 0.450568 0.535758 
3615 2 -561.05 2541.68 -407.061 -0.375 0.274423 0.883346 0.0613722 
3611 2 -647.866 2540.83 -379.341 0.840232 0.497504 -0.027972 0.213817 
3610 2 -648.959 2549.77 -383.434 0.697526 0.409746 0.374309 -0.453274 
3637 2 -598.138 2664.03 -500.677 -0.130566 0.310256 0.624863 0.704443 
3636 2 -600.724 2654.52 -499.533 0.399671 -0.267402 0.702912 0.524093 
3638 2 -594.158 2673.17 -500.691 -0.586475 0.633887 -0.0380227 0.50278 
3605 2 -661.649 2562.61 -425.729 0.0673565 0.298639 0.153347 0.939555 
3606 2 -656.188 2564.68 -417.765 -0.675609 0.0820657 -0.14742 0.717694 
3635 2 -606.858 2646.72 -499.193 0.695835 -0.60495 0.383556 -0.0522876 
3634 2 -612.953 2639.08 -500.39 0.217805 -0.56476 -0.329224 -0.72472 
3633 2 -621.646 2634.78 -499.216 -0.476974 -0.16934 -0.735993 -0.449594 
3632 2 -628.514 2630.26 -493.732 -0.490094 0.588544 -0.642585 0.0225528 
3629 2 -638.083 2615.11 -471.129 0.11431 -0.275702 0.92852 0.220844 
3630 2 -637.434 2619.64 -479.998 0.0511061 0.474195 0.810279 0.340552 
3641 3 -636.963 2672.85 -486.134 -0.741063 -0.468059 0.364253 -0.314749 
3631 2 -634.473 2624.77 -487.894 -0.237739 0.879394 0.12961 0.391597 
3628 2 -637.224 2609.16 -463.158 0.278346 -0.875387 0.36786 0.144571 
3626 2 -629.062 2602.94 -446.269 0.317413 -0.166795 -0.923265 -0.137876 
3625 2 -620.676 2602.61 -441.108 0.391887 0.537263 -0.676262 -0.316928 
3627 2 -633.978 2606.53 -454.057 0.185898 -0.891096 -0.406106 0.0804216 
3624 2 -611.653 2598.69 -443.034 -0.168053 0.622971 -0.138976 -0.751233 
3616 2 -566.276 2545.69 -414.439 -0.473999 0.837642 0.261521 -0.0727144 
3617 2 -569.88 2553.18 -419.83 -0.171078 0.6449 -0.632199 -0.393903 
3623 2 -601.943 2596.45 -442.437 -0.536463 0.534815 0.424418 -0.496034 
3622 2 -594.415 2591.18 -438.735 -0.48248 0.0931212 0.823559 0.283358 
3621 2 -588.088 2584.44 -435.212 0.0373353 -0.586786 0.568518 0.575391 
3620 2 -582.937 2576.86 -431.465 0.417976 -0.835374 -0.0204777 0.356409 
3619 2 -577.274 2569.11 -428.788 0.586375 -0.563332 -0.572219 -0.106715 
3618 2 -573.247 2560.89 -425.017 0.234554 -0.00346735 -0.827945 -0.509392 
3614 3 -611.486 2554.17 -406.069 -0.401846 0.577412 0.692897 0.158146 
3607 2 -653.961 2563.06 -408.377 -0.981455 -0.165903 -0.0958473 -0.00596278 
3608 2 -652.806 2559.62 -399.14 -0.769865 -0.14195 -0.0352075 -0.621224 
3609 2 -650.773 2557.15 -389.735 0.0346108 -0.0566057 0.434198 -0.898371 
3639 2 -587.171 2679.87 -498.863 -0.762008 0.430613 -0.48273 -0.0297866 
3706 2 -626.743 2684.31 -369.866 0.297101 -0.661566 -0.687927 0.0286018 
3705 2 -623.833 2679.07 -361.943 0.157304 0.00692535 -0.958064 -0.23942 
3554 2 -504.152 2537.61 -371.495 -0.330342 0.926124 0.168968 -0.0679526 
3555 2 -505.453 2543.05 -379.645 -0.0554188 0.679484 -0.726976 -0.0820796 
3558 2 -493.904 2551.2 -404.535 0.210449 -0.911329 0.26268 -0.237043 
3557 2 -499.344 2548.47 -396.692 -0.00543501 -0.82328 -0.442733 -0.355203 
3556 2 -505.084 2545.39 -389.241 -0.242068 -0.234599 -0.907474 -0.250713 
3643 2 -672.919 2700.48 -486.197 -0.874568 -0.474083 -0.070226 -0.0737784 
3642 2 -673.726 2709.31 -490.323 -0.643837 -0.355762 -0.38255 0.559074 
3644 2 -671.946 2692.33 -480.679 -0.714665 -0.248191 0.399223 -0.517955 
3707 2 -630.762 2688.97 -377.712 0.355167 -0.88928 0.135562 0.254284 
3708 2 -634.377 2696.63 -383.04 0.139291 -0.454609 0.783068 0.400916 
3709 2 -635.297 2703.95 -389.528 -0.167009 0.44624 0.835515 0.273666 
3710 2 -636.238 2709.9 -397.42 -0.243314 0.962904 0.0880028 -0.0766174 
3640 1 -627.284 2704.61 -497.346 -0.737805 -0.479124 0.384466 -0.279768 
3720 2 -604.681 2747.91 -472.935 -0.0818715 -0.899303 -0.206745 -0.376573 
3719 2 -611.765 2748.13 -466.057 -0.361542 -0.469522 -0.78646 -0.174118 
3718 2 -617.039 2746.59 -457.797 -0.315957 0.366865 -0.86947 0.0979983 
3717 2 -623.055 2740.95 -452.245 -0.323564 0.888047 -0.0103048 0.326454 
3716 2 -630.277 2737.46 -446.363 0.120569 0.67858 0.581517 0.432238 
3715 2 -635.013 2732.1 -439.459 0.255347 -0.115378 0.925853 0.253541 
3714 2 -638.618 2725.95 -432.68 0.423225 -0.786959 0.443924 0.0671441 
3721 1 -602.509 2787.41 -447.248 0.881742 0.392563 0.0845012 -0.247558 
3722 3 -604.62 2762.32 -423.058 0.881962 0.40603 0.0605115 -0.231563 
3713 2 -640.176 2722.56 -423.478 0.126079 -0.880303 -0.413956 -0.194451 
3712 2 -639.704 2716.44 -415.692 0.0769695 -0.222738 -0.91807 -0.318766 
3725 2 -603.406 2804.4 -388.772 -0.308899 -0.105463 -0.0483068 0.943994 
3724 2 -602.55 2806.02 -398.387 0.549105 0.0311765 -0.130672 0.824886 
3723 2 -601.169 2811.32 -406.614 0.918953 0.305048 -0.145658 0.203111 
3711 2 -637.888 2713.69 -406.444 -0.0549714 0.621986 -0.766023 -0.152711 
3726 2 -604.424 2803.5 -378.968 -0.93347 -0.0967007 0.0170832 0.344951 
3727 2 -605.225 2802.66 -369.136 -0.831215 0.0569643 0.0603912 -0.549718 
3768 2 -537.065 2809.54 -372.817 -0.193415 0.146926 0.831842 0.499041 
3769 2 -539.157 2818.4 -376.66 -0.648042 0.59142 0.391041 0.278122 
3767 2 -532.919 2801.2 -369.157 0.198414 -0.658993 0.475395 0.548051 
3766 2 -526.319 2794.11 -367.329 0.558395 -0.723384 -0.273055 0.300587 
3770 2 -540.464 2828.14 -376.834 -0.609491 0.698312 -0.261465 -0.269291 
3765 2 -521.938 2785.48 -365.013 0.442232 -0.330898 -0.72834 -0.405534 
3771 2 -539.993 2837.97 -377.996 -0.161276 0.280806 -0.607803 -0.725061 
3976 2 -829.629 2981.7 -486.617 -0.87429 -0.426965 -0.229987 0.0205551 
3977 2 -825.619 2974.57 -480.832 -0.614007 -0.376357 0.233538 -0.653308 
3978 2 -823.17 2967.01 -475.031 0.264008 0.00553789 0.289661 -0.919981 
3975 2 -832.997 2987.63 -493.761 -0.473885 -0.0506492 -0.430613 0.766446 
3979 2 -823.105 2960.99 -467.11 0.801942 0.346754 0.266321 -0.407091 
3980 2 -820.575 2953.47 -460.963 0.747609 0.537031 -0.0752708 0.383422 
3939 2 -671.751 2873.74 -511.599 -0.842316 0.441914 0.295233 -0.0897395 
3981 2 -816.184 2945.57 -457.229 0.165811 0.382246 -0.373332 0.828865 
3940 2 -678.129 2879.95 -507.357 -0.437322 0.501203 -0.196232 -0.720443 
3941 2 -683.992 2887.14 -503.87 0.169117 0.105683 -0.646711 -0.736204 
3942 2 -687.387 2896.33 -501.669 0.750974 -0.365569 -0.481229 -0.266111 
3982 2 -811.349 2938.24 -452.62 -0.678195 -0.0136463 -0.551955 0.484985 
3983 2 -804.311 2932.39 -448.589 -0.670481 -0.466319 -0.472722 -0.330961 
3992 3 -765.071 2896.23 -507.358 -0.63595 0.651186 0.370922 -0.184231 
3991 1 -737.002 2876.56 -499.769 -0.605785 0.672391 0.396336 -0.15438 
3984 2 -795.217 2929.1 -447.199 -0.14019 -0.754425 0.0592881 -0.638494 
3985 2 -786.114 2925.46 -448.751 0.224157 -0.389541 0.721828 -0.526285 
3986 2 -778.598 2919.93 -451.842 0.599826 0.295172 0.726176 -0.16047 
3987 2 -771.042 2913.76 -453.839 0.435458 0.779168 0.157347 0.42251 
3988 2 -763.103 2908.61 -456.891 0.0642492 0.537417 -0.512285 0.666797 
3989 2 -755.825 2901.96 -457.814 -0.6067 -0.00220136 -0.705268 0.366752 
3990 2 -747.416 2896.72 -458.348 -0.61448 -0.639391 -0.340225 -0.312795 
3949 2 -723.054 2951.03 -485.127 0.756043 -0.296713 -0.550579 -0.192934 
3948 2 -716.953 2943.41 -486.192 0.33072 0.14066 -0.661388 -0.658335 
3947 2 -709.715 2936.51 -486.567 -0.243407 0.620237 -0.252998 -0.701464 
3950 2 -729.917 2958 -484.711 0.626693 -0.6225 -0.14131 0.446969 
3946 2 -704.988 2928 -487.718 -0.73491 0.592173 0.309318 -0.116447 
3945 2 -700.663 2919.7 -490.737 -0.555416 0.222862 0.548291 0.584143 
3951 2 -737.098 2964.45 -482.523 0.0319969 -0.293807 0.22232 0.9291 
3944 2 -695.581 2913.02 -495.856 0.0235332 -0.280112 0.360988 0.889197 
3952 2 -742.316 2969.66 -475.954 -0.689254 0.0582915 0.560471 0.455415 
3953 2 -749.296 2975.85 -472.642 -0.759533 0.478659 0.370485 -0.238194 
3954 2 -757.056 2981.26 -469.826 -0.393522 0.54245 -0.27308 -0.690156 
3943 2 -692.689 2904.02 -498.476 0.701441 -0.605787 0.0877531 0.365106 
3955 2 -763.325 2988.25 -466.624 0.391874 0.353115 -0.582275 -0.618627 
3772 2 -540.178 2847.68 -377.126 0.334894 -0.343061 -0.706717 -0.520294 
3773 2 -541.559 2857.41 -378.046 0.671883 -0.636162 -0.364719 0.104166 
3774 2 -547.548 2865.15 -378.339 0.332971 -0.667409 0.318526 0.58501 
3938 3 -645.091 2901.44 -476.701 0.606073 -0.443107 -0.0501428 0.658648 
3937 1 -626.841 2883.26 -500.389 0.659943 -0.469101 -0.0728386 0.582335 