ITEM: TIMESTEP
100000000
ITEM: NUMBER OF ATOMS
4067
ITEM: BOX BOUNDS pp pp pp
-4.6310929470000001e+03 4.6704658980000004e+03
-4.6310929470000001e+03 4.6704658980000004e+03
-4.6310929470000001e+03 4.6704658980000004e+03
ITEM: ATOMS id type x y z c_q[1] c_q[2] c_q[3] c_q[4] 
3671 2 -519.749 2343.03 -692.293 0.839448 -0.499251 0.078029 0.199966 
3672 2 -522.159 2351.61 -687.975 0.450894 -0.435097 0.269948 0.731104 
3673 2 -526.217 2358.75 -682.36 -0.385832 -0.02762 0.422389 0.819731 
3674 2 -530.046 2365.75 -676.449 -0.871119 0.231066 0.397576 0.172317 
3670 2 -517.681 2333.76 -695.25 0.650038 -0.463896 -0.427809 -0.423356 
3675 2 -536.69 2370.72 -670.908 -0.594779 0.446886 -0.0594786 -0.665577 
3669 2 -516.845 2325.54 -700.763 -0.144379 0.175734 -0.466068 -0.855016 
3717 2 -535.647 2463.01 -742.244 -0.0174154 -0.43934 0.743425 -0.50398 
3716 2 -537.198 2468.83 -734.346 -0.254789 -0.955816 0.0749731 -0.126009 
3715 2 -539.66 2470.44 -724.799 -0.171857 -0.671852 -0.719774 -0.031697 
3714 2 -543.854 2469.73 -715.635 -0.258655 0.190335 -0.946951 -0.0124139 
3722 3 -545.29 2488.54 -760.158 0.791827 0.0746943 -0.578601 -0.180698 
3713 2 -544.64 2472.02 -705.987 0.0141155 0.883676 -0.465511 0.04709 
3712 2 -545.85 2473.67 -696.386 0.121979 0.90133 0.413879 0.037797 
3718 2 -532.406 2454.74 -746.672 0.428347 0.206244 0.789503 -0.388158 
3719 2 -527.971 2446.91 -750.866 0.397678 0.725007 0.560329 0.0474224 
3720 2 -523.085 2441.87 -757.893 0.161528 0.826619 -0.383767 0.378594 
3711 2 -545.885 2472.17 -686.611 -0.0299002 0.262331 0.962005 0.0695248 
3724 2 -530.501 2532.29 -775.519 -0.828636 0.22205 0.199797 -0.473432 
3710 2 -545.708 2470.03 -676.891 0.0467734 -0.652823 0.7497 0.0978989 
3725 2 -535.629 2533.07 -767.07 -0.119482 0.112054 0.0739271 -0.983719 
3723 2 -524.049 2530.25 -782.596 -0.819328 -0.0539066 0.361 0.442125 
3729 2 -543.663 2529.27 -729.566 -0.228548 -0.161155 0.0872006 0.956133 
3730 2 -546.525 2530.14 -720.14 -0.882791 -0.0347475 0.213898 0.416798 
3728 2 -541.269 2527.3 -738.946 0.617931 -0.212876 -0.0205011 0.756588 
3731 2 -550.643 2531.8 -711.237 -0.914443 0.227177 0.181369 -0.281586 
3732 2 -554.867 2534.08 -702.577 -0.381839 0.432166 -0.208999 -0.789779 
3709 2 -545.248 2465.46 -668.183 0.256503 -0.966504 -0.00301423 0.00820237 
3726 2 -537.991 2533.02 -757.565 0.667983 0.0878608 0.03655 -0.738067 
3727 2 -538.586 2530.53 -747.936 0.979979 0.135319 -0.116464 0.088125 
3721 1 -512.619 2485.78 -772.007 0.796221 0.00850355 -0.579436 -0.173822 
3733 2 -560.389 2540.29 -697.171 0.431032 -0.112464 -0.482073 -0.754433 
3752 2 -630.336 2634.86 -721.556 -0.904872 -0.230736 0.218891 -0.282938 
3734 2 -562.844 2548.04 -691.542 0.839016 -0.442393 -0.290574 0.126124 
3749 3 -598.348 2634.36 -691.472 0.487468 0.246351 -0.508128 0.665952 
3753 2 -633.401 2629.79 -713.728 -0.385547 0.1702 0.345304 -0.838541 
3754 2 -637.793 2624.78 -706.456 0.28565 0.239304 0.0840336 -0.924162 
3755 2 -641.224 2621.03 -697.936 0.897538 0.186722 -0.0154824 -0.39915 
3751 2 -626.848 2640.78 -728.626 -0.684848 -0.375747 -0.0722187 0.620146 
3750 2 -623.327 2647.71 -734.961 -0.00219493 -0.177793 -0.385322 0.90549 
3748 1 -591.547 2665.78 -705.157 0.480988 0.15742 -0.552064 0.662643 
3756 2 -643.372 2617.34 -688.921 0.805673 0.122537 -0.0785957 0.574194 
3757 2 -643.386 2614.36 -679.552 -0.00404513 -0.0215718 -0.227995 0.973415 
3735 2 -568.072 2555.37 -687.523 0.43938 -0.407586 0.327214 0.730582 
3736 2 -570.648 2563.63 -682.609 -0.360831 -0.0905291 0.601578 0.706902 
3737 2 -575.488 2571.86 -679.803 -0.719634 0.524565 0.326848 0.31643 
3738 2 -576.486 2581.43 -677.698 -0.796038 0.50674 -0.18757 -0.272683 
3758 2 -643.721 2609.7 -670.811 -0.809276 -0.170707 -0.11755 0.549648 
3739 2 -576.759 2590.46 -673.557 -0.416529 0.0337865 -0.519153 -0.745548 
3740 2 -574.425 2599.14 -669.17 0.235141 -0.368814 -0.431635 -0.788909 
3453 2 -653.41 1966.84 -562.81 0.818288 -0.408985 0.0979608 -0.391841 
3454 2 -648.718 1972.88 -556.728 0.78009 -0.123847 0.436582 0.430718 
3455 2 -643.083 1977.22 -549.816 0.205853 0.281918 0.350344 0.869141 
3456 2 -637.055 1981.82 -543.501 -0.551204 0.458335 -0.065002 0.694174 
3451 1 -643.777 1999.86 -595.079 0.420412 0.247193 0.211911 0.846902 
3452 3 -621.136 2006.92 -569.283 0.448269 0.255238 0.266591 0.814148 
3450 2 -618.058 2035.14 -612.944 -0.381529 -0.586466 0.577132 0.421203 
3449 2 -608.89 2034.99 -609.108 0.0518246 -0.823762 -0.0483889 0.562484 
3447 2 -593.18 2032.45 -597.683 0.453006 0.156794 -0.874073 -0.0787184 
3448 2 -600.678 2032.94 -604.055 0.459467 -0.541248 -0.682352 0.174176 
3446 2 -586.411 2029.65 -591.065 0.0605386 0.769067 -0.458474 -0.441218 
3443 2 -572.829 2012.22 -571.704 -0.199979 -0.31731 0.817244 0.437533 
3442 2 -566.895 2005.28 -567.862 0.280352 -0.781625 0.24327 0.501283 
3441 2 -560.416 1999.01 -563.584 0.527676 -0.680306 -0.503528 0.0721122 
3440 2 -553.075 1992.63 -561.962 0.465708 0.0921529 -0.748623 -0.462804 
3439 2 -544.155 1989.53 -558.938 0.107769 0.71971 -0.398856 -0.557958 
3444 2 -578.418 2018.69 -576.754 -0.287063 0.446827 0.835571 0.140578 
3445 2 -582.584 2023.5 -584.463 -0.349127 0.903216 0.18381 -0.168892 
3457 2 -629.624 1984.82 -537.544 -0.910942 0.264446 -0.309771 0.0655366 
3458 2 -623.291 1988.5 -530.897 -0.618013 -0.159855 -0.378471 -0.670273 
3459 2 -616.551 1991.1 -524.157 0.220596 -0.436648 -0.240307 -0.838408 
3438 2 -535.382 1986.34 -555.782 -0.331276 0.754261 0.315056 -0.471261 
3437 2 -529.28 1984.37 -548.271 -0.359017 0.0932962 0.92481 0.084435 
3436 2 -524.489 1981.08 -540.21 -0.00867362 -0.727132 0.614653 0.305622 
3435 2 -522.365 1974.4 -533.304 0.398443 -0.908682 -0.077357 0.097759 
3460 2 -610.202 1996.55 -518.695 0.886705 -0.403399 0.124762 -0.188303 
3434 2 -518.208 1967.71 -527.267 0.394576 -0.501668 -0.737688 -0.220129 
3433 2 -515.646 1961.02 -520.385 0.0179855 0.25083 -0.873295 -0.417273 
3432 2 -514.225 1952.86 -515.012 -0.400243 0.773401 -0.402967 -0.281557 
3520 2 -744.048 2108.2 -538.12 -0.141484 0.903758 -0.258441 -0.310502 
3521 2 -748.357 2112.31 -545.965 0.271184 0.452956 -0.80879 -0.259131 
3522 2 -754.54 2114.58 -553.4 0.446166 -0.325794 -0.80995 -0.196914 
3523 2 -760.617 2121.07 -557.864 0.212741 -0.793483 -0.523606 0.22575 
3524 2 -766.01 2123.14 -565.848 -0.107352 -0.942311 0.178824 0.261818 
3525 2 -770.651 2121.85 -574.501 -0.147481 -0.245902 0.956109 0.0603124 
3526 2 -774.009 2121.06 -583.834 -0.0527152 0.704166 0.706515 0.0469805 
3534 2 -786.083 2212.33 -622.892 0.574578 -0.126632 0.240944 -0.771862 
3535 2 -781.364 2210.94 -614.251 0.964882 0.141103 0.217175 -0.0439052 
3532 1 -786.016 2167.59 -637.58 -0.975789 0.0117699 -0.175909 0.129434 
3531 2 -780.078 2121.09 -631.945 -0.154929 -0.76513 0.61969 0.0809745 
3530 2 -776.986 2122.74 -622.682 -0.0652915 -0.973686 -0.145892 0.162442 
3529 2 -774.035 2123.65 -613.294 0.0955106 -0.434912 -0.888763 0.10876 
3528 2 -774.194 2123.72 -603.492 -0.0548306 0.673903 -0.736545 0.0187157 
3527 2 -774.875 2121.98 -593.742 -0.10079 0.992548 -0.0278165 0.0625771 
3533 3 -775.674 2164.92 -604.296 -0.975692 -0.0370467 -0.206479 0.0633949 
3536 2 -777.238 2207.84 -605.727 0.588838 0.161909 0.124618 0.782001 
3537 2 -773.471 2207.66 -596.527 -0.242197 0.0916646 -0.15516 0.953343 
3538 2 -771.055 2205.72 -587.019 -0.963737 -0.0126624 -0.107385 0.243964 
3539 2 -768.986 2204.28 -577.353 -0.836635 -0.307067 -0.031102 -0.452532 
3540 2 -765.434 2199.58 -569.383 -0.0300011 -0.323063 0.113353 -0.939085 
3541 2 -760.352 2196.8 -561.387 0.811938 0.0211639 0.298699 -0.501086 
3542 2 -756.577 2193.63 -552.807 0.792901 0.118405 0.262838 0.536846 
3543 2 -751.051 2195.1 -544.698 0.11648 0.339374 0.276453 0.891533 
3519 2 -738.39 2102.94 -532.158 -0.425785 0.708875 0.559086 -0.0602202 
3544 2 -744.377 2199.05 -538.542 -0.665871 0.29018 0.123006 0.676226 
3545 2 -743.044 2204.48 -530.434 -0.950804 0.291286 0.0151485 -0.104375 
3518 2 -736.098 2099.06 -523.142 -0.123624 0.204735 0.956838 0.165113 
3546 2 -744.674 2210.09 -522.501 -0.445955 0.241183 -0.225643 -0.831889 
3547 2 -747.394 2215.86 -514.872 0.38544 0.124269 -0.431633 -0.806031 
3613 1 -705.893 2304.02 -567.064 0.320595 -0.642769 -0.184742 -0.670774 
3614 3 -678.735 2325.92 -565.343 0.346055 -0.694077 -0.0797916 -0.626208 
3612 2 -722.115 2339.7 -540.844 0.419118 -0.348983 -0.773125 0.323773 
3611 2 -713.43 2341.37 -536.455 0.504169 0.446829 -0.72099 -0.162269 
3610 2 -705.001 2339.9 -531.23 0.0517539 0.855984 -0.198144 -0.474713 
3609 2 -697.687 2339.55 -524.504 -0.276479 0.689565 0.603974 -0.288573 
3608 2 -690.355 2338.59 -517.902 -0.377353 -0.0421553 0.918874 0.107231 
3615 2 -672.637 2281.62 -591.976 0.53821 0.261594 0.527906 0.602671 
3676 2 -541.714 2376.87 -665.058 0.216883 0.297905 -0.533498 -0.76131 
3667 1 -519.941 2296.2 -663.953 -0.82615 0.506608 0.243037 0.0419186 
3616 2 -663.882 2284.37 -588.289 -0.190786 0.525699 0.292316 0.775753 
3578 2 -665.893 2269.68 -522.168 0.217478 0.760379 0.5268 0.311462 
3579 2 -658.859 2269.92 -529.044 -0.19752 0.88077 -0.21735 0.371468 
3580 2 -651.47 2272.22 -535.294 -0.4823 0.34519 -0.803975 -0.043068 
3617 2 -656.696 2290.66 -585.503 -0.699787 0.592386 -0.257534 0.305047 
3586 1 -581.894 2263.4 -532.855 0.337935 0.416528 -0.16886 -0.826916 
3581 2 -643.918 2275.81 -540.654 -0.381605 -0.346373 -0.760253 -0.395499 
3582 2 -635.159 2279.28 -543.989 0.00606195 -0.830921 -0.146308 -0.536775 
3583 2 -626.296 2279.6 -548.287 0.502546 -0.594364 0.621979 -0.0855618 
3584 2 -618.792 2284.34 -552.822 0.338747 0.0914088 0.906989 0.232951 
3585 2 -612.372 2287.78 -559.351 0.0209274 0.739792 0.524691 0.420678 
3663 2 -533.001 2311.84 -606.888 -0.534849 -0.54736 -0.521994 0.376638 
3662 2 -533.634 2321.62 -606.207 0.051429 0.12669 -0.728609 0.671144 
3661 2 -538.047 2330.5 -606.995 0.512985 0.650716 -0.215349 0.51676 
3660 2 -540.84 2339.31 -610.477 0.820977 0.420564 0.305699 -0.235946 
3658 2 -544.345 2358.32 -611.62 -0.564646 -0.602269 0.357251 -0.436828 
3659 2 -543.16 2348.65 -612.393 0.174263 -0.0770604 0.634782 -0.74883 
3657 2 -543.704 2368.16 -612.77 -0.709112 -0.628153 -0.185506 0.261097 
3656 2 -543.217 2377.99 -613.426 -0.333793 -0.301519 -0.613343 0.649214 
3618 2 -649.442 2296.99 -583.129 -0.746258 0.200695 -0.524899 -0.356793 
3622 2 -626.163 2324.49 -567.1 0.579982 -0.018361 0.616355 0.532345 
3619 2 -642.92 2303.85 -579.974 -0.230275 -0.223149 -0.561805 -0.762596 
3621 2 -631.46 2318.22 -572.77 0.884759 -0.337087 0.320178 -0.0325581 
3620 2 -637.001 2311.27 -577.082 0.493418 -0.56474 -0.130292 -0.648561 
3623 2 -619.093 2330.56 -563.803 -0.00316552 0.443046 0.378305 0.812764 
3624 2 -612.142 2337.18 -561.355 -0.628456 0.674927 -0.0238471 0.385939 
3625 2 -606.682 2345.31 -559.985 -0.705251 0.37674 -0.580344 -0.15456 
3668 3 -531.737 2326.5 -650.782 -0.800117 0.554464 0.228818 0.00494427 
3626 2 -600.67 2353.16 -560.348 -0.337678 0.0190431 -0.589158 -0.733829 
3664 2 -531.93 2302.15 -608.522 -0.429362 -0.857901 0.108691 -0.260461 
3665 2 -529.132 2294.14 -613.669 -0.190657 -0.403446 0.753762 -0.482414 
3666 2 -528.626 2285.67 -618.819 0.212687 0.314538 0.802887 -0.459567 
3627 2 -596.61 2361.74 -557.878 0.350915 -0.488258 -0.418674 -0.68057 
3628 2 -593.105 2370.39 -554.623 0.764865 -0.605052 0.112413 -0.190413 
3629 2 -588.651 2378.98 -552.421 0.619028 -0.0945289 0.5468 0.555768 
3693 2 -667.482 2473.97 -641.889 0.0476716 -0.227875 0.590661 0.772606 
3677 2 -548.102 2383.3 -661.57 0.710895 -0.247062 -0.524436 -0.39819 
3630 2 -582.685 2385.82 -548.553 0.0205349 0.431554 0.377551 0.819021 
3655 2 -542.774 2387.77 -611.665 0.34725 0.452167 -0.644262 0.509793 
3679 2 -561.844 2395.63 -655.253 0.145488 -0.604863 0.228511 0.748837 
3678 2 -554.002 2390.8 -658.542 0.680066 -0.501637 -0.265467 0.464109 
3680 2 -570.654 2400.05 -654.127 -0.601246 -0.191849 0.581882 0.512943 
3681 2 -579.506 2403.79 -651.36 -0.71233 0.438809 0.498067 -0.227951 
3682 2 -588.51 2407.45 -649.686 -0.342201 0.674792 -0.0599655 -0.651121 
3692 2 -664.267 2464.81 -643.775 0.657261 -0.633992 0.133261 0.385102 
3631 2 -576.342 2392.57 -545.141 -0.684371 0.543764 -0.119005 0.47095 
3691 2 -660.569 2455.83 -645.951 0.720138 -0.391196 -0.456084 -0.346921 
3654 2 -543.319 2397.49 -613.052 0.729166 0.682513 -0.0337629 0.0367875 
3690 2 -654.978 2447.9 -647.977 0.269471 0.163398 -0.628214 -0.71136 
3683 2 -597.026 2412.53 -649.009 0.407877 0.331606 -0.668988 -0.525479 
3684 2 -605.345 2417.77 -650.278 0.593698 -0.470541 -0.652729 -0.00766209 
3685 2 -614.012 2422.32 -652.147 0.449526 -0.682421 -0.0225539 0.575952 
3694 1 -647.071 2483.95 -600.498 -0.457212 -0.653 -0.601284 0.0548213 
3653 2 -544.126 2407.34 -613.152 0.454383 0.44477 0.562093 -0.528929 
3708 2 -548.29 2463.89 -658.816 -0.0682191 -0.608443 -0.78248 -0.113437 
3707 2 -552.61 2462.29 -650.026 -0.253857 0.255009 -0.933007 0.00508435 
3706 2 -554.467 2462.33 -640.333 -0.0565081 0.899628 -0.423193 0.0915621 
3705 2 -558.003 2463.23 -631.181 0.0720214 0.889174 0.433046 0.129048 
3704 2 -560.936 2464.08 -621.636 0.161149 0.265299 0.950337 -0.0225319 
3703 2 -567.521 2465.26 -614.431 0.285838 -0.469977 0.813459 -0.188954 
3702 2 -574.769 2465.1 -607.817 0.0797766 -0.886745 0.264457 -0.37065 
3701 2 -582.038 2465.29 -601.279 -0.279572 -0.752796 -0.509374 -0.309316 
3695 3 -624.478 2461.8 -615.539 -0.483132 -0.613441 -0.621836 0.0599445 
3689 2 -648.363 2440.57 -647.093 -0.255813 0.698049 -0.235355 -0.626016 
3688 2 -640.419 2434.56 -647.118 -0.649089 0.591218 0.449709 -0.164029 
3687 2 -631.52 2430.96 -649.663 -0.712529 -0.0373176 0.59848 0.364323 
3686 2 -622.64 2427.16 -651.94 -0.161354 -0.498759 0.39688 0.753452 
3700 2 -586.846 2469.66 -593.902 -0.308235 -0.0838852 -0.917254 0.237907 
3699 2 -594.536 2472.19 -588.084 -0.206028 0.589849 -0.649071 0.43398 
3698 2 -603.011 2472.92 -582.875 0.109478 0.882169 0.0596538 0.454129 
3697 2 -609.418 2476.15 -576.216 0.404033 0.474178 0.782025 0.0186778 
3696 2 -613.643 2478.53 -567.643 0.17719 -0.220479 0.944171 -0.168916 
3652 2 -542.629 2416.8 -610.85 -0.256072 -0.148279 0.767233 -0.569029 
3651 2 -539.997 2426.14 -609.307 -0.642986 -0.69159 0.318028 -0.0844435 
3650 2 -536.2 2435.07 -607.174 -0.474467 -0.689499 -0.296349 0.460054 
3649 2 -533.679 2444.67 -606.174 -0.0367813 -0.209342 -0.664066 0.716826 
3648 2 -529.789 2453.71 -606.008 0.520842 0.299292 -0.671707 0.433541 
3647 2 -527.956 2463.21 -604.315 0.656457 0.739428 -0.144373 0.0383109 
3641 3 -529.824 2460.43 -566.978 -0.298504 -0.0195011 0.896195 -0.327643 
3646 2 -524.222 2471.81 -600.884 0.352741 0.70795 0.391441 -0.470271 
3645 2 -520.881 2480.33 -596.751 -0.0635139 0.184658 0.83622 -0.512449 
3644 2 -516.846 2488.95 -594.163 -0.553702 -0.415906 0.636186 -0.340153 
3632 2 -568.898 2397.99 -541.734 -0.786323 0.146237 -0.501666 -0.32961 
3633 2 -561.419 2403.48 -537.94 -0.217986 -0.323179 -0.458997 -0.798348 
3634 2 -554.312 2409.37 -534.276 0.486791 -0.606028 -0.049204 -0.627171 
3635 2 -547.908 2416.42 -531.296 0.719892 -0.536346 0.437817 0.0490302 
3636 2 -542.356 2424.65 -530.759 0.43986 0.054914 0.609618 0.657171 
3637 2 -536.271 2432.29 -529.103 -0.300638 0.43053 0.208389 0.825127 
3638 2 -530.26 2438.34 -524.06 -0.882772 0.388355 -0.0933385 0.247349 
3639 2 -526.496 2444.82 -517.652 -0.677699 0.16088 -0.407711 -0.590435 
3643 2 -513.152 2497.66 -590.936 -0.582557 -0.787972 0.1307 0.150486 
3640 1 -513.139 2481.4 -544.343 -0.317651 0.01908 0.888278 -0.331203 
3642 2 -507.591 2503.71 -585.517 -0.0821661 -0.647625 -0.584428 0.481948 
3747 2 -564.815 2664.89 -666.303 -0.187998 0.102357 -0.756558 -0.617899 
3741 2 -570.001 2607.44 -666.4 0.72943 -0.642073 0.191722 -0.137537 
3742 2 -565.646 2616.47 -665.984 0.635835 -0.392338 0.502682 0.434852 
3743 2 -562.366 2625.83 -665.007 0.0393318 -0.0656832 0.585334 0.807169 
3746 2 -565.864 2655 -665.26 -0.600615 0.598326 -0.428107 -0.313037 
3745 2 -565.058 2645.11 -664.344 -0.62247 0.736077 0.220838 0.148163 
3744 2 -563.331 2635.49 -662.88 -0.458799 0.376422 0.652554 0.47115 
3759 2 -643.689 2606.02 -661.77 -0.869626 -0.0782093 -0.106591 -0.47568 
3760 2 -641.827 2604.55 -652.118 -0.260213 -0.150987 0.0346694 -0.953043 
3774 2 -553.644 2593.63 -572.968 -0.47319 -0.655655 0.25133 -0.532016 
3773 2 -558.677 2602.11 -573.401 -0.71374 -0.632625 -0.296273 -0.0508225 
3772 2 -563.734 2610.2 -575.571 -0.605119 -0.115482 -0.578005 0.535169 
3761 2 -638.279 2604.01 -642.857 0.531631 -0.149232 0.115779 -0.825648 
3762 2 -634.115 2603.62 -633.877 0.971147 0.0317315 0.222983 0.078395 
3763 2 -629.764 2602.99 -625.059 0.410531 0.218777 0.348861 0.81357 
3771 2 -570.723 2615.68 -579.896 0.00822127 0.405131 -0.342683 0.847567 
3770 2 -577.149 2619.35 -586.549 0.668352 0.365308 0.0859748 0.642234 
3769 2 -583.173 2619.42 -594.442 0.939865 0.0391121 0.328442 -0.0851438 
3775 1 -516.731 2619.31 -587.236 -0.670545 0.259433 0.576836 0.387716 
3764 2 -623.435 2606.86 -618.512 -0.347203 0.507385 -0.0346211 0.787916 
3765 2 -615.829 2609.85 -612.995 -0.806763 0.399616 -0.406912 0.154474 
3766 2 -608.259 2614.96 -608.948 -0.692693 -0.0517842 -0.462868 -0.55068 
3767 2 -600.543 2618.29 -603.553 -0.187639 -0.501562 -0.166494 -0.827953 
3768 2 -591.662 2619.62 -599.602 0.470461 -0.394673 0.327558 -0.718056 
3776 3 -539.889 2643.42 -576.623 -0.695586 0.223803 0.574699 0.368501 
3782 2 -523.463 2685.58 -564.163 -0.347089 0.533941 -0.114033 -0.762517 
3781 2 -516.326 2680.67 -569.089 -0.822202 0.394518 0.327793 -0.246761 
3780 2 -508.9 2675.21 -572.865 -0.699315 0.0243533 0.561774 0.441335 
3779 2 -502.522 2670.66 -578.702 -0.0902681 -0.34304 0.321004 0.878141 
3778 2 -496.697 2664.56 -583.902 0.63916 -0.489389 -0.0532129 0.590882 
3777 2 -492.861 2659.81 -591.578 0.914127 -0.202942 -0.27525 -0.217771 
3856 1 -394.162 2667.01 -566.933 0.496087 -0.210789 -0.607616 -0.583326 
3853 2 -443.493 2686.15 -574.393 0.281082 0.453763 -0.617955 0.577255 
3854 2 -440.795 2676.58 -575.243 -0.30675 -0.269452 -0.637779 0.653099 
3855 2 -440.592 2666.75 -575.386 -0.664486 -0.605458 -0.322272 0.296682 
3858 2 -353.475 2687.79 -555.067 0.38687 -0.753049 0.0905768 0.524447 
3783 2 -530.522 2691.21 -560.323 0.466785 0.249335 -0.345045 -0.775169 
3784 2 -537.73 2694.7 -554.503 0.951194 -0.18905 -0.180802 -0.163707 
3785 2 -541.419 2698.44 -546.172 0.57409 -0.358717 -0.182331 0.71309 
3786 2 -547.891 2700.02 -538.969 -0.259699 -0.281009 0.168845 0.90834 
3787 2 -553.557 2701.89 -531.111 -0.831278 0.118202 0.383552 0.384569 
3788 2 -559.024 2707.26 -524.887 -0.849336 0.205957 0.115868 -0.472002 
3882 2 -517.013 2816.84 -576.256 -0.166469 0.789135 0.590873 -0.0205842 
3881 2 -514.569 2814.7 -566.884 -0.134332 0.0948289 0.981793 0.0951061 
3789 2 -562.824 2710.05 -516.161 -0.155998 0.20852 -0.153328 -0.953244 
3841 2 -512.014 2753.83 -521.561 -0.328618 -0.672306 -0.637337 0.183891 
3842 2 -509.677 2747.23 -528.577 -0.429828 -0.869312 0.12119 -0.211796 
3880 2 -510.518 2811.94 -558.253 -0.036194 -0.649805 0.723073 0.231536 
3852 2 -445.654 2694.57 -569.687 0.492033 0.830974 -0.165781 0.199757 
3879 2 -504.352 2808.13 -551.691 0.257593 -0.879392 -0.122197 0.381293 
3851 2 -448.469 2702.73 -564.631 0.388359 0.523724 0.710519 -0.264676 
3857 3 -404.015 2699.22 -557.553 0.569254 -0.226704 -0.585289 -0.531029 
3850 2 -453.494 2708.67 -558.598 0.104356 -0.343627 0.822197 -0.441613 
3849 2 -460.246 2715.15 -555.41 -0.307143 -0.764187 0.133224 -0.551301 
3861 2 -373.98 2707.92 -551.217 -0.664327 0.683716 0.263603 -0.147361 
3848 2 -469.415 2718.59 -553.87 -0.602615 -0.509886 -0.553847 -0.264811 
3862 2 -379.294 2716.38 -551.526 -0.269597 0.631927 -0.513649 -0.513956 
3863 2 -383.273 2725.15 -553.881 0.395684 -0.0262273 -0.713988 -0.577033 
3864 2 -388.531 2733.53 -553.708 0.640459 -0.566768 -0.515347 -0.0548049 
3865 2 -394.674 2741.14 -555.423 0.288666 -0.846268 0.00250484 0.447768 
3866 2 -401.67 2746.92 -559.441 -0.116195 -0.644267 0.577106 0.488228 
3867 2 -409.062 2750.78 -564.744 -0.526321 -0.0704706 0.824391 0.195958 
3868 2 -417.921 2752.91 -568.513 -0.627543 0.547562 0.43227 -0.345699 
3878 2 -496.57 2803.47 -547.819 0.523289 -0.361231 -0.771213 -0.0301796 
3877 2 -488.043 2798.76 -549.221 0.410097 0.325323 -0.565093 -0.637695 
3876 2 -482.404 2791.69 -553.338 -0.427169 0.537053 -0.189267 -0.702339 
3875 2 -476.332 2784.4 -555.974 -0.796109 0.486383 0.359485 -0.0203202 
3874 2 -468.057 2779.03 -555.802 -0.569241 0.00848267 0.729302 0.379488 
3873 2 -461.098 2772.46 -558.248 -0.0936626 -0.416944 0.514371 0.74351 
3869 2 -427.132 2756.21 -568.222 -0.102587 0.581385 -0.253066 -0.766437 
3872 2 -453.724 2767.03 -561.753 0.599598 -0.547869 -0.119437 0.571014 
3870 2 -435.493 2761.27 -566.793 0.516331 0.400621 -0.492439 -0.574812 
3871 2 -444.935 2763.71 -564.825 0.809282 -0.171361 -0.561401 -0.0229489 
3847 2 -478.365 2721.12 -550.833 -0.452297 0.249529 -0.766933 0.380757 
3846 2 -486.523 2725.16 -546.809 0.160763 0.825255 -0.169459 0.514192 
3845 2 -495.114 2729.62 -544.473 0.572471 0.620124 0.423492 0.329209 
3844 2 -503.392 2733.11 -540.28 0.556672 0.139197 0.811697 -0.109031 
3843 2 -507.611 2739.09 -533.694 -0.00722824 -0.467889 0.76582 -0.441075 
3860 2 -368.721 2700.03 -554.137 -0.602457 0.109815 0.582712 0.534259 
3859 2 -360.577 2694.62 -555.319 -0.0701118 -0.525676 0.448099 0.719691 
3883 1 -510.981 2862.06 -564.396 -0.848703 -0.229195 -0.440172 0.182817 
3884 3 -485.63 2845.59 -546.591 -0.801213 -0.255635 -0.475983 0.257193 
3885 2 -488.939 2897.17 -541.807 -0.732234 -0.333873 0.0121359 -0.593477 
3886 2 -484.966 2891.77 -534.566 -0.0149514 -0.121647 0.206694 -0.970699 
3887 2 -482.684 2888.33 -525.454 0.856434 0.0323045 0.080058 -0.508987 
3888 2 -481.256 2886.86 -515.74 0.962423 0.128394 -0.0722185 0.228126 
2643 2 -225.08 974.927 -412.874 -0.2558 -0.350809 -0.2699 -0.85945 
2644 2 -217.522 977.141 -406.908 0.563125 -0.351146 -0.0952593 -0.741965 
2641 1 -225.112 930.117 -398.331 0.892312 -0.259841 0.299535 -0.215734 
2640 2 -210.646 894.585 -370.794 -0.32186 -0.0820765 0.898702 -0.286365 
2645 2 -213.835 982.418 -399.402 0.970832 -0.199361 -0.0461597 -0.124942 
2649 2 -214.816 999.565 -364.183 -0.753831 0.439365 -0.122042 -0.473079 
2646 2 -213.312 985.678 -390.172 0.545222 -0.16267 0.132389 0.811631 
2648 2 -213.634 994.026 -372.381 -0.892468 0.221732 0.201354 0.33733 
2647 2 -214.415 989.544 -381.054 -0.322843 0.130336 0.244135 0.905087 
2639 2 -205.69 900.379 -364.591 -0.414798 -0.690788 0.592174 0.00914215 
2642 3 -201.623 945.368 -377.308 0.88411 -0.267563 0.29669 -0.242354 
3428 2 -515.088 1917.12 -498.792 0.613868 -0.788094 -0.00857955 -0.0447164 
3427 2 -512.271 1908.2 -495.534 0.461572 -0.378078 -0.720876 -0.352629 
3426 2 -509.824 1899.49 -491.723 -0.0110376 0.33125 -0.768842 -0.546839 
3424 1 -463.077 1904.55 -495.457 -0.47413 0.619954 -0.289947 -0.553885 
3315 2 -378.476 1921.92 -475.32 0.166223 -0.485646 0.827427 -0.227776 
3314 2 -383.248 1924.08 -466.833 -0.0691843 -0.950595 0.173591 -0.247888 
3507 2 -800.832 2063.77 -456.897 -0.646262 0.155162 -0.739535 -0.106573 
3508 2 -791.865 2067.71 -458.021 -0.326735 -0.589585 -0.525105 -0.519518 
3505 1 -795.771 2072.37 -410.827 0.278825 -0.789966 0.321687 -0.441281 
3492 2 -677.643 2047.79 -415.979 0.620673 -0.245678 -0.689752 0.280445 
3493 2 -687.425 2046.96 -417.143 0.224505 -0.703993 -0.244598 0.627824 
3494 2 -697.235 2047.27 -418.421 -0.344289 -0.513777 0.356121 0.700483 
3495 2 -706.881 2048.34 -416.16 -0.777442 -0.110917 0.602011 0.144446 
3491 2 -667.818 2046.66 -416.766 0.656715 0.178805 -0.673187 -0.289092 
3498 2 -732.38 2056.87 -405.05 0.693901 -0.021003 -0.450213 -0.561577 
3496 2 -716.505 2049.1 -413.658 -0.631197 0.492864 0.29969 -0.518519 
3497 2 -725.193 2052.6 -410.19 0.0141466 0.445598 -0.274967 -0.851842 
3509 2 -782.203 2069.55 -459.316 0.207518 -0.82891 0.0399362 -0.517929 
3510 2 -773.318 2072.55 -462.346 0.449094 -0.504506 0.729051 -0.110782 
3499 2 -737.432 2062.57 -398.947 0.849664 -0.394051 -0.212906 0.278326 
3500 2 -743.667 2066.97 -392.74 0.207758 -0.331376 0.135577 0.9103 
3501 2 -750.169 2069.2 -385.602 -0.369903 -0.355504 0.451891 0.729783 
3502 2 -758.086 2073.52 -381.69 -0.76348 0.0482013 0.500813 0.404923 
3511 2 -765.673 2075.29 -467.994 0.364079 0.271365 0.849401 0.268934 
3512 2 -758.448 2077.14 -474.468 0.0252942 0.850133 0.308744 0.425806 
3429 2 -514.666 1926.51 -501.681 0.301276 -0.571431 0.665636 0.373668 
3461 2 -605.572 2003.43 -513.234 0.776984 -0.149222 0.388488 0.472341 
3462 2 -600.909 2009.34 -506.925 0.0172331 0.0599159 0.470072 0.880423 
3463 2 -599.018 2017.43 -501.391 -0.644546 0.242596 0.34146 0.639619 
3490 2 -658.64 2043.92 -413.952 0.0447113 0.721381 -0.329211 -0.607644 
3464 2 -600.135 2024.32 -494.39 -0.919662 0.387169 0.0657446 0.000143641 
3488 2 -640.043 2040.76 -418.421 -0.840165 0.177914 0.512304 -0.00382872 
3487 2 -630.485 2039.15 -420.762 -0.468223 -0.407271 0.403254 0.672521 
3486 2 -621.471 2035.9 -418.55 0.15089 -0.761501 0.0680155 0.626676 
3485 2 -612.173 2033.56 -415.741 0.529761 -0.564515 -0.552854 0.308266 
3484 2 -602.675 2031.76 -413.914 0.655027 0.0543826 -0.727024 -0.19854 
3483 2 -595.153 2027.88 -408.497 0.111837 0.72854 -0.526758 -0.423376 
3482 2 -588.323 2022.51 -403.741 -0.328243 0.85356 0.0918935 -0.394015 
3479 3 -563.053 2047.35 -434.582 -0.150058 -0.876648 0.287755 0.3552 
3478 1 -538.638 2046.48 -409.504 -0.0888718 -0.905929 0.246675 0.332484 
3481 2 -580.595 2020.14 -398.246 -0.485107 0.489417 0.708805 -0.150789 
3480 2 -572.913 2019.19 -392.14 -0.341175 -0.407699 0.818857 0.21646 
3465 2 -600.294 2031.51 -487.555 -0.65314 0.230509 -0.292421 -0.659367 
3466 2 -599.94 2038.74 -480.832 0.101958 -0.32684 -0.628791 -0.698142 
3467 2 -596.176 2047.84 -480.555 0.512497 -0.624019 -0.156771 -0.568656 
3468 2 -590.633 2055.78 -478.482 0.775208 -0.348763 0.525952 -0.028136 
3489 2 -648.825 2043.12 -414.475 -0.398293 0.600436 0.383368 -0.577813 
3469 2 -582.771 2061.45 -476.134 0.552247 0.0631894 0.62037 0.553328 
3470 2 -575.023 2067.18 -474.048 -0.233758 0.591441 0.336724 0.694385 
3471 2 -567.977 2073.69 -471.605 -0.693396 0.394053 -0.405058 0.447048 
3477 2 -519.06 2074.13 -442.303 -0.198156 0.319557 -0.190206 0.906884 
3472 2 -558.963 2075.42 -467.94 -0.734569 -0.0800892 -0.578925 -0.344732 
3476 2 -525.355 2076.37 -449.658 0.60944 0.329857 0.126247 0.709816 
3473 2 -549.855 2077.78 -464.898 -0.111327 -0.494442 -0.148819 -0.849109 
3475 2 -533.067 2077.46 -455.684 0.897008 0.0695919 0.435408 -0.0308805 
3431 2 -515.482 1943.58 -511.747 -0.53428 0.734802 0.291014 0.299868 
3430 2 -514.675 1934.81 -507.089 -0.234261 0.362405 0.79059 0.434457 
3313 2 -390.008 1927.55 -460.472 -0.365459 -0.767923 -0.47493 -0.226221 
3312 2 -395.706 1931.42 -453.324 -0.321536 -0.0424222 -0.922625 0.208752 
3311 2 -398.532 1932.71 -443.82 0.0132319 0.810704 -0.554841 0.186376 
3308 2 -408.838 1943.61 -418.765 0.188855 -0.52712 0.785547 -0.263427 
3307 2 -416.832 1947.09 -414.181 -0.181941 -0.851257 0.00682383 -0.492151 
3310 2 -400.896 1937.17 -435.378 0.278291 0.888699 0.362807 0.0337418 
3304 2 -436.874 1958.58 -396.604 0.0417467 0.678188 -0.631259 0.373939 
3309 2 -403.505 1941.63 -426.867 0.198124 0.409007 0.882742 -0.119275 
3305 2 -432.373 1953.38 -403.802 -0.420369 0.102733 -0.857665 0.277751 
3306 2 -425.188 1948.85 -408.893 -0.464772 -0.539943 -0.67882 -0.177909 
3303 2 -441.066 1962.23 -388.523 0.195721 0.964894 0.0766537 0.15747 
3423 2 -423.214 1929.72 -495.353 0.301507 -0.145761 0.80577 -0.488448 
3422 2 -429.607 1936.79 -492.47 -0.203991 -0.734117 0.358846 -0.539156 
3421 2 -433.302 1943.08 -485.624 -0.362001 -0.83232 -0.417935 -0.0391096 
3425 3 -474.324 1937.14 -490.225 -0.529689 0.666333 -0.213608 -0.479375 
3407 2 -451.418 2041.47 -428.578 -0.55442 -0.109943 -0.704092 0.429867 
3408 2 -444.169 2034.99 -429.967 -0.686342 -0.638013 -0.168508 -0.305743 
3420 2 -435.877 1948.01 -477.272 -0.173311 -0.167241 -0.948302 0.20668 
3419 2 -437.744 1950.89 -468.081 0.0247577 0.59588 -0.78399 0.172261 
3418 2 -442.643 1951.91 -459.619 0.0685897 0.970743 0.0367689 0.227158 
3417 2 -444.705 1956.23 -450.968 0.211134 0.5446 0.802143 -0.124097 
3416 2 -445.095 1964.85 -445.93 -0.0307831 -0.196042 0.819348 -0.537855 
3415 2 -444.127 1973.94 -442.06 -0.540554 -0.741342 0.364065 -0.16022 
3414 2 -444.047 1982.45 -436.73 -0.434921 -0.780518 -0.399525 0.204976 
3413 2 -443.728 1991.37 -432.299 -0.0890161 -0.237908 -0.838503 0.482068 
3412 2 -440.241 2000.22 -429.505 0.451204 0.431611 -0.706037 0.334123 
3411 2 -436.505 2009.15 -427.017 0.601183 0.770164 -0.0932573 -0.191648 
3410 2 -436.563 2018.8 -424.727 0.302136 0.394366 0.673396 -0.547473 
3409 2 -437.304 2028.23 -428.045 -0.353494 -0.220616 0.51314 -0.750372 
3406 2 -457.675 2047.99 -424.706 -0.0361227 0.56345 -0.608376 0.557761 
3302 2 -443.112 1966.19 -379.61 0.198944 0.54902 0.79502 -0.164137 
3301 2 -444.159 1968.99 -370.337 -0.0181867 -0.284185 0.944091 -0.166133 
3405 2 -461.952 2056.18 -421.267 0.422443 0.811023 -0.182175 0.36138 
3398 3 -449.734 2065.62 -374.601 0.056462 -0.407496 0.83852 -0.357272 
3404 2 -466.732 2063.23 -416.242 0.46233 0.707247 0.534508 -0.0188217 
3317 3 -365.327 1963.13 -446.656 0.860115 0.0927183 -0.336094 -0.372353 
3403 2 -472.344 2069.9 -411.506 0.275622 -0.0765381 0.867805 -0.406311 
3327 2 -327.718 1972.32 -373.637 0.938476 0.175657 0.10879 0.276718 
3326 2 -332.127 1972.61 -382.411 0.849299 -0.114578 0.199093 -0.475317 
3316 1 -344.208 1954.27 -473.092 0.837488 0.0726108 -0.330155 -0.429347 
3325 2 -333.656 1974.9 -392.011 0.194974 -0.0499723 0.120735 -0.972065 
3324 2 -335.839 1978.31 -401.058 -0.579183 -0.213105 0.0602395 -0.784541 
3323 2 -336.008 1979.6 -410.967 -0.990455 -0.0668667 -0.0077682 -0.120284 
3321 2 -334.543 1983.17 -430.073 0.231962 -0.0801197 -0.0177778 0.969257 
3322 2 -336.235 1982.88 -420.19 -0.660791 -0.107494 -0.130653 0.731253 
3320 2 -332.163 1985.61 -439.404 0.84492 0.0319524 -0.181608 0.502104 
3319 2 -328.734 1990.23 -447.644 0.896545 0.310365 -0.120186 -0.292293 