ITEM: TIMESTEP
100000000
ITEM: NUMBER OF ATOMS
4067
ITEM: BOX BOUNDS pp pp pp
-4.6310929470000001e+03 4.6704658980000004e+03
-4.6310929470000001e+03 4.6704658980000004e+03
-4.6310929470000001e+03 4.6704658980000004e+03
ITEM: ATOMS id type x y z c_q[1] c_q[2] c_q[3] c_q[4] 
3909 2 -604.055 2908.13 -696.578 -0.37081 0.431414 0.817713 0.0879046 
3908 2 -598.139 2903.67 -690.048 -0.172796 -0.367985 0.83025 0.381331 
3907 2 -591.513 2899.97 -683.624 0.138858 -0.857949 0.200349 0.452219 
3910 1 -621.529 2944.36 -671.869 0.918226 0.270931 0.271549 0.0985841 
3906 2 -583.407 2895.58 -679.783 0.462413 -0.66614 -0.56007 0.169567 
3905 2 -577.417 2889.59 -674.69 0.364198 -0.0104294 -0.878211 -0.309834 
3904 2 -569.474 2886.37 -669.64 0.0455144 0.766422 -0.422387 -0.481783 
3998 2 -600.044 3298.8 -667.54 -0.775253 -0.211361 0.552232 -0.222146 
3996 2 -582.928 3307.77 -671.989 -0.0539542 -0.566464 -0.193198 0.799301 
3997 2 -592.102 3304.3 -670.205 -0.611566 -0.546832 0.199461 0.535889 
3995 2 -576.218 3314.99 -671.599 0.414153 -0.0229393 -0.735267 0.536036 
3994 2 -573.685 3323.33 -666.852 0.500729 0.729457 -0.432564 0.173356 
2967 2 -356.275 1294.4 -530.787 -0.70175 0.705114 0.0990043 0.023633 
2968 2 -357.141 1304.21 -531.243 -0.418913 0.548142 -0.496606 -0.52672 
2969 2 -359.044 1313.89 -532.809 0.0630989 -0.0384137 -0.704427 -0.705922 
2970 2 -360.019 1323.78 -533.078 0.572637 -0.637649 -0.33374 -0.392567 
2971 2 -358.793 1333.71 -533.343 0.748018 -0.592176 0.2349 0.186062 
2972 2 -358.154 1343.41 -531.918 0.284639 0.0411877 0.487402 0.824454 
2973 2 -354.755 1351.31 -527.141 -0.532408 0.41681 0.0513775 0.734964 
2974 2 -349.521 1356.59 -520.615 -0.831464 0.432741 -0.277787 -0.210327 
2975 2 -346.769 1364.98 -516.12 -0.381206 0.239682 -0.461597 -0.764306 
2991 2 -236.166 1438.46 -518.788 0.195255 -0.783634 0.300963 -0.507163 
2990 2 -245.283 1438.1 -514.648 -0.34425 -0.639974 -0.527022 -0.44065 
2994 2 -275.036 1518.96 -540.033 0.896265 0.187208 -0.270997 -0.297024 
2992 1 -247.436 1481.06 -535.924 0.88269 0.0628545 -0.454483 0.101747 
2995 2 -280.594 1517.14 -531.904 0.83146 -0.195541 -0.215123 0.473456 
2996 2 -285.467 1517.56 -523.37 0.0983554 -0.249755 -0.131293 0.954312 
2997 2 -291.025 1516.78 -515.166 -0.645658 -0.111456 0.272828 0.704464 
2993 3 -275.074 1472.77 -516.236 0.863432 0.130095 -0.473943 0.113746 
3593 2 -689.415 2183.04 -577.512 0.938268 -0.184348 0.0753313 -0.282832 
3594 2 -687.716 2186.99 -568.615 0.732554 0.0496184 0.374628 0.566178 
3595 2 -681.951 2190.29 -561.21 -0.133958 0.0362399 0.157372 0.97774 
3588 2 -694.222 2171.91 -622.19 -0.215401 -0.106677 -0.13805 0.960815 
3586 1 -722.784 2208.44 -631.275 -0.19963 0.00887495 -0.0298345 0.979377 
3587 3 -720.183 2208.65 -596.353 -0.255477 0.108247 -0.0432133 0.959764 
3596 2 -680.616 2194.29 -552.343 -0.829298 0.0663009 -0.117845 0.542201 
3597 2 -677.777 2193.63 -542.836 -0.876076 -0.0670199 0.0888732 -0.469149 
3598 2 -678.684 2190.99 -533.43 -0.190329 -0.170084 0.015118 -0.966756 
3589 2 -694.499 2168.8 -612.801 -0.894517 -0.00482781 0.0430963 0.444925 
3590 2 -695.443 2170.66 -603.139 -0.964238 0.116196 -0.180422 -0.155536 
3592 2 -689.728 2178.17 -586.067 0.446799 -0.107422 -0.212244 -0.862429 
3591 2 -692.003 2173.12 -594.196 -0.421983 0.0804898 -0.292816 -0.854231 
3599 2 -674.589 2190.1 -524.548 0.573597 0.0181154 0.154398 -0.804251 
3600 2 -672.214 2188.41 -515.114 0.954673 0.284755 -0.0340998 -0.0796927 
3634 2 -582.79 2222.01 -588.597 -0.264071 0.884849 -0.192402 -0.332101 
3626 2 -563.381 2152.82 -565.526 -0.508182 0.782585 0.349082 -0.0863341 
3631 2 -576.784 2195.57 -579.122 0.451577 -0.410085 0.63768 0.470397 
3633 2 -579.27 2214.19 -583.444 -0.455377 0.728233 0.504556 0.0879304 
3630 2 -578.776 2185.89 -578.533 0.668962 -0.716338 -0.0246048 -0.196839 
3632 2 -575.842 2205.29 -580.894 -0.262139 0.0329559 0.784398 0.561175 
3627 2 -567.473 2160.2 -570.816 -0.399682 0.743595 -0.346956 -0.408586 
3629 2 -575.671 2176.53 -578.259 0.480935 -0.400339 -0.608479 -0.48804 
3628 2 -570.924 2169.02 -573.772 0.118237 0.219667 -0.828671 -0.501069 
3625 2 -561.241 2148.37 -557.042 -0.126251 0.117774 0.95959 0.222209 
3624 2 -562.288 2143.81 -548.296 0.192884 -0.588754 0.76322 0.183465 
3623 2 -561.945 2136.05 -542.143 0.405048 -0.912511 0.0186525 0.0539556 
3622 2 -561.732 2129.58 -534.646 0.243949 -0.775703 -0.55774 -0.166433 
3621 2 -562.218 2122.91 -527.596 -0.0465775 -0.0261302 -0.931554 -0.35966 
3620 2 -563.682 2117.05 -519.707 -0.29963 0.673192 -0.656881 -0.159818 
3635 2 -588.196 2228.1 -594.128 0.16346 0.498542 -0.717301 -0.458494 
3575 2 -709.384 2256.16 -532.948 -0.255548 0.206743 0.940137 -0.08997 
3576 2 -714.385 2255.71 -541.459 -0.0155247 0.79414 0.49704 -0.34936 
3577 2 -719.4 2251.49 -548.909 0.12353 0.948788 -0.27442 -0.0961054 
3585 2 -752.492 2242.87 -618.553 0.274705 0.2932 -0.915701 0.00786652 
3584 2 -746.942 2244.12 -610.539 0.18604 0.868595 -0.415354 -0.195993 
3583 2 -741.104 2246.78 -603.07 -0.0579415 0.803736 0.501104 -0.31551 
3582 2 -735.259 2249.2 -595.435 -0.322579 0.13939 0.922717 -0.158451 
3581 2 -731.964 2251.05 -586.161 -0.197864 -0.742127 0.638679 0.0467564 
3580 2 -727.981 2250.12 -577.095 0.0618132 -0.952197 -0.182115 0.237349 
3579 2 -724.157 2248.6 -567.974 0.22701 -0.586361 -0.777185 0.0251165 
3578 2 -721.894 2249.1 -558.272 0.0678148 0.241045 -0.967735 0.028068 
3574 2 -709.653 2255.43 -523.011 0.0238472 -0.70863 0.703289 0.0515595 
3693 2 -662.207 2345.51 -547.04 0.114898 0.555227 -0.550867 -0.612428 
3636 2 -595.121 2232.29 -599.792 0.466364 -0.313145 -0.826955 -0.0243106 
3637 2 -602.324 2235.4 -605.851 0.423743 -0.833554 -0.222322 0.276049 
3639 2 -617.227 2246.01 -613.052 -0.502397 -0.0329064 0.793566 0.341711 
3638 2 -609.233 2240.83 -610.411 -0.0336176 -0.645886 0.473946 0.597558 
3692 2 -654.691 2339.76 -544.077 -0.391487 0.770727 0.0219437 -0.502232 
3641 3 -591.49 2248.14 -568.038 0.794948 0.394206 0.461147 0.00173789 
3640 1 -617.514 2270.89 -572.936 0.801617 0.402915 0.439099 0.0475494 
3649 2 -537.938 2260.69 -535.243 0.147574 -0.445397 -0.110496 -0.876147 
3648 2 -547.333 2259.68 -538.329 -0.614171 -0.336775 -0.507373 -0.501945 
3647 2 -556.12 2263.52 -536.158 -0.516227 0.133681 -0.783966 0.317863 
3646 2 -565.581 2266.36 -535.658 -0.00876911 0.655316 -0.277739 0.702386 
3645 2 -574.225 2269.94 -532.297 0.370836 0.748637 0.387184 0.390016 
3644 2 -583.415 2273.2 -530.757 0.643764 0.042845 0.74258 -0.179744 
3643 2 -592.488 2277.06 -530.221 0.286895 -0.469478 0.576141 -0.604436 
3642 2 -600.587 2282.62 -530.4 -0.253715 -0.714453 0.173993 -0.62842 
3650 2 -530.05 2263.2 -529.972 0.650442 -0.458426 0.389553 -0.463701 
3691 2 -646.982 2335.33 -539.791 -0.530771 0.472028 0.700738 -0.066617 
3690 2 -638.972 2330.52 -536.292 -0.371187 -0.227974 0.780256 0.448831 
3689 2 -629.814 2329.53 -532.684 -0.0654698 -0.823135 0.176108 0.535862 
3688 2 -620.422 2327.05 -530.701 0.464962 -0.633413 -0.450422 0.423932 
3687 2 -612.582 2321.9 -527.727 0.533228 -0.12166 -0.801763 -0.240921 
3651 2 -521.29 2266.41 -526.66 0.79761 0.130727 0.452362 0.376958 
3686 2 -603.633 2321.38 -523.571 0.319817 0.629251 -0.515262 -0.486071 
3685 2 -594.294 2320.89 -520.62 -0.228731 0.74019 0.209533 -0.596571 
3684 2 -584.735 2320.44 -518.052 -0.544412 0.248491 0.78918 -0.138067 
3683 2 -575.031 2318.43 -517.485 -0.564583 -0.278197 0.693705 0.350179 
3682 2 -565.288 2316.28 -517.526 0.0447658 -0.672555 0.140708 0.725167 
3652 2 -513.619 2267.97 -520.65 0.150447 0.52278 0.183937 0.818678 
3653 2 -504.956 2269.26 -516.147 -0.653514 0.326867 -0.289655 0.618206 
3706 2 -559.777 2388.04 -520.152 0.434204 -0.539302 0.688541 -0.21571 
3708 2 -544.791 2391.21 -532.056 0.148378 0.766149 0.453589 0.430415 
3705 2 -567.92 2388.16 -514.595 0.0639531 -0.854083 0.167573 -0.488233 
3707 2 -551.982 2390.97 -525.327 0.363963 0.131495 0.920848 0.0477499 
3710 2 -527.966 2396.01 -540.603 -0.70687 0.312579 -0.633583 -0.0346642 
3709 2 -536.692 2392.03 -537.838 -0.427206 0.745114 -0.288924 0.422875 
3711 2 -519.414 2400.8 -539.941 -0.33237 -0.32337 -0.674308 -0.574692 
3731 2 -518.942 2487.97 -517.572 0.893474 0.112939 -0.281268 0.331416 
3712 2 -511.423 2406.4 -541.442 0.274928 -0.685156 0.0339953 -0.673662 
3730 2 -511.675 2488.3 -524.236 0.801075 0.189027 -0.321095 -0.468451 
3729 2 -505.512 2488.81 -532.052 0.0675838 0.290491 0.0129313 -0.954401 
3713 2 -501.82 2408.95 -540.982 0.496873 -0.632406 0.535893 -0.256902 
3714 2 -493.444 2412.84 -544.329 0.737952 0.000275757 0.654818 0.163219 
3715 2 -483.653 2414.52 -543.846 0.326767 0.586227 0.552015 0.494814 
3728 2 -500.613 2492.11 -539.991 -0.746952 0.0456828 0.295129 -0.594032 
3718 2 -455.12 2417.46 -544.797 -0.530086 -0.309711 -0.599081 -0.513994 
3719 2 -445.338 2419.4 -544.329 0.0711219 -0.774787 -0.0664443 -0.624686 
3720 2 -436.064 2421.99 -546.7 0.489171 -0.59102 0.5141 -0.383546 
3717 2 -464.597 2417.34 -547.504 -0.742227 0.234012 -0.544492 0.312836 
3716 2 -474.426 2416.31 -546.595 -0.180972 0.733918 -0.13244 0.64115 
3722 3 -468.717 2461.91 -541.125 -0.874329 0.0430253 0.481135 -0.0469707 
3721 1 -439.446 2467.3 -559.465 -0.854068 -0.0920247 0.511001 -0.0312686 
3727 2 -495.018 2497.26 -546.196 -0.865203 -0.354376 0.224848 0.274382 
3723 2 -461.543 2508.97 -561.573 0.452962 0.450533 0.0768797 -0.765464 
3726 2 -486.541 2500.8 -549.977 -0.20396 -0.606137 -0.0378147 0.767833 
3724 2 -468.249 2504.15 -556.031 0.770061 0.316418 -0.475949 -0.283473 
3725 2 -476.891 2502.44 -551.583 0.534307 -0.317196 -0.57022 0.537356 
3768 2 -564.145 2684.04 -515.296 -0.0770277 0.47188 -0.656916 -0.582972 
3767 2 -562.649 2674.26 -515.009 -0.688219 0.705361 -0.101011 -0.136441 
3766 2 -562.137 2664.28 -514.719 -0.514983 0.54936 0.480684 0.449376 
3834 2 -711.146 2753.84 -517.316 0.751375 -0.341166 0.557425 -0.0912073 
3831 2 -739.619 2748.88 -519.563 -0.684786 -0.110266 -0.714201 -0.093948 
3833 2 -719.827 2749.74 -519.699 0.327131 -0.607969 0.0469721 -0.721909 
3832 2 -729.721 2749.22 -519.918 -0.443519 -0.50778 -0.431298 -0.599527 
3835 2 -702.217 2757.78 -515.591 0.690404 0.233189 0.500251 0.467669 
3774 2 -596.068 2731.28 -529.65 -0.374057 0.815719 -0.189668 -0.398384 
3773 2 -590.763 2724.01 -525.643 -0.540833 0.580116 0.598706 0.111874 
3772 2 -586.124 2715.8 -522.396 -0.229855 -0.0466168 0.805255 0.544572 
3775 1 -566.497 2757.47 -555.33 -0.632289 0.0495032 -0.319 0.704272 
3776 3 -545.653 2743.38 -530.944 -0.650268 0.0922463 -0.363386 0.660751 
3777 2 -523.631 2772.46 -568.14 -0.882006 -0.36319 -0.286267 0.0906076 
3778 2 -519.677 2765.72 -561.926 -0.493936 -0.56644 0.288643 -0.593176 
3771 2 -581.067 2707.52 -520.915 0.195965 -0.583679 0.46264 0.637872 
3770 2 -575.205 2699.85 -519.231 0.614378 -0.737598 -0.176857 0.21728 
3769 2 -568.817 2692.37 -517.598 0.568077 -0.261407 -0.710668 -0.322345 
3779 2 -515.613 2756.84 -560.02 0.230638 -0.115366 0.521157 -0.813568 
3780 2 -510.778 2749.15 -556.148 0.814221 0.428338 0.331781 -0.208546 
3781 2 -507.903 2740.43 -552.733 0.649033 0.300093 -0.150151 0.682755 
3782 2 -505.933 2734.08 -545.412 0.00702098 0.0691067 -0.395438 0.915862 
3783 2 -504.892 2727.98 -537.748 -0.581183 -0.0630497 -0.293036 0.756558 
3784 2 -502.464 2723.1 -529.558 -0.979097 -0.171257 -0.0982332 0.0488986 
3785 2 -500.088 2720 -520.487 -0.764491 -0.132516 0.0186164 -0.630592 
3903 2 -563.145 2879.44 -666.268 -0.534082 0.763319 0.266083 -0.247588 
3902 2 -556.803 2873.48 -661.854 -0.491302 0.172822 0.81772 0.245132 
3901 2 -549.704 2867.72 -657.904 0.0155791 -0.609518 0.528501 0.590704 
3900 2 -541.628 2861.84 -658.477 0.582515 -0.663568 -0.162591 0.440361 
3899 2 -533.038 2857.16 -658.389 0.706341 -0.384119 -0.593836 -0.0298895 
3869 2 -572.417 2863.05 -516.118 0.101342 -0.65365 0.729189 -0.175369 
3870 2 -568.396 2862.6 -525.282 0.373879 0.0765034 0.924317 0.000413168 
3898 2 -524.795 2851.98 -656.91 0.408466 0.258174 -0.722525 -0.494429 
3871 2 -560.612 2861.82 -531.472 0.22567 0.718142 0.590096 0.291773 
3872 2 -553.389 2862.81 -538.233 -0.0569562 0.85244 -0.205324 0.477435 
3911 3 -602.077 2927.2 -648.284 0.912618 0.293203 0.274858 0.0749218 
3912 2 -628.06 2969.17 -632.351 -0.562302 -0.490339 0.0120196 -0.665762 
3913 2 -621.149 2964.35 -627.454 0.152819 -0.545605 0.448994 -0.690917 
3914 2 -612.744 2959.28 -626.727 0.619845 -0.104641 0.733997 -0.257083 
3915 2 -603.459 2956.3 -627.374 0.708191 0.351395 0.45288 0.412174 
3916 2 -594.155 2954.54 -624.296 0.16315 0.645075 -0.129111 0.735248 
3917 2 -584.841 2951.59 -622.238 -0.429548 0.300154 -0.388074 0.758152 
3918 2 -576.381 2948.55 -617.89 -0.879644 -0.107799 -0.429646 0.173232 
3919 2 -569.294 2945.78 -611.535 -0.451873 -0.427524 -0.174494 -0.763273 
3920 2 -561.451 2945.4 -605.492 0.333509 -0.24858 0.114774 -0.902112 
3922 2 -555.271 2942.53 -587.284 0.645686 0.148359 0.19148 0.724165 
3921 2 -556.693 2944.5 -596.903 0.973856 0.0720294 0.0814835 -0.199442 
3923 2 -550.525 2943.61 -578.526 -0.261517 0.369257 0.265815 0.851235 
3924 2 -546.181 2950.66 -573.181 -0.739225 0.483325 -0.401738 0.241969 
3925 2 -538.838 2956.91 -570.786 -0.704572 -0.0570298 -0.551472 -0.44295 
3873 2 -545.273 2862.58 -543.859 -0.418996 0.332204 -0.768752 0.350861 
3874 2 -536.425 2860.73 -547.939 -0.469873 -0.397179 -0.786319 -0.0562997 
3875 2 -528.386 2858.88 -553.27 -0.252076 -0.797481 -0.204544 -0.508569 
3926 2 -530.909 2961.29 -566.641 0.0570127 -0.539526 -0.4281 -0.722767 
3927 2 -524.183 2968.47 -565.802 0.635145 -0.729261 0.191712 -0.167381 
3876 2 -519.779 2858.19 -558.133 0.413385 -0.722176 0.383665 -0.40047 
3928 2 -519.156 2976.85 -566.945 0.529914 -0.535632 0.447131 0.482041 
3897 2 -515.523 2851.06 -653.66 0.0682011 0.801374 -0.185155 -0.564682 
3929 2 -519.291 2986.71 -566.401 -0.244433 -0.013608 0.685167 0.686013 
3885 2 -420.49 2842.08 -604.735 0.389616 -0.172833 -0.903583 0.0431996 
3886 2 -426.776 2842.54 -612.346 0.140579 -0.808055 -0.551863 0.150768 
3887 2 -431.159 2843.63 -621.151 -0.049307 -0.904984 0.326747 0.267974 
3877 2 -510.624 2860.44 -561.304 0.539543 -0.243321 0.802838 0.0716881 
3896 2 -506.308 2854.1 -651.999 -0.288187 0.519326 0.491419 -0.63699 
3888 2 -436.773 2844.76 -629.394 -0.219364 -0.329159 0.86126 0.319006 
3889 2 -442.367 2849.02 -636.433 -0.477916 0.539551 0.6641 -0.198628 
3878 2 -501.612 2863.43 -564.249 0.133823 0.248039 0.649194 0.706481 
3890 2 -450.484 2851.62 -641.63 -0.167869 0.786736 -0.204815 -0.557599 
3891 2 -458.897 2855.86 -644.475 0.536046 0.447261 -0.613306 -0.369417 
3892 2 -468.542 2856.37 -646.062 0.616245 -0.179674 -0.74055 0.19886 
3893 2 -478.04 2854.97 -648.311 0.221502 -0.740082 -0.123533 0.622861 
3895 2 -497.611 2857.16 -648.342 -0.52433 -0.022242 0.841336 -0.129373 
3894 2 -487.893 2855.44 -649.509 -0.438913 -0.489513 0.501635 0.562223 
3879 2 -496.934 2872.12 -564.409 -0.372018 0.752695 0.114574 0.530966 
3884 3 -468.108 2862.01 -600.138 -0.197748 0.672941 0.588209 -0.402561 
3883 1 -444.316 2871.13 -576.239 -0.132321 0.731357 0.566697 -0.355616 
3880 2 -490.576 2879.64 -566.179 -0.66448 0.680739 -0.306937 -0.029174 
3882 2 -482.031 2896.95 -564.289 0.157294 -0.404388 -0.489908 -0.756121 
3881 2 -486.863 2888.73 -566.288 -0.531416 0.130384 -0.611086 -0.571988 
4064 2 -705.631 3104.61 -584.919 -0.56352 -0.677956 -0.121738 -0.456071 
4063 2 -711.93 3111.85 -586.828 -0.788724 -0.33201 -0.49701 0.143752 
4065 2 -698.545 3097.67 -584.349 0.000235531 -0.66235 0.56042 -0.497214 
4062 2 -716.684 3119.47 -590.982 -0.296489 0.127277 -0.570717 0.755101 
4066 2 -692.529 3091.68 -589.592 0.474358 0.0690443 0.830019 -0.285107 
4067 2 -685.739 3085.43 -592.982 0.529935 0.685554 0.470437 0.166954 
4061 2 -721.779 3126.27 -596.093 0.225284 0.437813 -0.287234 0.821623 
4060 2 -727.262 3132.9 -601.089 0.829314 0.481181 0.170965 0.22688 
4059 2 -734.181 3139.26 -604.215 0.64757 0.120618 0.61614 -0.431828 
4058 2 -742.112 3144.24 -607.286 0.235055 -0.379297 0.43388 -0.782707 
3930 2 -521.92 2996.16 -565.865 -0.707599 0.539794 0.432918 0.143205 
3946 2 -534.901 3020.11 -644.49 0.726485 -0.389601 -0.459894 0.330042 
3947 2 -544.194 3022.61 -642.291 0.053717 -0.641053 0.0252442 0.765198 
3948 2 -553.778 3023.89 -640.081 -0.613996 -0.34483 0.49287 0.511058 
3952 2 -582.034 3046.35 -628.595 0.842642 -0.218477 -0.320341 -0.373635 
3951 2 -576.517 3038.63 -631.525 0.168914 0.213355 -0.592109 -0.758521 
3950 2 -570.511 3031.71 -635.545 -0.509175 0.590292 -0.0560547 -0.623822 
3949 2 -563.495 3024.88 -637.732 -0.769427 0.408271 0.489128 0.045294 
3965 3 -561.366 3114.56 -582.272 -0.200197 0.439199 0.874917 -0.0393072 
3964 1 -544.911 3112.32 -551.379 -0.25872 0.443176 0.850026 -0.118807 
3953 2 -586.307 3051.61 -621.354 0.841304 -0.460917 0.0652092 0.274794 
3954 2 -588.63 3059.59 -615.929 0.53176 -0.348058 0.243767 0.732574 
3955 2 -591.144 3067.22 -610.012 -0.207098 -0.0620657 0.394086 0.893283 
3956 2 -593.235 3074.35 -603.603 -0.865439 0.207728 0.196433 0.411435 
3957 2 -595.212 3079.56 -595.438 -0.830037 0.183444 -0.0970074 -0.517665 
3958 2 -596.223 3084.09 -586.667 -0.0555338 0.0731789 -0.232766 -0.968184 
3960 2 -595.693 3092.63 -568.962 0.913666 -0.217477 0.10381 0.327325 
3959 2 -597.288 3088.83 -577.924 0.826786 -0.194803 -0.0248816 -0.527123 
3961 2 -594.694 3096.73 -559.938 0.379474 0.107829 0.131349 0.909462 
3962 2 -592.268 3098.4 -550.52 -0.413944 0.170261 -0.0871558 0.889981 
3963 2 -589.015 3098.63 -541.257 -0.888674 0.0494599 -0.143394 0.432725 
3971 2 -525.496 3141.76 -624.069 -0.171427 0.586965 0.776963 0.14971 
3945 2 -525.522 3022.06 -646.942 0.75352 0.301734 -0.53234 -0.240372 
3970 2 -524.894 3135.25 -616.666 0.0758716 -0.311204 0.898049 0.301504 
3935 2 -529.226 3042.54 -558.27 0.455204 -0.110932 0.556718 0.685966 
3933 2 -530.068 3024.24 -564.059 0.587814 -0.429312 -0.50163 -0.467475 
3932 2 -528.981 3014.53 -564.546 -0.148214 0.17252 -0.674047 -0.702801 
3931 2 -525.974 3005.14 -565.216 -0.621584 0.647517 -0.181453 -0.401783 
3934 2 -531.561 3033.63 -561.451 0.811808 -0.529313 0.224874 0.101125 
3936 2 -525.569 3051.15 -554.802 -0.249738 0.38342 0.407394 0.790348 
3944 2 -517.22 3027.14 -645.569 0.366901 0.783435 0.0200199 -0.501211 
3969 2 -522.882 3132.81 -607.327 0.0679176 -0.951567 0.257865 0.153011 
3938 3 -515.616 3032.08 -602.052 0.175082 -0.314842 -0.749512 0.555385 
3968 2 -519.462 3130.26 -598.308 0.154129 -0.75368 -0.638224 0.0296737 
3967 2 -516.383 3129.69 -588.867 0.172132 0.0409069 -0.98309 -0.0472433 
3966 2 -511.698 3129.54 -580.062 0.134314 0.81174 -0.534522 -0.193193 
3943 2 -509.779 3032.49 -641.917 -0.249657 0.441093 0.672939 -0.538759 
3942 2 -501.098 3036.96 -643.028 -0.68859 -0.172249 0.695589 -0.111043 
3939 2 -475.639 3046.84 -631.785 0.445645 -0.15893 -0.812867 0.33969 
3941 2 -492.612 3041.19 -640.335 -0.46933 -0.729846 0.351098 0.35183 
3940 2 -483.977 3043.31 -635.663 0.121238 -0.780722 -0.380418 0.480684 
3937 1 -494.174 3056.94 -589.562 0.211708 -0.295614 -0.772738 0.520258 
4047 2 -829.733 3198.37 -608.444 0.0965332 0.765541 -0.323306 0.547816 
4048 2 -821.589 3193.5 -611.247 -0.472694 0.276107 -0.721396 0.424162 
4045 1 -814.146 3237.34 -586.828 0.239325 0.656061 -0.224235 0.679725 
4057 2 -749.624 3150.14 -609.959 -0.49796 -0.581153 -0.000525567 -0.643659 
4049 2 -812.329 3190.23 -612.306 -0.649839 -0.423854 -0.60504 -0.178838 
4056 2 -756.114 3156.23 -614.756 -0.843255 -0.329012 -0.416564 0.0845371 
4044 2 -780.464 3263.63 -566.666 0.737118 -0.0474815 -0.548341 -0.392077 
4043 2 -772.704 3259.13 -570.862 0.101474 0.443963 -0.317145 -0.831877 
4042 2 -764.893 3254.26 -574.53 -0.622502 0.505933 0.193626 -0.564829 
4055 2 -762.855 3163.15 -617.292 -0.45793 0.0632617 -0.57494 0.675087 
4054 2 -769.361 3170.66 -616.771 0.170262 0.619465 -0.455955 0.615938 
4053 2 -776.095 3177.86 -615.493 0.603189 0.694111 0.291746 0.263168 
4050 2 -803.442 3185.96 -612.589 -0.152972 -0.637069 -0.189323 -0.731368 
4052 2 -784.809 3182.28 -614.027 0.639384 0.154265 0.730818 -0.182471 
4051 2 -793.53 3186.49 -611.94 0.297027 -0.469974 0.566729 -0.608044 
4039 2 -747.202 3234.15 -586.614 0.350449 -0.419699 0.285791 0.786995 
4038 2 -742.847 3226.68 -591.4 0.797608 -0.547759 -0.182379 0.174699 
4037 2 -735.729 3220.78 -594.941 0.688814 -0.0184321 -0.552899 -0.468506 
4036 2 -730.175 3215.9 -601.734 0.0467867 0.256033 -0.33849 -0.904258 
4035 2 -723.268 3213.23 -608.151 -0.534002 0.420416 0.143423 -0.71939 
4046 3 -787.297 3215 -583.67 0.350564 0.653463 -0.212378 0.636385 
4034 2 -716.136 3211.66 -614.854 -0.921628 0.132893 0.34708 -0.111697 
4033 2 -710.01 3209.95 -622.466 -0.641092 -0.21837 0.270917 0.684046 
4032 2 -704.739 3205.77 -629.843 0.0787515 -0.28728 0.228676 0.926809 
4031 2 -699.81 3203.63 -638.176 0.838467 -0.238996 -0.143955 0.468115 
4030 2 -691.362 3201.59 -642.846 0.787819 0.0712592 -0.517191 -0.326768 
4029 2 -681.87 3199.11 -642.962 0.134777 0.641272 -0.299845 -0.693324 
4040 2 -752.106 3241.73 -582.538 -0.377047 -0.171659 0.450967 0.790568 
4041 2 -758.248 3248.07 -578.109 -0.816239 0.274872 0.472512 0.1869 
4028 2 -672.467 3196.23 -642.403 -0.533671 0.603456 0.43303 -0.404377 
3972 2 -526.759 3146.42 -632.689 -0.277054 0.950309 -0.119213 -0.0770785 
4027 2 -663.403 3192.67 -642.922 -0.736734 0.0976365 0.650597 0.156249 
4010 2 -663.697 3233.8 -617.934 0.00396353 0.118976 -0.0906661 0.988741 
4009 2 -662.077 3235.91 -627.638 0.735182 0.0851528 -0.096213 0.665582 
4011 2 -661.25 3232 -608.536 -0.74493 -0.00432063 -0.104092 0.658958 
3999 2 -607.072 3292.37 -664.841 -0.121856 0.332695 0.604946 -0.713096 
4001 2 -619.76 3277.9 -661.456 0.743247 0.4689 -0.472521 0.0666376 
4002 2 -625.831 3270.06 -661.637 0.538631 0.0714475 -0.68034 0.491843 
4000 2 -612.252 3284.19 -663.268 0.442674 0.640247 0.0557391 -0.625313 
4008 2 -660.905 3237.94 -637.234 0.976176 0.133197 -0.0583477 -0.161043 
4003 2 -632.786 3263.07 -661.435 -0.0188884 -0.565802 -0.46294 0.682054 
4004 2 -640.516 3256.76 -662.017 -0.673326 -0.570195 0.204112 0.424085 
4012 2 -660.403 3230.04 -598.94 -0.976234 -0.0831072 -0.164696 -0.113734 
4013 2 -656.848 3227.98 -589.823 -0.492972 -0.392563 -0.0741658 -0.772899 
3973 2 -528.205 3151.19 -641.215 -0.0362301 0.485646 -0.737369 -0.468105 
4014 2 -650.321 3225.14 -583.082 0.231083 -0.422242 0.278885 -0.830984 
4026 2 -654.043 3190.02 -644.45 -0.379162 -0.497344 0.443256 0.642191 
4016 2 -636.303 3220.29 -570.202 0.762924 0.381852 0.208201 0.478318 
4015 2 -642.631 3221.92 -577.693 0.887612 -0.0347602 0.326132 -0.32338 
4017 2 -629.676 3216.6 -563.828 0.124795 0.389759 -0.117999 0.90476 
4020 2 -619.75 3150.46 -626.788 -0.397728 0.0218687 0.87803 0.265324 
4021 2 -626.165 3155.92 -631.942 -0.373675 0.787847 0.447938 -0.197524 
4025 2 -645.708 3184.68 -645.407 0.37804 -0.698807 0.0421054 0.605791 
4019 3 -631.336 3199.08 -612.585 0.356871 -0.895577 -0.253592 0.0792136 
4024 2 -640.767 3176.17 -644.408 0.67576 -0.568651 -0.464703 -0.0635199 
4022 2 -633.168 3160.17 -637.689 -0.191567 0.746718 -0.477655 -0.421379 
4023 2 -637.393 3166.97 -643.434 0.233723 -0.00878201 -0.730349 -0.641784 
3974 2 -532.662 3158.73 -645.857 0.569167 -0.107501 -0.719945 -0.382324 
3975 2 -539.303 3166.09 -645.649 0.68601 -0.686884 -0.223458 0.0874532 
3976 2 -543.766 3174.96 -645.42 0.414573 -0.47427 0.466354 0.621057 
4007 2 -659.071 3240.4 -646.741 0.529539 0.143809 0.0590662 -0.833918 
4005 2 -647.661 3250.97 -658.594 -0.770849 -0.306652 0.47708 -0.290086 
4006 2 -653.635 3244.66 -653.84 -0.272263 0.207642 0.295471 -0.891883 
4018 1 -620.585 3176.98 -587.772 0.375673 -0.870974 -0.294216 0.117098 
3977 2 -545.661 3184.69 -643.967 -0.283151 0.111047 0.630665 0.713972 
3978 2 -548.065 3194.12 -642.469 -0.841151 0.441627 0.2562 0.178305 
3979 2 -550.694 3202.67 -638.065 -0.685962 0.465666 -0.264336 -0.492683 
3980 2 -551.045 3211.07 -632.804 -0.157483 0.141766 -0.458276 -0.863183 
3981 2 -552.397 3219.69 -628.225 0.641366 -0.327415 -0.382503 -0.578913 
3982 2 -552.997 3227.79 -622.616 0.883777 -0.450286 0.0503209 0.116826 
3983 2 -554.163 3235.66 -616.601 0.472311 -0.344586 0.462917 0.666251 
3984 2 -554.441 3245.04 -613.72 -0.310646 0.0725518 0.408523 0.855187 
3985 2 -555.363 3253.33 -608.349 -0.841648 0.425592 0.213468 0.254816 
3986 2 -556.212 3261.73 -603.302 -0.723489 0.384738 -0.172086 -0.546742 
3987 2 -557.904 3269.67 -597.507 -0.164037 0.168751 -0.446018 -0.863529 
3988 2 -559.118 3277.23 -591.28 0.597619 -0.17488 -0.357217 -0.696178 
3989 2 -561.006 3284.09 -584.31 0.868842 -0.487728 -0.0472149 -0.0707541 
3990 2 -560.134 3292.73 -579.511 0.60335 -0.316632 0.380667 0.625145 
3992 3 -576.581 3291.66 -628.899 -0.266656 -0.0597266 0.793221 -0.544177 
3993 2 -573.606 3331.73 -661.654 0.442731 0.813999 0.323489 -0.191705 
3991 1 -562.205 3321.2 -617.005 -0.296167 -0.065731 0.787645 -0.536265 
2533 1 -189.733 621.153 -400.452 -0.265195 0.183831 -0.653761 -0.684452 
2532 2 -174.298 634.143 -443.124 0.165074 0.165671 -0.863697 0.446465 
2531 2 -172.854 641.99 -437.211 0.437289 0.776025 -0.430807 0.144806 
2534 3 -184.649 655.66 -397.127 -0.216435 0.179207 -0.701122 -0.655338 
2528 2 -163.201 662.674 -419.273 -0.371103 -0.684997 0.622102 -0.0777913 
2527 2 -157.861 668.225 -412.997 -0.283336 -0.903295 -0.093932 0.308149 
2530 2 -170.625 650.334 -432.7 0.441489 0.782607 0.338525 -0.279312 
2529 2 -167.91 657.495 -426.367 -0.0341106 0.134104 0.892796 -0.428681 
2523 2 -135.383 697.061 -399.713 0.14514 0.706721 0.335108 -0.605956 
2524 2 -142.592 690.521 -401.357 0.546398 0.775996 -0.24642 -0.196358 
2525 2 -148.086 683.133 -404.967 0.351318 0.1952 -0.838741 0.367405 
2526 2 -151.812 674.932 -409.073 -0.0787543 -0.560643 -0.638769 0.521009 
2542 2 -195.88 689.944 -378.271 0.079417 0.00246458 0.90644 0.414793 
2543 2 -194.75 696.88 -385.219 -0.148838 0.688884 0.639996 0.306091 
2541 2 -198.949 683.928 -370.91 0.318124 -0.730425 0.600281 0.0702787 
2516 2 -81.169 700.381 -371.17 -0.391937 0.656547 0.62717 -0.148283 
2540 2 -200.324 677.826 -363.18 0.328317 -0.934294 -0.0766553 -0.115871 
2522 2 -126.992 702.386 -399.775 -0.431276 0.211895 0.668391 -0.567763 
2517 2 -87.6945 704.29 -377.563 -0.10827 0.85186 -0.239247 -0.453181 
2515 2 -78.0529 695.333 -363.229 -0.20058 -0.110387 0.932693 0.278687 
2544 2 -193.286 702.534 -393.199 -0.287832 0.946141 -0.126824 -0.0767191 
2559 2 -293.233 707.933 -459.203 0.669497 0.5378 -0.506579 -0.0769572 
2558 2 -285.561 714.065 -458.276 0.256697 0.70782 0.218037 -0.620932 
2557 2 -276.581 717.904 -456.74 -0.441998 0.37178 0.625397 -0.524686 
2556 2 -267.603 721.421 -454.753 -0.60887 -0.297128 0.734143 0.045003 
2555 2 -259.763 726.115 -451.057 -0.382195 -0.805399 0.168237 0.420661 
2554 2 -250.256 727.584 -448.518 0.229525 -0.700228 -0.427645 0.523563 
2561 3 -290.24 748.277 -426.853 -0.667825 0.0505596 -0.669667 -0.320936 
2553 2 -240.31 727.519 -448.556 0.664634 -0.103145 -0.736922 0.0675934 
2552 2 -230.758 728.957 -446.465 0.475215 0.639608 -0.462953 -0.388262 
2560 1 -320.47 730.687 -427.987 -0.625531 0.0186458 -0.718084 -0.304498 
2551 2 -222.05 729.905 -441.943 -0.00715682 0.855294 0.0463682 -0.516015 
2568 2 -294.345 810.058 -397.03 -0.0956734 0.237601 0.595738 0.761242 
2562 2 -329.691 766.078 -398.135 -0.447084 0.658536 0.0322671 0.604488 
2567 2 -296.547 800.497 -396.579 0.447767 -0.369653 0.63189 0.513397 
2565 2 -306.25 783.547 -399.761 0.285837 -0.535355 -0.3938 -0.690372 
2566 2 -301.063 791.78 -397.815 0.725553 -0.645255 0.178804 -0.158899 
2563 2 -321.965 772.248 -397.331 -0.640619 0.512882 -0.567792 0.0645812 
2564 2 -314.979 779.04 -398.923 -0.464032 -0.226441 -0.677745 -0.523507 
2569 2 -292.598 819.683 -395.95 -0.55631 0.631473 0.175318 0.510905 
2570 2 -288.827 828.7 -394.606 -0.663324 0.643799 -0.377392 -0.0556799 
2571 2 -285.742 838.065 -395.489 -0.358404 0.164292 -0.766092 -0.5076 
2572 2 -281.743 847.056 -396.711 0.0518855 -0.513482 -0.491213 -0.701679 
2550 2 -213.535 728.874 -437.232 -0.465471 0.468389 0.727573 -0.185974 
2573 2 -275.598 854.831 -396.972 0.627916 -0.734244 -0.063638 -0.250117 
2521 2 -118.873 708.093 -399.284 -0.674877 -0.464453 0.573407 0.00531614 
2518 2 -95.2313 708.411 -382.34 0.35601 0.286156 -0.879455 -0.133904 
2545 2 -194.291 708.705 -400.908 -0.229469 0.565415 -0.731292 -0.304733 
2520 2 -110.244 710.179 -394.925 -0.0499869 -0.835628 -0.0736178 0.54204 
2519 2 -102.267 709.13 -389.135 0.443092 -0.484081 -0.725067 0.208835 
2549 2 -205.212 725.831 -433.03 -0.406667 -0.29033 0.813583 0.297343 
2548 2 -199.375 723.22 -425.527 0.0794926 -0.887314 0.262777 0.370543 
2547 2 -197.283 717.827 -417.407 0.377808 -0.816266 -0.435211 -0.0395211 
2546 2 -194.688 715.383 -408.162 0.117394 -0.187994 -0.970744 -0.09237 
2505 2 1.88131 741.383 -376.359 -0.14877 0.705924 -0.609122 0.329407 
2504 2 -5.41543 743.06 -369.783 0.137736 0.917154 0.0602808 0.369084 
2503 2 -13.2344 748.219 -366.757 0.606228 0.530464 0.587405 0.0777894 
2502 2 -20.2806 754.945 -365.211 0.531652 0.0375707 0.719638 -0.445036 
2584 2 -252.316 952.112 -417.604 -0.591275 0.800196 0.0933971 -0.036833 
2583 2 -251.807 943.66 -412.547 -0.359215 0.529872 0.674494 0.367774 
2585 2 -253.875 961.276 -420.862 -0.432412 0.638603 -0.460773 -0.439197 
2586 2 -255.956 970.713 -423.2 0.116415 0.0271672 -0.769917 -0.626847 
2582 2 -249.668 934.801 -408.354 0.0551596 -0.24348 0.816498 0.520583 
2581 2 -247.086 925.274 -407.454 0.571179 -0.693201 0.242897 0.36637 
2580 2 -248.98 915.72 -408.741 0.667435 -0.640581 -0.160678 -0.344049 
2588 3 -305.008 963.919 -407.553 0.739653 0.327561 -0.261937 0.526314 
2579 2 -250.726 906.01 -408.173 0.159906 -0.314447 -0.659633 -0.663655 
2578 2 -254.476 897.159 -405.688 -0.369077 0.269629 -0.739498 -0.494191 
2577 2 -256.821 888.48 -401.68 -0.546898 0.794602 -0.26311 -0.0168305 
2574 2 -272.273 864.073 -398.251 0.650079 -0.400293 0.586566 0.270376 
2591 2 -347.29 982.885 -406.772 -0.823759 -0.476264 0.113191 -0.285976 
2592 2 -346.251 974.911 -401.077 -0.333908 -0.0863436 0.475044 -0.809558 
2593 2 -346.859 967.012 -395.063 0.435307 0.294815 0.497816 -0.689762 