ITEM: TIMESTEP
100000000
ITEM: NUMBER OF ATOMS
4067
ITEM: BOX BOUNDS pp pp pp
-4.6310929470000001e+03 4.6704658980000004e+03
-4.6310929470000001e+03 4.6704658980000004e+03
-4.6310929470000001e+03 4.6704658980000004e+03
ITEM: ATOMS id type x y z c_q[1] c_q[2] c_q[3] c_q[4] 
3469 2 -521.685 2197.52 -531.664 0.901789 0.079506 -0.0665029 0.419562 
3470 2 -522.902 2195.36 -522.134 0.151845 0.0994996 -0.249242 0.951273 
3468 2 -521.752 2197.17 -541.567 0.82675 0.0206222 -0.0277355 -0.561507 
3467 2 -520.229 2197.23 -551.299 0.210409 0.0849287 0.0435926 -0.972941 
3466 2 -520.262 2196.09 -561.137 -0.726161 0.038789 -0.104238 -0.678469 
3465 2 -515.518 2191.42 -568.413 -0.929225 0.254866 0.264635 -0.0394043 
3451 1 -460.006 2218.86 -664.222 -0.112872 0.149829 0.119432 -0.97496 
3453 2 -451.707 2172.67 -659.527 0.0247066 0.296281 0.18365 -0.936952 
3464 2 -510.259 2188.52 -576.205 -0.691381 -0.0590776 0.257841 0.672325 
3463 2 -504.931 2182.27 -581.67 0.144619 -0.387076 0.251834 0.875121 
3462 2 -499.536 2176.79 -587.596 0.818804 -0.42376 -0.205021 0.328564 
3461 2 -493.859 2172.1 -594.246 0.861727 -0.130339 -0.383816 -0.305163 
3460 2 -488.532 2170.27 -602.478 0.319696 0.191824 -0.140835 -0.91715 
3459 2 -481.528 2169.62 -609.398 -0.522904 0.333416 0.179701 -0.763618 
3454 2 -456.541 2169.25 -651.77 0.772587 0.250276 -0.137862 -0.566979 
3455 2 -462.219 2168.22 -643.739 0.923539 -0.0249627 -0.219338 0.313599 
3456 2 -466.63 2167.21 -634.916 0.241823 -0.212613 0.00857929 0.946702 
3458 2 -475.911 2169.57 -617.529 -0.954587 0.0909126 0.281702 -0.033812 
3457 2 -471.148 2168.37 -626.176 -0.58997 -0.171881 0.207414 0.761165 
3452 3 -471.804 2211.88 -632.099 0.00353276 0.143758 0.105802 -0.983935 
3507 2 -673.317 2267.22 -571.552 -0.845764 0.344835 0.127425 0.386698 
3508 2 -672.676 2274.63 -565.021 -0.885268 0.336218 -0.168734 -0.273472 
3509 2 -673.011 2282.2 -558.73 -0.183188 -0.0108474 -0.419866 -0.88884 
3510 2 -671.675 2289.58 -552.152 0.499737 -0.497098 -0.1182 -0.699417 
3511 2 -666.458 2295.71 -546.55 0.921964 -0.297993 0.237259 -0.0699303 
3512 2 -661.482 2300.63 -539.395 0.528954 -0.133556 0.429584 0.719603 
3505 1 -659.282 2293.2 -608.279 0.389823 0.129112 0.375308 0.83097 
3506 3 -641.229 2306.84 -581.658 0.338438 0.132688 0.349011 0.863739 
3504 2 -634.811 2328.04 -628.6 0.247851 0.826358 -0.498113 0.0870992 
3503 2 -633.36 2332.33 -619.834 0.171084 0.878794 0.416524 -0.157985 
3502 2 -627.319 2336.87 -613.535 -0.206311 0.317074 0.844474 -0.379161 
3501 2 -621.618 2339.26 -605.706 -0.302748 -0.330713 0.893083 0.037088 
3500 2 -613.562 2338.18 -600.052 -0.117992 -0.832335 0.246464 0.482237 
3499 2 -607.6 2332.38 -594.736 0.497628 -0.711884 -0.48226 0.114074 
3498 2 -602.353 2327.61 -588.01 0.342688 -0.205907 -0.88528 -0.237586 
3497 2 -601.418 2321.03 -580.453 -0.21978 0.541205 -0.760566 -0.283431 
3496 2 -600.326 2313.87 -573.578 -0.400217 0.910192 -0.0135661 -0.105796 
3495 2 -598.753 2308.39 -565.524 -0.251069 0.693252 0.665103 0.118338 
3494 2 -599.835 2302.82 -557.407 0.0858715 -0.134352 0.950599 0.26634 
3493 2 -601.195 2296.73 -549.558 0.328449 -0.786985 0.504549 0.134932 
3492 2 -603.507 2292.81 -540.87 0.168673 -0.966844 -0.0837105 -0.172497 
3491 2 -605.216 2288.06 -532.408 0.0540816 -0.51118 -0.823544 -0.239888 
3490 2 -606.363 2281.83 -524.898 -0.191959 0.335416 -0.869835 -0.30665 
3489 2 -602.864 2275.82 -517.806 -0.24241 0.909754 -0.237116 -0.239501 
3513 2 -658.312 2308.29 -533.912 -0.2256 0.374802 0.254337 0.86252 
3514 2 -653.663 2314.4 -527.573 -0.85149 0.447889 -0.0469811 0.268612 
3515 2 -650.409 2321.69 -521.539 -0.652465 0.20673 -0.298773 -0.665046 
3516 2 -648.966 2328.33 -514.514 0.195551 -0.112094 -0.481766 -0.846815 
3441 2 -474.764 2235.31 -567.047 -0.0956952 -0.498991 -0.858115 -0.0740869 
3440 2 -474.242 2234.55 -557.215 0.00605522 0.217328 -0.974237 -0.0599547 
3439 2 -476.875 2233.39 -547.894 -0.0968434 0.966589 -0.180902 0.153628 
3442 2 -473.351 2236.19 -576.858 -0.00929854 -0.999181 0.00380301 0.0391903 
3443 2 -472.456 2236.17 -586.729 0.0415195 -0.554501 0.804205 0.209904 
3444 2 -473.936 2239.21 -595.969 -0.189122 0.338209 0.903506 0.183097 
3445 2 -475.409 2244.68 -604.09 -0.0271256 0.936544 0.348682 0.0238625 
3438 2 -480.637 2235.49 -538.889 0.187204 0.755994 0.616952 0.113129 
3446 2 -476.186 2245.88 -613.987 -0.0223645 0.869926 -0.49246 0.0145363 
3447 2 -475.915 2246.47 -623.913 0.0311885 0.0528935 -0.991976 -0.11051 
3448 2 -477.225 2249.37 -633.25 0.126425 -0.702112 -0.589782 -0.378435 
3449 2 -473.491 2255.55 -640.135 0.337444 -0.917289 0.188706 -0.0954071 
3450 2 -470.873 2261.61 -647.41 0.20196 -0.232015 0.911674 0.272454 
3437 2 -484.746 2237.59 -530.268 0.217267 -0.0642287 0.968428 -0.104002 
3436 2 -486.984 2242.39 -521.897 -0.0900788 -0.772999 0.565418 -0.273241 
3435 2 -492.679 2245.41 -514.538 -0.303857 -0.833393 -0.414058 -0.204164 
3586 1 -748.606 2505.65 -561.429 0.890004 0.194609 0.386049 -0.144866 
3587 3 -723.267 2491.06 -542.127 0.87167 0.149801 0.450711 -0.120871 
3585 2 -747.784 2461.05 -576.826 0.299862 -0.859671 -0.0739006 0.406925 
3584 2 -740.459 2457.04 -571.527 0.496258 -0.493115 -0.714498 -0.00767119 
3583 2 -736.93 2453.35 -563.039 0.110679 0.305937 -0.910829 -0.254055 
3582 2 -734.939 2451.55 -553.565 -0.0541419 0.895745 -0.412979 -0.15543 
3581 2 -732.224 2451.21 -544.077 -0.0384694 0.866662 0.484205 -0.113857 
3580 2 -728.138 2449.74 -534.983 -0.242541 0.0304893 0.968217 0.0529211 
3579 2 -719.789 2447.5 -530.227 -0.177029 -0.64796 0.57407 0.468243 
3578 2 -710.882 2448 -526.088 0.203685 -0.759686 -0.326897 0.523954 
3577 2 -702.018 2450.71 -522.404 0.538612 -0.172511 -0.779788 0.268452 
3592 2 -703.844 2527.14 -516.976 -0.738574 -0.20213 -0.374279 -0.523036 
3591 2 -710.876 2528.89 -523.681 -0.853065 0.0804815 -0.333638 0.39305 
3576 2 -694.257 2454.24 -517.44 0.462695 0.644261 -0.591493 -0.144835 
3590 2 -717.801 2533.65 -528.746 -0.114364 0.398879 -0.334644 0.846067 
3589 2 -726.314 2537.47 -532.074 0.479863 0.56352 0.128451 0.660059 
3588 2 -735.892 2540.22 -531.86 0.706191 0.277656 0.645361 0.0878068 
3829 1 -740.865 2775.22 -595.303 -0.419826 0.291972 0.154691 0.845322 
3836 2 -695.749 2764.67 -547.415 0.445267 -0.324435 0.275347 0.787821 
3837 2 -698.385 2771.43 -540.776 -0.513653 0.003591 0.299117 0.804162 
3830 3 -725.13 2792.09 -568.909 -0.315973 0.326452 0.153308 0.877546 
3838 2 -701.11 2776.81 -533.024 -0.888955 0.391505 0.137634 -0.19375 
3839 2 -705.439 2782.48 -526.202 -0.486484 0.29881 -0.347857 -0.743667 
3835 2 -695.017 2760.92 -556.464 0.971254 -0.163348 0.0285419 0.170786 
3833 2 -696.764 2760.45 -575.608 -0.282277 -0.143378 -0.00180453 -0.948556 
3834 2 -694.03 2759.51 -566.179 0.741459 -0.043856 -0.0979504 -0.66236 
3832 2 -697.666 2758.48 -585.249 -0.846163 0.0570092 -0.093895 -0.521481 
3831 2 -697.453 2756.69 -595.01 -0.973868 0.0335268 0.0195133 0.223775 
3826 2 -764.241 2818.79 -574.259 0.00834775 0.427754 0.632402 -0.645774 
3827 2 -769.963 2811.43 -577.162 0.423435 0.698029 0.239201 -0.525586 
3828 2 -775.071 2802.87 -578.253 0.677775 0.636659 -0.367158 -0.0219412 
3825 2 -755.708 2823.7 -573.806 -0.63748 -0.000720704 0.708248 -0.303321 
3824 2 -747.056 2828.66 -573.33 -0.599477 -0.666149 0.25128 0.365693 
3840 2 -707.209 2790.54 -520.591 0.460126 -0.124254 -0.588317 -0.653245 
3823 2 -738.814 2833.75 -571.759 0.0688144 -0.667611 -0.430377 0.603602 
3841 2 -711.104 2799.34 -518.091 0.859606 -0.453739 -0.232381 -0.0346092 
3822 2 -732.85 2839.99 -566.63 0.383961 0.187749 -0.856654 0.288909 
3821 2 -727.505 2845.62 -560.305 0.414987 0.786204 -0.440262 -0.125848 
3820 2 -724.841 2853.04 -554.26 0.353514 0.819017 0.367288 -0.263322 
3819 2 -721.914 2861.08 -549.426 0.0108886 0.336707 0.766878 -0.546268 
3789 2 -680.677 2923.04 -562.503 -0.390803 0.446786 0.218959 -0.774411 
3790 2 -689.091 2923.08 -557.276 0.27705 0.346953 -0.381647 -0.810686 
3791 2 -697.223 2927.5 -553.943 0.748933 -0.0648282 -0.433065 -0.497345 
3818 2 -719.244 2868.25 -543.083 -0.29365 -0.37223 0.820709 -0.318828 
3817 2 -717.682 2871.86 -534.052 -0.16818 -0.945678 0.271711 0.0598533 
3792 2 -703.39 2931.6 -547.484 0.83953 -0.410468 -0.161644 0.317139 
3793 2 -708.254 2937.56 -541.41 0.264173 -0.433343 0.0808709 0.857838 
3794 2 -714.824 2941 -534.84 -0.492347 -0.162116 0.264617 0.813198 
3795 2 -719.598 2944.46 -526.818 -0.928605 0.105144 0.354014 0.0362172 
3796 2 -726.264 2946.54 -519.869 -0.474736 0.524868 0.12354 -0.695613 
3788 2 -672.018 2926.88 -565.439 -0.67721 0.0467643 0.606478 -0.413985 
3816 2 -716.918 2875.06 -524.769 -0.0786308 -0.807163 -0.570681 0.128949 
3797 2 -734.545 2949.23 -515.167 0.120761 0.4667 -0.378531 -0.790141 
3815 2 -714.65 2881.47 -517.673 0.0927308 -0.0367094 -0.940393 0.325136 
3787 2 -663.341 2928.18 -570.134 -0.786035 -0.32876 0.415377 0.318635 
3786 2 -653.653 2928.13 -572.861 -0.0949212 -0.612995 0.101497 0.77777 
3785 2 -644.132 2926.01 -575.151 0.612669 -0.492493 -0.402174 0.469407 
3784 2 -634.72 2925.45 -577.685 0.751369 0.184394 -0.593164 -0.222709 
3783 2 -625.295 2927.99 -579.737 0.247083 0.614276 -0.0181072 -0.749191 
3782 2 -616.262 2929.74 -583.768 -0.502808 0.391 0.401985 -0.657808 
3781 2 -608.488 2932.3 -589.362 -0.892643 -0.114637 0.434007 -0.0410465 
3780 2 -601.285 2938.02 -592.81 -0.597732 -0.543772 0.0830233 0.583212 
3779 2 -594.661 2944.83 -595.718 0.0320014 -0.344119 -0.483085 0.804479 
3776 3 -602.651 2950.76 -551.661 -0.24216 -0.0208499 0.650258 -0.719784 
3778 2 -588.508 2951.7 -599.494 0.688839 0.156568 -0.511819 0.488905 
3777 2 -584.948 2960.89 -599.368 0.64776 0.712415 0.00521986 -0.269899 
3775 1 -591.352 2983.21 -558.341 -0.205658 0.0868723 0.648597 -0.727653 
3770 2 -604.977 2948.01 -518.419 0.66332 -0.664672 -0.29 -0.184709 
3771 2 -606.37 2957.66 -519.039 0.608069 -0.603496 0.321351 0.403457 
3772 2 -607.807 2967.39 -518.494 0.0458466 -0.100775 0.605412 0.788174 
3773 2 -607.991 2976.76 -515.198 -0.349517 0.511518 0.353417 0.700916 
3767 2 -613.564 2920.35 -515.425 -0.522918 0.778923 -0.334298 -0.0898887 
3768 2 -611.29 2929.36 -518.604 -0.526859 0.242782 -0.612461 -0.536999 
3769 2 -607.55 2938.54 -518.391 0.0923584 -0.304967 -0.657178 -0.683068 
2884 1 -376.263 1212.75 -398.793 0.549476 0.098018 0.00212429 0.829737 
2886 2 -408.245 1184.36 -379.071 -0.378994 0.221531 -0.126712 0.889512 
2887 2 -404.247 1184.11 -370.059 -0.964187 0.158821 -0.106872 0.183567 
2885 3 -368.511 1214.65 -364.674 0.517556 0.0707972 -0.00272429 0.852711 
2883 2 -341.868 1245.1 -397.247 0.131492 0.527384 -0.832471 -0.107559 
2882 2 -337.995 1245.55 -388.111 -0.0223195 0.972204 0.0883753 -0.215666 
2881 2 -335.155 1245.55 -378.675 -0.111162 0.505838 0.852931 -0.0654263 
2880 2 -331.43 1240.49 -371.049 -0.079083 -0.335932 0.89619 0.278817 
2879 2 -329.61 1235.39 -362.867 0.186563 -0.913974 0.328375 0.148378 
3205 2 -580.797 1754.78 -364.19 -0.191002 0.443259 -0.00971352 -0.875754 
3204 2 -572.066 1752.68 -368.482 -0.733264 0.321891 0.413255 -0.433509 
3203 2 -563.679 1749.99 -372.865 -0.738388 -0.119475 0.504114 0.431715 
3202 2 -554.051 1747.76 -372.112 0.0592729 -0.751968 0.119974 0.645475 
3201 2 -544.813 1744.55 -371.408 0.609119 -0.539968 -0.49624 0.301918 
3200 2 -535.721 1740.76 -370.806 0.589217 0.0856255 -0.730009 -0.335528 
3199 2 -527.994 1734.88 -368.761 0.0119521 0.58996 -0.48948 -0.642039 
3198 2 -520.656 1728.9 -366.15 -0.441904 0.793473 0.101061 -0.406089 
3197 2 -513.718 1722.86 -362.747 -0.555246 0.410535 0.71059 0.135 
3196 2 -507.202 1715.43 -362.011 -0.408155 -0.114113 0.746772 0.512561 
3261 2 -419.741 1731.55 -490.33 -0.0923503 0.93842 -0.317997 -0.0985802 
3260 2 -418.286 1729.24 -480.869 -0.133654 0.783845 0.606043 0.0208834 
3259 2 -422.501 1727.85 -472.067 0.221446 0.0764308 0.967527 0.0949333 
3258 2 -425.275 1726.87 -462.591 0.127576 -0.716908 0.683848 -0.0460378 
3257 2 -427.309 1726.13 -452.871 -0.0293913 -0.989507 -0.103607 -0.0963166 
3256 2 -428.814 1725.9 -443.059 -0.103141 -0.43114 -0.895917 -0.0284986 
3255 2 -432.282 1724.31 -433.907 -0.201464 0.4165 -0.886533 0.000138017 
3254 2 -436.018 1725.79 -424.844 -0.000580811 0.953538 -0.223798 0.201689 
3253 2 -438.288 1725.83 -415.182 0.0397378 0.899374 0.414039 0.134608 
3252 2 -442.481 1727.02 -406.336 0.182784 0.287253 0.939916 0.0251759 
3251 2 -445.231 1728.09 -396.969 0.0605622 -0.553187 0.825688 -0.0924991 
3250 2 -445.7 1729.08 -387.133 -0.0181487 -0.971538 0.234357 -0.029347 
3249 2 -441.256 1731.37 -378.665 0.104383 -0.633179 -0.729538 0.236564 
3248 2 -437.091 1735.85 -370.823 0.240037 0.0961513 -0.939197 0.225934 
3221 2 -461.42 1765.1 -371.356 0.217405 -0.763562 0.525392 -0.306056 
3247 2 -433.458 1739.5 -362.273 0.242511 0.768241 -0.588108 -0.0715759 
3222 2 -454.796 1764.81 -378.867 0.387468 -0.188435 0.895851 -0.108682 
3223 2 -447.856 1764.4 -385.866 0.138998 0.473874 0.740474 0.455874 
3224 2 -441.259 1769.66 -391.061 -0.259719 0.838784 0.209342 0.430306 
3220 2 -469.008 1765.3 -365.164 -0.110198 -0.861932 -0.229965 -0.43823 
3263 3 -431.634 1771.71 -459.747 0.992387 -0.0302962 0.117435 0.0214199 
3193 2 -488.008 1693.39 -362.076 0.76442 -0.4301 -0.460949 -0.134913 
3190 2 -464.818 1675.17 -361.954 -0.78118 0.405268 0.468966 -0.0747418 
3189 2 -457.277 1668.82 -363.115 -0.519776 0.0352447 0.684361 0.510138 
3262 1 -439.21 1774.4 -493.77 0.990568 -0.0853187 0.106853 0.00889494 
3225 2 -434.433 1775.32 -395.674 -0.649015 0.625997 -0.41927 0.105453 
3226 2 -426.942 1781.56 -397.226 -0.62122 0.0186021 -0.630493 -0.464993 
3227 2 -419.103 1787.39 -395.652 0.143658 -0.433875 -0.25669 -0.851601 
3228 2 -411.989 1793.39 -392.273 0.714571 -0.56846 0.198645 -0.356065 
3229 2 -405.665 1800.59 -390.093 0.640935 0.0579654 0.678827 0.353604 
3230 2 -396.92 1805.18 -389.525 0.188013 0.529879 0.432458 0.704883 
3231 2 -387.783 1808.97 -389.479 -0.260508 0.628351 -0.261632 0.684733 
3264 2 -457.277 1813.95 -475.647 -0.791488 0.389879 -0.246728 0.400833 
3274 2 -374.232 1829.59 -428.687 0.677269 -0.266964 0.426168 -0.537046 
3273 2 -382.474 1828.09 -433.773 -0.0185035 -0.428121 0.000879285 -0.903532 
3275 2 -365.522 1829.07 -424.038 0.657754 0.00454551 0.735427 0.162744 
3272 2 -389.834 1826.5 -440.281 -0.620324 -0.261848 -0.359999 -0.645782 
3265 2 -450.515 1817.59 -469.307 -0.760144 -0.152217 -0.544471 -0.320254 
3266 2 -441.353 1818.7 -465.532 -0.170197 -0.611474 -0.121316 -0.763161 
3267 2 -432.049 1818.67 -462.413 0.554652 -0.417019 0.362826 -0.621943 
3271 2 -396.649 1823.79 -446.825 -0.904146 0.20243 -0.366416 0.085337 
3270 2 -404.646 1821.64 -452.309 -0.414666 0.438894 -0.127928 0.786802 
3269 2 -413.803 1819.64 -455.576 0.383157 0.436704 0.356809 0.731552 
3268 2 -423.098 1818.4 -458.271 0.783167 0.00737739 0.60898 0.125454 
3232 2 -377.849 1808.99 -388.489 -0.718321 0.216207 -0.628852 0.204484 
3233 2 -368.27 1810.72 -386.691 -0.448022 -0.490415 -0.566047 -0.488221 
3276 2 -355.837 1831.09 -424.322 0.114909 0.352977 0.473674 0.798646 
3277 2 -349.737 1838.47 -422.643 -0.549526 0.489397 -0.0150727 0.676968 
3278 2 -342.951 1844.05 -417.925 -0.841182 0.299292 -0.448121 -0.0449849 
3279 2 -335.507 1849.55 -414.368 -0.466308 -0.219838 -0.451974 -0.727975 
3234 2 -358.607 1811.49 -388.565 0.10877 -0.762893 0.0450236 -0.635717 
3280 2 -328.619 1853.92 -408.791 0.192474 -0.5099 0.0844239 -0.834163 
3288 2 -256.453 1837.12 -402.881 0.2316 -0.598768 0.325166 -0.694338 
3282 2 -310.867 1856.39 -401.388 0.701281 0.174635 0.688191 0.0640436 
3283 2 -301.094 1854.89 -401.266 0.578644 0.608279 0.174827 0.514396 
3284 2 -292.644 1849.54 -400.402 0.0261269 0.612706 -0.406973 0.676965 
3281 2 -320.491 1855.43 -403.445 0.61616 -0.400563 0.530497 -0.422457 
3285 2 -285.414 1842.73 -401.066 -0.501659 0.28639 -0.707144 0.407757 
3286 2 -276.149 1839.87 -403.123 -0.61913 -0.320269 -0.690918 -0.191673 
3287 2 -266.162 1838.84 -403.497 -0.284794 -0.660901 -0.148436 -0.678284 
3289 1 -254.253 1848.59 -448.62 -0.832301 0.399845 0.373593 -0.0884726 
3290 3 -277.353 1871.4 -435.634 -0.806347 0.465399 0.364682 0.0146878 
3294 2 -267.187 1901.02 -470.611 -0.480049 -0.0417342 0.275918 0.831674 
3293 2 -263.855 1893.22 -475.834 0.419384 -0.37718 0.282872 0.775781 
3292 2 -264.882 1885.51 -481.889 0.887184 -0.453273 0.0701335 -0.0502819 
3291 2 -263.32 1876.46 -485.584 0.563178 -0.258856 -0.530538 -0.578233 
3295 2 -271 1905.84 -462.979 -0.915072 0.28011 0.279654 0.0773022 
3296 2 -274.98 1911.38 -455.835 -0.583473 0.426797 -0.0949389 -0.684391 
3297 2 -279.734 1917.27 -449.551 0.105613 0.222272 -0.431239 -0.868029 
3298 2 -285.055 1923.76 -444.146 0.79031 -0.0943231 -0.42247 -0.433627 
3396 2 -410.011 2072.58 -409.168 -0.14679 -0.408079 -0.835704 0.336932 
3299 2 -290.311 1928.48 -437.227 0.925669 -0.233099 -0.131857 0.267236 
3303 2 -305.591 1944.5 -404.502 -0.867053 0.178904 -0.0608024 -0.460995 
3300 2 -293.289 1932.35 -428.463 0.333207 -0.257336 0.0852371 0.903043 
3301 2 -296.836 1935.69 -419.827 -0.309227 -0.252685 0.300611 0.866119 
3302 2 -302.4 1939.4 -412.373 -0.938514 0.202029 0.157156 0.231685 
3304 2 -306.46 1948.54 -395.411 -0.149815 0.157568 0.134825 -0.966721 
3305 2 -309.699 1946.61 -386.163 0.564056 0.171846 -0.136601 -0.796022 
3307 2 -318.116 1946.82 -368.162 0.583438 -0.110362 -0.0580505 0.802528 
3306 2 -313.809 1946.64 -377.14 0.97595 0.0248027 -0.215231 -0.0241327 
3471 2 -521.753 2190.65 -513.509 -0.605048 -0.1052 -0.174488 0.769678 
3479 3 -560.935 2201.49 -485.834 -0.0358581 0.388919 -0.897721 -0.203845 
3477 2 -541.002 2154.53 -475.035 0.483202 -0.0143983 -0.245539 0.840249 
3475 2 -533.571 2165.58 -488.747 0.698041 0.468469 0.0519902 -0.539047 
3476 2 -538.321 2158.45 -483.671 0.959659 0.190001 -0.185297 0.0928419 
3473 2 -524.3 2181.13 -496.636 -0.622201 -0.105522 0.518872 -0.57663 
3474 2 -528.895 2173.41 -492.5 0.0287358 0.297237 0.487967 -0.820191 
3472 2 -521.946 2187.06 -504.256 -0.934574 -0.352459 0.0379044 -0.0301103 
3478 1 -560.741 2190.9 -452.314 -0.027182 0.404133 -0.88309 -0.236832 
3395 2 -410.061 2079.71 -402.32 0.171013 0.424528 -0.820689 0.342053 
3397 1 -445.417 2081.52 -439.082 -0.803955 0.530965 -0.266322 -0.0283921 
3394 2 -411.615 2087.91 -397.033 0.433395 0.86866 -0.122314 0.206488 
3410 2 -500.127 2194.94 -416.338 0.224123 0.0618154 -0.616501 -0.752246 
3409 2 -495.203 2186.27 -416.305 -0.418163 0.607964 -0.296659 -0.606228 
3413 2 -501.196 2220.37 -402.92 0.215884 -0.0394709 0.542859 0.810642 
3412 2 -501.967 2212.26 -408.714 0.820425 -0.434122 0.25177 0.273958 
3411 2 -503.076 2204.25 -414.155 0.787856 -0.446685 -0.177885 -0.384853 
3408 2 -490.971 2177.69 -418.746 -0.794831 0.566629 0.214519 -0.0340197 
3407 2 -487.587 2168.65 -420.801 -0.496917 0.195631 0.575728 0.619144 
3399 2 -473.274 2110.17 -464.131 0.293389 0.0496142 0.473493 0.829015 
3400 2 -469.64 2117.66 -458.795 -0.518354 0.242203 0.261599 0.777311 
3401 2 -468.576 2124.27 -451.629 -0.90974 0.391648 0.0420413 0.131214 
3402 2 -468.187 2130.65 -444.079 -0.464118 0.380766 -0.292966 -0.744166 
3403 2 -470.974 2138.25 -438.317 0.216334 -0.0163259 -0.457302 -0.862443 
3404 2 -474.165 2146.13 -433.192 0.719823 -0.398797 -0.388556 -0.414535 
3405 2 -476.216 2155.05 -429.397 0.686961 -0.526128 -0.109016 0.489275 
3398 3 -431.571 2113.17 -433.449 -0.810457 0.539835 -0.21764 0.0661038 
3406 2 -482.39 2161.05 -424.637 0.120477 -0.356906 0.43494 0.817882 
3393 2 -414.188 2097.15 -394.781 0.536454 0.555554 0.572721 -0.274897 
3392 2 -414.903 2106.51 -391.547 0.00791055 -0.0964606 0.829122 -0.550627 
3391 2 -411.664 2114.73 -387.274 -0.466306 -0.638751 0.566838 -0.230762 
3390 2 -408.3 2122.29 -381.843 -0.436581 -0.856563 -0.0790533 0.26353 
3389 2 -403.03 2128.36 -376.078 -0.00697247 -0.518811 -0.704262 0.484563 
3340 2 -368.274 2141.24 -424.27 0.133777 -0.811933 -0.444576 -0.353866 
3339 2 -369.598 2136.89 -415.373 0.00153841 -0.263201 -0.923775 -0.27814 
3338 2 -371.543 2132.37 -406.774 -0.202502 0.664222 -0.708745 -0.124432 
3337 2 -368.165 2126.72 -399.391 -0.304926 0.919418 0.00837261 -0.248235 
3336 2 -368.765 2121.29 -391.223 -0.176888 0.538721 0.79124 0.228974 
3335 2 -370.178 2115.85 -382.992 0.136885 -0.30767 0.901583 0.271569 
3334 2 -371.112 2112.62 -373.672 0.145502 -0.854902 0.493916 0.0633849 
3333 2 -369.317 2106.1 -366.435 0.371896 -0.907658 -0.194107 -0.013116 
3332 2 -367.749 2097.01 -362.668 0.200481 -0.187561 -0.826935 -0.490721 
3341 2 -363.817 2146.46 -431.301 0.279849 -0.854544 0.388804 -0.200673 
3388 2 -400.761 2137.12 -372.248 0.278497 0.303354 -0.809354 0.418764 
3387 2 -400.709 2144.28 -365.438 0.385818 0.892695 -0.226052 0.0560322 
3414 2 -499.143 2229.24 -398.863 -0.531128 0.558146 0.302735 0.561006 
3342 2 -357.992 2149.87 -438.55 0.336557 -0.216985 0.904492 0.146772 
3343 1 -320.821 2126.43 -421.295 0.350492 0.256987 -0.196774 -0.878859 
3344 3 -340.009 2133.19 -392.653 0.289362 0.301454 -0.188422 -0.888759 
3345 2 -296.524 2105.41 -386.775 0.0281408 0.48204 0.0162 -0.875547 
3346 2 -304.603 2104.92 -381.133 0.809034 0.25488 -0.284325 -0.446832 
3347 2 -311.398 2103.08 -374.212 0.899081 -0.0993181 -0.310267 0.292444 
3348 2 -317.731 2102.99 -366.679 0.362299 -0.381228 -0.0222724 0.85024 
3488 2 -602.742 2268.69 -511.049 -0.360032 0.782427 0.43466 0.263165 
3480 2 -581.573 2233.15 -450.473 -0.140766 0.199357 0.969447 0.0248036 
3481 2 -583.516 2232.83 -460.152 -0.102873 0.854083 0.489691 -0.141994 
3482 2 -586.743 2232.54 -469.536 -0.135578 0.923714 -0.290274 -0.210028 
3487 2 -598.671 2261.93 -505.12 -0.202763 -0.160547 0.86223 0.435512 
3517 2 -649.229 2336.75 -509.35 0.88469 -0.113914 -0.131985 -0.432351 
3483 2 -589.741 2235.36 -478.49 0.0284868 0.406253 -0.87248 -0.270047 
3484 2 -593.377 2239.86 -486.542 0.254894 -0.282105 -0.861812 -0.335746 
3522 2 -658.311 2372.09 -481.509 -0.510591 0.134395 -0.222543 -0.819579 
3532 1 -648.02 2365.74 -388.323 0.0318882 -0.911451 -0.396853 -0.10367 
3518 2 -650.833 2339.46 -499.931 0.777148 -0.366865 0.0142141 0.511125 
3486 2 -596.73 2253.47 -500.303 0.324895 -0.763586 0.456918 0.320321 
3521 2 -657.723 2363.54 -486.284 -0.866526 0.488736 -0.0379776 -0.0939558 
3520 2 -657.995 2353.92 -488.822 -0.468671 0.390288 0.492176 0.621117 
3519 2 -654.008 2345.63 -492.75 0.143073 -0.26077 0.477886 0.826532 
3533 3 -639.256 2365.69 -422.175 -0.0575413 -0.917182 -0.376163 -0.118181 
3485 2 -595.846 2246.34 -493.584 0.374082 -0.907639 -0.178113 -0.0673027 
3534 2 -625.118 2324.8 -393.291 -0.27414 0.868166 -0.406734 0.0755173 
3535 2 -620.603 2328.09 -401.618 -0.360379 0.233504 -0.888768 -0.160294 
3536 2 -615.126 2333.43 -408.105 -0.0313232 -0.642198 -0.68435 -0.343897 
3537 2 -610.338 2338.07 -415.549 0.521011 -0.838444 -0.0686096 -0.1444 
3538 2 -608.453 2346.67 -419.939 0.41323 -0.548647 0.67552 0.268141 
3539 2 -607.101 2355.23 -424.692 -0.0948974 0.125421 0.802893 0.575002 
3540 2 -607.122 2364.74 -427.674 -0.543024 0.678365 0.394805 0.298454 
3541 2 -607.906 2374.12 -430.788 -0.710661 0.656014 -0.188071 -0.170987 
3424 1 -538.009 2308.6 -427.071 0.127029 0.381207 -0.632562 0.662126 
3426 2 -545.595 2292.54 -470.755 -0.351223 0.326579 -0.709909 0.515769 
3423 2 -521.505 2305.08 -383.011 0.294507 0.33516 -0.612157 -0.652838 
3523 2 -658.88 2377.24 -473.065 0.227848 -0.0169074 -0.149832 -0.961951 
3427 2 -537.979 2286.9 -473.49 -0.569521 -0.357323 -0.713519 0.197122 
3425 3 -524.32 2276.27 -426.183 0.17637 0.37133 -0.627812 0.660954 
3428 2 -531.415 2279.89 -476.014 -0.608699 -0.755505 -0.00225683 -0.242267 
3429 2 -527.456 2270.96 -477.911 -0.0325986 -0.585643 0.605776 -0.537582 
3430 2 -521.939 2264.14 -482.651 0.316524 0.136967 0.850191 -0.397779 
3524 2 -659.064 2381.32 -464.087 0.89847 -0.172243 -0.107111 -0.389374 
3431 2 -517.39 2256.6 -487.092 0.463 0.734918 0.471208 0.153264 
3422 2 -513.441 2299.28 -382.584 -0.381234 0.708376 -0.0368666 -0.592878 
3421 2 -506.679 2292.06 -384.103 -0.786363 0.400567 0.457316 0.109736 
3434 2 -498.447 2247.62 -506.864 -0.373275 -0.185009 -0.905488 0.0808065 
3415 2 -496.11 2238.33 -396.52 -0.696349 0.649759 -0.246255 -0.179638 
3420 2 -501.404 2284.64 -388.155 -0.39827 -0.0711145 0.561893 0.721526 
3416 2 -495.541 2248.28 -396.336 -0.198732 0.370609 -0.679156 -0.601583 
3417 2 -496.113 2258.08 -397.816 0.408992 -0.348544 -0.446463 -0.715481 
3418 2 -495.304 2267.29 -394.324 0.784161 -0.559992 0.112344 0.242649 
3419 2 -496.65 2276.72 -391.491 0.30391 -0.471047 0.346821 0.751976 
3432 2 -511.185 2250.82 -492.372 0.128136 0.900712 -0.18487 0.371647 
3433 2 -504.784 2247.47 -499.183 -0.33252 0.46838 -0.803436 0.156659 
3564 2 -689.604 2471.32 -410.678 -0.191733 -0.923602 -0.331054 -0.0245075 
3563 2 -693.611 2473.18 -401.676 -0.183194 -0.402004 -0.896008 0.0447441 
3565 2 -688.64 2467.37 -419.665 -0.213134 -0.781907 0.549116 -0.204125 
3569 2 -687.141 2452.13 -454.53 -0.197898 0.477737 -0.855153 0.036295 
3566 2 -687.366 2461.64 -427.641 -0.165993 0.0363902 0.959638 -0.224093 
3568 2 -689.313 2454.49 -445.265 0.0753281 0.976057 -0.148285 0.14018 
3567 2 -690.674 2457.41 -435.829 0.171513 0.794875 0.581845 -0.0146008 
3562 2 -698.668 2476.59 -393.72 -0.169995 0.405908 -0.851152 0.286147 
3574 2 -684.151 2458.13 -501.094 -0.0941831 0.593067 0.776527 -0.190806 
3573 2 -679.902 2457.82 -492.104 -0.187516 -0.35908 0.906872 0.116113 
3570 2 -682.9 2454.06 -463.153 -0.0990278 -0.260666 -0.956951 -0.0805654 
3571 2 -680.759 2454.96 -472.721 0.000364121 -0.897179 -0.432516 -0.0894425 
3572 2 -678.898 2456.15 -482.318 0.00481719 -0.905784 0.414757 0.0866548 
3561 2 -703.832 2478.35 -385.477 -0.0221377 0.938462 -0.223756 0.262168 
3575 2 -688.181 2456.14 -509.878 0.0879288 0.946806 0.055159 -0.304606 
3593 2 -696.126 2527.95 -510.712 -0.04169 -0.411354 0.0326268 -0.909937 
3594 2 -688.456 2527.27 -504.625 0.748078 -0.329532 0.128995 -0.56138 
3595 2 -683.998 2530.36 -496.309 0.944836 -0.0733646 0.282928 0.14783 
3596 2 -680.198 2531.93 -487.273 0.251783 0.0906004 0.180414 0.946492 
3527 2 -667.187 2394.6 -439.471 -0.703034 0.211936 0.140871 0.664065 
3597 2 -677.738 2535.42 -478.273 -0.521407 0.152358 0.0993382 0.833699 
3542 2 -606.937 2383.96 -430.243 -0.437955 0.237729 -0.632734 -0.59273 
3531 2 -662.314 2408.17 -403.175 0.932435 -0.225754 -0.0356085 -0.279879 
3525 2 -659.889 2385.45 -455.123 0.83379 -0.347762 0.0545796 0.425296 
3528 2 -665.721 2399.22 -430.848 -0.950432 0.247405 -0.146615 -0.118207 
3526 2 -662.464 2390.68 -447.17 0.07814 -0.28968 0.165683 0.93943 
3530 2 -662.891 2403.84 -412.234 0.274154 -0.0825979 -0.191215 -0.938858 
3529 2 -663.99 2403.05 -421.898 -0.493438 -0.0297099 -0.0611847 -0.867117 
3543 2 -604.126 2393.55 -430.17 0.109488 -0.191617 -0.528121 -0.81999 
3544 2 -601.216 2402.53 -427.144 0.73034 -0.5678 -0.0347716 -0.37815 
3545 2 -596.284 2410.37 -423.803 0.744762 -0.294635 0.475705 0.363626 
3546 2 -590.806 2418.13 -420.799 0.252183 0.0170218 0.617873 0.744545 
3547 2 -587.222 2426.97 -418.208 -0.353181 0.48665 0.358075 0.714295 
3548 2 -582.996 2435.56 -415.428 -0.824666 0.552813 -0.0916177 0.0770111 
3549 2 -580.572 2444.66 -412.004 -0.565564 0.25165 -0.304813 -0.723808 
3550 2 -580.4 2451.85 -405.257 0.336471 0.0151389 -0.387162 -0.858291 
3551 2 -582.74 2457.96 -397.859 0.849931 -0.237676 -0.325879 -0.339015 
3552 2 -586 2463.71 -390.554 0.744958 -0.372113 -0.110928 0.542462 
3553 2 -590.883 2469.21 -383.979 0.00761896 -0.325229 0.373856 0.868562 
3554 2 -597.289 2475.49 -379.51 -0.639093 0.0983354 0.485967 0.587986 
3555 2 -602.957 2482.42 -375.164 -0.86888 0.350028 0.279399 -0.210867 
3560 3 -652.349 2474.57 -389.341 0.183655 0.843897 -0.388574 0.321122 
3556 2 -609.457 2487.32 -369.517 -0.483954 0.589802 -0.0893263 -0.640268 
3559 1 -665.258 2493.85 -363.163 0.166063 0.813816 -0.452152 0.325092 
3557 2 -616.141 2493.8 -366.084 0.315043 0.0306298 -0.383625 -0.867549 
3598 2 -676.922 2538.84 -469.113 -0.891209 0.362909 -0.00246989 0.2721 
3599 2 -675.399 2544.88 -461.433 -0.769097 0.321428 -0.248542 -0.493356 
3600 2 -674.426 2552.53 -455.227 -0.142975 -0.06336 -0.266661 -0.951018 
3601 2 -672.736 2557.19 -446.647 0.688526 -0.253108 -0.229513 -0.639682 
3602 2 -672.958 2563.72 -439.194 0.892031 -0.373621 0.107783 0.230371 
3603 2 -673.575 2570.34 -431.883 0.478791 -0.173515 0.252529 0.822728 
3608 2 -679.634 2599.14 -393.208 0.845576 -0.055798 -0.225195 -0.480806 
3607 2 -677.389 2595.43 -402.108 0.111371 0.0942572 -0.174381 -0.973809 
3605 2 -673.097 2583.3 -417.023 -0.902851 0.375391 0.141597 0.154569 
3606 2 -674.669 2590.21 -410.06 -0.680747 0.28792 -0.0996955 -0.666143 
3604 2 -674.605 2576.08 -423.785 -0.309307 0.228202 0.326024 0.86369 
3609 2 -682.525 2602.85 -384.542 0.857759 -0.318266 -0.159279 0.370927 
3610 2 -687.428 2607.82 -377.425 0.149504 -0.436803 0.204705 0.863103 
3611 2 -693.652 2612.36 -371.134 -0.568674 -0.273573 0.375404 0.678852 
3612 2 -701.613 2613.65 -365.346 -0.886672 0.110562 0.441659 -0.0807885 
3666 2 -539.558 2538.64 -381.145 0.000209602 0.62008 -0.783996 -0.0291822 
3665 2 -538.582 2538.6 -371.294 -0.00555893 0.998392 -0.055564 -0.00972068 
3667 1 -515.866 2577.1 -394.646 -0.851523 0.0123602 -0.0906036 0.516282 
3669 2 -488.49 2614.78 -386.938 -0.745195 -0.00254579 0.33546 0.576321 
3670 2 -492.964 2618.45 -379.056 -0.940219 0.25261 0.0225998 -0.227302 
3671 2 -495.659 2623.3 -370.879 -0.283504 0.303504 -0.234791 -0.878854 
3672 2 -499.914 2628.88 -363.978 0.456134 -0.103226 -0.448989 -0.761377 
3842 2 -714.355 2807.55 -513.506 0.571031 -0.395379 0.218815 0.685361 
3843 2 -717.481 2814.91 -507.597 -0.158661 -0.0683384 0.448626 0.876864 
3856 1 -791.663 2820.63 -427.615 0.154785 0.71085 0.480529 0.48972 
3844 2 -720.518 2822.52 -502.03 -0.796663 0.396454 0.341145 0.30294 
3857 3 -760.096 2829.16 -440.215 0.114601 0.700695 0.470531 0.523921 
3858 2 -763.515 2787.11 -409.941 -0.540399 0.689205 0.07235 0.477212 
3860 2 -753.696 2803.68 -406.891 -0.492144 -0.150498 -0.483037 -0.708393 
3859 2 -758.225 2795.51 -409.953 -0.769704 0.499722 -0.342082 -0.202026 
3861 2 -747.122 2809.67 -402.529 0.342649 -0.271032 -0.206481 -0.875499 