ITEM: TIMESTEP
100000000
ITEM: NUMBER OF ATOMS
4067
ITEM: BOX BOUNDS pp pp pp
-4.6310929470000001e+03 4.6704658980000004e+03
-4.6310929470000001e+03 4.6704658980000004e+03
-4.6310929470000001e+03 4.6704658980000004e+03
ITEM: ATOMS id type x y z c_q[1] c_q[2] c_q[3] c_q[4] 
2965 1 -419.071 1337.95 -565.156 0.772328 0.0272046 0.241647 0.586836 
2964 2 -372.969 1332.86 -573.392 -0.299042 -0.6779 0.670039 -0.0455325 
2963 2 -369.373 1337.43 -565.287 -0.228338 -0.936092 -0.1336 0.231827 
2967 2 -456.29 1347.19 -537.687 0.686429 -0.518718 -0.0517798 -0.507017 
2968 2 -451.618 1354.72 -533.423 0.877518 -0.2639 0.343641 0.205497 
2969 2 -446.76 1360.79 -527.426 0.410656 0.0222429 0.362267 0.836438 
2966 3 -404.53 1348.09 -535.037 0.743444 0.0141606 0.230472 0.627672 
2962 2 -365.3 1340.6 -556.921 0.0812864 -0.509371 -0.815481 0.262534 
2970 2 -443.025 1366.18 -520.022 -0.426043 0.318815 0.114469 0.838893 
2961 2 -365.082 1341 -547.091 0.0170333 0.224793 -0.974252 0.00335609 
2960 2 -363.496 1340.2 -537.318 -0.0287956 0.868572 -0.490175 -0.0669496 
2959 2 -363.841 1339.22 -527.484 -0.0194538 0.905205 0.424511 -0.00395451 
2958 2 -363.694 1339.57 -517.632 0.0148412 0.20932 0.976475 -0.0496076 
3586 1 -383.563 2359.55 -514.931 0.655233 -0.652662 -0.306614 0.225142 
3588 2 -400.463 2359.67 -558.975 0.620246 -0.34051 -0.553942 -0.438744 
3589 2 -404.521 2368.52 -557.625 0.659708 -0.664891 -0.246233 0.249149 
3590 2 -411.878 2375.21 -557.878 0.229972 -0.51266 0.472405 0.679063 
3604 2 -521.059 2424.21 -516.263 0.0283834 -0.597588 -0.124688 0.79154 
3591 2 -417.608 2383.28 -557.673 -0.413403 -0.0487816 0.75899 0.500652 
3603 2 -511.524 2423.69 -519.14 0.752861 -0.241891 -0.544992 0.278699 
3602 2 -502.124 2423.52 -522.517 0.672192 0.262377 -0.524928 -0.451405 
3601 2 -492.748 2421.96 -525.093 0.0541227 0.566465 -0.213142 -0.794203 
3592 2 -424.423 2390.19 -558.861 -0.689592 0.522698 0.483421 -0.13249 
3600 2 -483.869 2424.29 -528.894 -0.445751 0.400342 0.434212 -0.672675 
3599 2 -475.352 2424.34 -533.893 -0.867262 -0.0135767 0.496841 0.0286515 
3595 2 -448.662 2406.28 -555.458 0.700862 -0.109978 -0.57376 -0.409263 
3594 2 -440.748 2401.22 -558.647 0.273739 0.357444 -0.486109 -0.748999 
3596 2 -455.722 2412.33 -551.851 0.823499 -0.420698 -0.266381 0.271853 
3593 2 -432.331 2396.16 -559.422 -0.309213 0.702485 -0.00218269 -0.641013 
3597 2 -461.309 2418.04 -545.804 0.26071 -0.425681 0.088164 0.862005 
3598 2 -468.274 2422.65 -540.638 -0.476699 -0.250605 0.337056 0.772236 
3637 2 -422.637 2447.42 -594.744 0.0826018 0.317869 0.934444 -0.137663 
3638 2 -421.439 2445.29 -604.381 0.280981 0.887104 0.362033 -0.0550225 
3636 2 -423.921 2448.92 -585.051 0.00518887 -0.485244 0.868193 -0.103694 
3635 2 -424.502 2448.79 -575.094 -0.0059406 -0.960864 0.274894 0.0337342 
3639 2 -419.822 2440.05 -612.686 0.216111 0.880025 -0.369543 0.205645 
3634 2 -426.339 2450.94 -565.613 -0.102408 -0.799647 -0.590242 -0.0411295 
3633 2 -426.868 2450.14 -555.788 -0.0735197 -0.0295127 -0.996528 -0.025617 
3632 2 -428.643 2449.88 -546.1 -0.0704057 0.715678 -0.692931 0.0519102 
3631 2 -432.985 2448.12 -537.448 0.00446842 0.963842 0.156766 0.215437 
3630 2 -438.967 2446.46 -529.76 0.272002 0.286235 0.900037 0.184442 
3629 2 -445.426 2444.92 -522.477 0.289784 -0.448126 0.841414 -0.085036 
3628 2 -452.933 2444.33 -515.908 0.119965 -0.906468 0.157828 -0.372848 
3641 3 -386.284 2479.5 -614.498 0.713062 -0.344749 -0.415405 -0.447358 
3640 1 -376.011 2448.79 -627.772 0.661991 -0.389541 -0.386407 -0.510603 
3642 2 -339.224 2476.97 -636.515 -0.782906 0.265782 0.135004 0.546069 
3643 2 -339.196 2482.83 -628.601 -0.80377 0.366094 -0.0832994 -0.461508 
3696 2 -313.3 2514.06 -584.644 0.616764 -0.758299 -0.0396157 0.207403 
3697 2 -317.149 2523.17 -585.808 0.324524 -0.502312 0.439687 0.670107 
3644 2 -341.821 2489.61 -621.913 -0.219007 0.243995 -0.471934 -0.818401 
3645 2 -344.009 2498.11 -617.153 0.326764 -0.112768 -0.55521 -0.756472 
3646 2 -345.779 2507.27 -614.006 0.807435 -0.487399 -0.221287 -0.248039 
3647 2 -347.224 2516.35 -610.224 0.484094 -0.649892 0.281427 0.513899 
3648 2 -351.121 2525.39 -609.413 -0.102043 -0.268149 0.655981 0.698121 
3698 2 -322.163 2531.72 -584.533 -0.306671 0.0255877 0.692551 0.652435 
3695 3 -343.93 2525.75 -544.433 0.707486 -0.530828 -0.46521 0.035561 
3694 1 -323.061 2497.9 -541.407 0.71581 -0.574067 -0.397481 -0.0084495 
3649 2 -356.329 2533.69 -609.975 -0.691571 0.350882 0.504941 0.379005 
3666 2 -457.424 2642.92 -610.062 0.492011 -0.654016 -0.573583 -0.0345059 
3655 2 -382.422 2584.06 -593.783 -0.481081 -0.199201 0.669036 0.530349 
3656 2 -390.953 2588.84 -592.833 -0.791717 0.426461 0.437317 -0.00826984 
3657 2 -397.511 2595.93 -590.384 -0.618758 0.331651 -0.0575975 -0.709809 
3658 2 -401.761 2600.95 -582.97 0.360637 0.44354 -0.4299 -0.698856 
3659 2 -410.677 2604.68 -580.674 0.640665 -0.0723254 -0.73527 -0.209034 
3660 2 -419.734 2608.43 -581.291 0.458212 -0.768557 -0.269985 0.355626 
3661 2 -427.757 2613.33 -584.578 0.0617442 -0.651309 0.583635 0.480992 
3662 2 -434.219 2618.58 -589.954 -0.358456 0.0997117 0.872777 0.315955 
3663 2 -439.534 2625.46 -594.755 -0.459086 0.805777 0.32547 -0.184481 
3664 2 -445.667 2631.34 -599.902 -0.00423255 0.762693 -0.384111 -0.520328 
3665 2 -452.969 2635.66 -605.066 0.230032 0.0966066 -0.868824 -0.427665 
3668 3 -440.609 2648.54 -561.205 0.801177 0.501722 0.312838 0.0923208 
3667 1 -463.451 2671.93 -573.407 0.841019 0.417683 0.339403 0.055068 
3654 2 -378.307 2575.37 -596.681 0.380101 -0.492386 0.350257 0.700285 
3653 2 -373.503 2567.04 -598.658 0.783052 -0.579133 -0.185591 0.130348 
3670 2 -448.055 2681.17 -525.627 -0.336596 0.200301 -0.590269 0.705808 
3671 2 -441.697 2674.05 -523.044 -0.695896 -0.207266 -0.671721 0.146837 
3652 2 -370.515 2559.11 -603.807 0.673552 -0.226077 -0.39735 -0.580801 
3672 2 -433.133 2669.11 -522.315 -0.67338 -0.574362 -0.209435 -0.415697 
3673 2 -425.653 2662.99 -520.382 -0.153722 -0.518325 0.498028 -0.677995 
3674 2 -420.587 2654.37 -520.557 0.354636 0.0408335 0.70488 -0.612952 
3712 2 -362.506 2635.25 -518.576 -0.366287 0.00640176 0.372558 0.852639 
3680 2 -408.458 2597.42 -523.163 -0.161865 -0.255137 0.628204 -0.716983 
3681 2 -406.548 2587.84 -521.959 0.517046 0.319947 0.434282 -0.664602 
3675 2 -416.076 2645.69 -522.01 0.700598 0.589773 0.380742 -0.127928 
3682 2 -406.437 2579.16 -517.314 0.872528 0.48752 0.0316899 -0.00385228 
3676 2 -411.754 2636.68 -522.111 0.594984 0.548551 -0.42539 0.405129 
3678 2 -410.701 2617.03 -522.261 -0.546427 -0.492702 -0.508411 0.447415 
3679 2 -408.895 2607.32 -522.788 -0.619463 -0.748806 0.171685 -0.161492 
3677 2 -410.726 2626.75 -522.735 0.0577976 0.0761303 -0.668891 0.737189 
3651 2 -365.722 2550.74 -605.969 -0.080721 0.338209 -0.514199 -0.784027 
3669 2 -454.559 2687.34 -529.752 0.460001 0.5528 -0.0590689 0.692331 
3711 2 -358.824 2627.81 -523.893 0.469436 -0.391866 0.246298 0.751936 
3699 2 -325.024 2541.17 -584.201 -0.859186 0.394975 0.252529 0.204993 
3650 2 -360.974 2542.11 -607.687 -0.618619 0.673428 -0.0459988 -0.402106 
3710 2 -354.828 2620.32 -529.148 0.848796 -0.447824 -0.244238 0.139093 
3709 2 -354.609 2611.43 -533.574 0.443285 -0.282737 -0.457664 -0.717009 
3700 2 -328.181 2549.19 -579.307 -0.620744 0.53298 -0.0848924 -0.568685 
3701 2 -332.977 2557 -575.677 0.057342 0.287542 -0.398027 -0.869256 
3702 2 -338.617 2563.31 -570.446 0.773274 0.0246399 -0.462924 -0.432598 
3703 2 -346.365 2566.04 -564.936 0.7874 -0.509321 -0.268399 0.220353 
3704 2 -352.653 2572.55 -561.32 0.360736 -0.387477 0.351267 0.772232 
3705 2 -355.993 2580.83 -557.302 -0.382598 0.0544523 0.456537 0.801391 
3706 2 -358.42 2588.89 -551.951 -0.82667 0.419555 0.0309798 0.373671 
3707 2 -355.553 2595.84 -545.524 -0.832752 0.30032 -0.19228 -0.42351 
3708 2 -355.224 2602.92 -538.637 -0.269064 0.136864 -0.452263 -0.839244 
3994 2 -829.31 2840.27 -569.255 0.11042 -0.614758 0.196144 -0.755915 
3995 2 -819.776 2838.33 -567.385 0.670868 -0.278037 0.511181 -0.459701 
3976 2 -716.396 2838.18 -580.189 -0.692425 0.590078 0.408112 -0.0761591 
3975 2 -710.898 2830.01 -580.761 -0.465241 0.0559676 0.695411 0.544813 
3974 2 -706.669 2821.04 -579.886 0.309237 -0.581243 0.431375 0.616802 
3973 2 -704.165 2811.56 -580.806 0.749555 -0.64639 -0.057022 0.130751 
3966 2 -702.574 2744.58 -572.095 0.695991 -0.689411 0.0205362 -0.199718 
3972 2 -701.095 2802.23 -580.179 0.571985 -0.414063 -0.578285 -0.408621 
3971 2 -698.625 2792.99 -577.876 0.0717684 0.16192 -0.726386 -0.664075 
3967 2 -699.896 2754.11 -571.849 0.41808 -0.527864 0.623005 0.398036 
3970 2 -697.518 2783.44 -575.518 -0.430824 0.637513 -0.481506 -0.419667 
3969 2 -698.763 2773.56 -575.757 -0.698436 0.702318 0.0472777 0.129233 
3968 2 -699.426 2763.61 -574.592 -0.189525 0.275316 0.686265 0.646004 
3964 1 -721.763 2733.07 -530.557 0.643044 -0.628586 -0.399444 -0.178377 
3997 2 -801.169 2832.87 -565.657 0.182706 0.724647 0.0364105 0.66346 
3965 3 -732.41 2766 -535.64 0.602454 -0.674942 -0.388786 -0.174206 
3996 2 -810.3 2836.46 -564.988 0.677759 0.398728 0.592238 0.175819 
3999 2 -782.457 2832.22 -562.337 -0.89022 0.27943 -0.355031 -0.0581378 
3998 2 -791.701 2830.1 -565.183 -0.547806 0.529333 -0.294003 0.577301 
4000 2 -776.165 2836.91 -556.339 -0.444223 -0.145846 -0.377259 -0.799419 
3993 2 -838.942 2842.44 -568.007 -0.49092 -0.612375 -0.483577 -0.387488 
3991 1 -832.799 2885.88 -585.47 -0.415778 -0.638499 -0.0283063 -0.647028 
4001 2 -770.631 2841.92 -549.653 0.0666309 -0.646013 -0.0842896 -0.755727 
4002 2 -761.163 2844.08 -547.863 0.718206 -0.28105 0.38371 -0.507895 
4003 2 -752.862 2844.92 -542.381 0.875569 -0.0500909 0.374162 0.301452 
4004 2 -747.428 2848.6 -534.98 0.261782 0.418623 0.177227 0.851361 
3977 2 -722.706 2845.72 -580.679 -0.313343 0.672356 -0.397887 -0.539851 
3978 2 -727.888 2853.85 -582.941 0.288011 0.202166 -0.711768 -0.607919 
3990 2 -806.847 2921.3 -602.584 -0.751756 0.435566 0.465563 -0.168511 
4005 2 -739.319 2849.88 -529.301 -0.575836 0.156875 -0.316514 0.737308 
4006 2 -732.92 2847.41 -522.148 -0.954936 0.0659719 -0.249933 0.145869 
3979 2 -735.014 2860.72 -583.202 0.579421 -0.401122 -0.703981 -0.0882245 
3980 2 -742.867 2865.87 -586.586 0.30063 -0.849792 -0.149513 0.40635 
3981 2 -750.21 2870.52 -591.312 -0.031777 -0.767288 0.503258 0.396219 
3992 3 -800.301 2873.37 -583.773 -0.407031 -0.664841 -0.0741693 -0.621942 
3982 2 -757.581 2873.87 -597.014 -0.293036 -0.0704538 0.942357 0.145362 
3983 2 -763.255 2876.33 -604.778 -0.376325 0.649368 0.651655 0.109752 
3984 2 -766.61 2882.56 -611.864 -0.500325 0.808109 -0.0337203 -0.309028 
3985 2 -771.429 2890.56 -614.981 0.0914545 0.447649 -0.561479 -0.689919 
3986 2 -778.744 2897.31 -614.675 0.676477 -0.203705 -0.576809 -0.41009 
3987 2 -784.487 2905.03 -612.491 0.736848 -0.522009 -0.155459 0.400492 
3988 2 -791.136 2910.75 -608.139 0.0343937 -0.457698 0.298325 0.836859 
3989 2 -798.577 2916.21 -604.243 -0.639461 -0.0342976 0.647519 0.413076 
4029 2 -688.804 2936.72 -542.045 0.575318 -0.498006 -0.279981 -0.585329 
4028 2 -688.617 2926.76 -542.197 -0.0985721 0.113571 -0.716547 -0.681135 
4031 2 -682.271 2954.4 -536.148 0.518781 -0.00354011 0.5698 0.637324 
4030 2 -686.211 2945.49 -538.416 0.779936 -0.559742 0.263419 0.0948614 
4027 2 -690.99 2917.28 -542.869 -0.622107 0.482664 -0.499293 -0.36156 
4026 2 -690.203 2907.36 -543.659 -0.709306 0.670103 0.177866 0.127322 
4025 2 -687.477 2899.48 -548.975 -0.473019 0.128471 0.455856 0.742929 
4024 2 -684.598 2894.16 -556.775 0.333239 -0.211062 0.186735 0.899741 
4023 2 -679.25 2889.71 -563.858 0.781851 -0.387006 -0.198777 0.446568 
4032 2 -676.663 2961.99 -533.637 -0.220791 0.556475 0.34332 0.723684 
4019 3 -672.731 2859.49 -531.362 0.816501 -0.287396 -0.449249 0.221145 
4022 2 -674.063 2884.04 -570.211 0.822837 -0.15761 -0.392663 -0.379359 
4033 2 -670.838 2969.86 -531.841 -0.699477 0.665773 -0.238358 0.103266 
4021 2 -669.469 2878.57 -576.996 0.166284 0.191653 -0.32502 -0.911033 
4007 2 -726.66 2846.78 -514.466 -0.708846 -0.182731 -0.235494 -0.639288 
4034 2 -665.75 2978.45 -531.79 -0.415713 0.0665138 -0.64913 -0.633553 
4018 1 -641.863 2849.65 -544.446 0.804455 -0.277225 -0.489991 0.189494 
4020 2 -661.376 2873.81 -579.996 -0.570196 0.506714 0.149218 -0.629168 
4035 2 -660.894 2987.01 -531.517 0.227757 -0.496205 -0.608694 -0.575672 
4067 2 -793.018 3059.55 -604.118 0.779374 -0.373837 -0.459454 0.204264 
4066 2 -784.47 3055.8 -607.384 0.629111 0.18584 -0.557623 -0.508665 
4065 2 -774.701 3054.56 -608.913 0.0913018 0.624693 -0.152962 -0.76028 
4064 2 -764.884 3054.55 -609.86 -0.470413 0.55122 0.330757 -0.604539 
4058 2 -708.867 3043.57 -608.256 0.328129 0.525286 -0.193075 -0.761005 
4059 2 -717.957 3043.52 -604.487 0.665703 0.132879 -0.692982 -0.242813 
4060 2 -727.741 3044.55 -603.922 0.451885 -0.603849 -0.48621 0.441323 
4061 2 -737.507 3045.25 -605.778 0.0976179 -0.716432 0.237614 0.648642 
4062 2 -745.969 3049.91 -607.511 -0.423493 -0.360946 0.630118 0.541593 
4063 2 -755.221 3053.18 -607.968 -0.633838 0.127526 0.755315 -0.107168 
4057 2 -699.387 3044.38 -610.699 -0.291268 0.503213 0.34689 -0.73594 
4056 2 -689.551 3044.99 -611.053 -0.688484 0.0886593 0.705044 -0.145061 
4055 2 -679.767 3045.99 -611.006 -0.573359 -0.463162 0.552856 0.388704 
4054 2 -670.009 3044.75 -612.293 -4.62227e-05 -0.62518 0.0976071 0.774353 
4053 2 -660.469 3043.53 -614.55 0.655698 -0.346707 -0.537281 0.401477 
4036 2 -657.197 2995.88 -533.268 0.701811 -0.654839 0.0790376 -0.269073 
4052 2 -651.351 3044.6 -617.965 0.741809 0.288593 -0.490748 -0.3544 
4051 2 -641.942 3047.26 -619.714 0.259445 0.684288 0.0402769 -0.680306 
4050 2 -632.243 3049.45 -619.617 -0.303863 0.519677 0.490698 -0.629935 
4049 2 -622.665 3050.84 -617.906 -0.619786 -0.00600909 0.781284 -0.0736585 
4048 2 -613.222 3051.37 -614.956 -0.384084 -0.652415 0.46568 0.458232 
4047 2 -604.077 3049.71 -611.711 0.0776994 -0.788007 0.0243761 0.610257 
4045 1 -608.759 3061.19 -566.117 -0.391309 0.458238 0.640562 -0.475999 
4046 3 -641.023 3051.11 -575.24 -0.365952 0.429947 0.688676 -0.454919 
4044 2 -633.632 3068.2 -526.737 0.555502 -0.37178 0.553764 0.496531 
4043 2 -636.552 3058.75 -527.678 0.75577 -0.637166 0.144659 -0.043643 
4037 2 -653.149 3004.84 -531.684 0.589177 -0.418464 0.56237 0.401869 
4038 2 -650.507 3014.28 -532.102 -0.140235 0.167584 0.729349 0.648306 
4042 2 -639.507 3050.57 -532.454 0.512154 -0.402507 -0.271172 -0.708627 
4039 2 -649.782 3024.07 -533.935 -0.48348 0.803111 0.107237 0.331301 
4041 2 -641.693 3041.89 -536.741 -0.17294 0.00760611 -0.599716 -0.781264 
4040 2 -645.634 3032.8 -536.012 -0.630579 0.458519 -0.567809 -0.264052 
2905 2 -361.953 1256.65 -419.191 0.0775974 -0.260834 -0.154428 0.949787 
2906 2 -367.988 1254.03 -411.801 -0.640943 -0.339914 0.219603 0.652246 
2907 2 -375.003 1252.91 -404.97 -0.948064 0.0154522 0.295139 -0.117594 
2910 2 -396.919 1253.83 -385.477 0.884648 0.126572 -0.395634 -0.211783 
2909 2 -389.221 1253.2 -391.693 0.256842 0.393227 -0.178428 -0.86462 
2908 2 -381.199 1252.33 -397.185 -0.532293 0.441915 0.179485 -0.6994 
2904 2 -356.256 1260.1 -426.397 0.810603 0.040199 -0.331707 0.480913 
2912 3 -346.845 1265.12 -377.19 0.0709348 0.440244 0.801657 0.398121 
2903 2 -349.68 1265.75 -431.199 0.867293 0.333389 -0.336984 -0.151972 
2898 2 -305.964 1283.53 -424.951 0.0104768 -0.798379 -0.0972188 0.594163 
2897 2 -297.527 1285.3 -420.176 0.417759 -0.403465 -0.75329 0.308621 
2901 2 -334.231 1277.67 -429.266 -0.197477 0.45514 0.65369 -0.571436 
2900 2 -324.731 1280.34 -428.714 -0.662104 -0.0766199 0.741942 -0.0725964 
2899 2 -315.155 1282.62 -428.327 -0.521825 -0.605438 0.384252 0.462054 
2896 2 -288.644 1286.9 -416.532 0.542926 0.366705 -0.740085 -0.151767 
2895 2 -278.988 1287.56 -414.117 0.200055 0.759593 -0.188022 -0.589613 
2894 2 -271.164 1291.24 -409.279 -0.119756 0.612265 0.659283 -0.419686 
2902 2 -341.477 1271.3 -431.909 0.380862 0.675808 0.0516077 -0.628939 
2893 2 -262.389 1293.79 -405.357 -0.572454 -0.087118 0.814545 -0.0349694 
2892 2 -254.311 1297.86 -401.674 -0.441133 -0.751417 0.291507 0.394713 
2921 2 -307.579 1314.98 -363.855 -0.309417 0.315177 -0.769978 -0.460498 
2891 2 -247.499 1305.32 -401.893 -0.0929792 -0.525341 -0.408409 0.740658 
2890 2 -240.052 1310.69 -405.581 0.59407 -0.0384905 -0.574225 0.562019 
2920 2 -310.819 1305.72 -362.581 -0.667148 0.69678 -0.261995 0.0277376 
2971 2 -438.999 1370.81 -512.229 -0.942576 0.269782 -0.123852 0.153065 
2972 2 -436.593 1375.45 -503.903 -0.765389 0.184589 -0.301168 -0.537963 
2973 2 -433.796 1381.92 -497.002 -0.158018 -0.356258 -0.466983 -0.793749 
2974 2 -427.492 1388.81 -493.832 0.528035 -0.544777 -0.290903 -0.5829 
2975 2 -423.431 1397.38 -490.916 0.770118 -0.553958 0.312155 0.0510647 
2976 2 -419.338 1406.02 -489.079 0.390123 -0.303561 0.576474 0.65064 
2977 2 -419.092 1415.85 -487.309 -0.330581 0.130617 0.610499 0.707776 
2978 2 -420.384 1425.3 -485.075 -0.816294 0.483864 0.211963 0.23369 
2979 2 -421.313 1434.32 -481.054 -0.790859 0.434788 -0.305786 -0.30331 
2980 2 -419.477 1443.43 -477.899 -0.246478 0.123467 -0.704237 -0.654258 
2981 2 -417.949 1453.28 -477.754 0.378138 -0.274909 -0.657623 -0.590735 
2982 2 -419.194 1463.11 -478.073 0.795506 -0.585929 -0.154242 0.00818676 
2993 3 -456.899 1465.73 -440.529 0.291563 0.680628 0.213876 0.637176 
2994 2 -484.305 1421.72 -436.733 0.603157 -0.499641 0.589636 -0.197208 
2995 2 -475.705 1426.16 -438.756 0.473948 0.180435 0.709763 0.488931 
2996 2 -467.524 1431.77 -438.947 -0.0883147 0.647961 0.24516 0.715712 
2997 2 -459.266 1437.08 -438.394 -0.635735 0.581896 -0.455903 0.22224 
2998 2 -451.009 1442.4 -438.926 -0.675165 -0.231864 -0.680019 -0.167227 
2999 2 -441.067 1442.08 -439.384 -0.399166 -0.649528 -0.333252 -0.554727 
3000 2 -431.345 1440.71 -440.302 0.183697 -0.635161 0.0623809 -0.74762 
3001 2 -421.696 1441.75 -438.718 0.80358 -0.237575 0.412661 -0.357111 
3002 2 -413.706 1442.42 -432.92 0.816395 0.147094 0.416293 0.372241 
3003 2 -405.811 1442.84 -426.912 0.216645 0.387135 0.0599364 0.894203 
3004 2 -399.026 1443.1 -419.784 -0.6166 0.151301 -0.00550773 0.772582 
3005 2 -396.938 1444.03 -410.194 -0.970009 0.186644 0.0759945 -0.135908 
3006 2 -398.807 1447.85 -401.367 -0.558396 -0.0336298 -0.159613 -0.81338 
3007 2 -396.651 1450.09 -391.957 0.1751 -0.0453275 0.052669 -0.982095 
3008 2 -397.112 1449.45 -382 0.932198 0.0579671 0.0291001 -0.356089 
3009 2 -398.319 1448.06 -372.395 0.813518 0.223864 -0.0591314 0.533458 
3010 2 -397.719 1444 -363.412 0.235953 -0.205483 -0.127525 0.941191 
2992 1 -491.771 1467.9 -442.345 0.255286 0.692979 0.074839 0.670081 
2889 2 -233.415 1317.02 -409.399 0.82972 0.37461 -0.411582 -0.0428065 
2957 2 -360.816 1341.07 -508.277 -0.180414 -0.644508 0.741686 0.0443028 
2922 2 -304.743 1323.62 -367.739 0.0462675 -0.322714 -0.718119 -0.614834 
2956 2 -355.419 1336.62 -501.407 0.224135 -0.933965 -0.0394015 0.275535 
2955 2 -349.553 1335.62 -493.419 0.23901 -0.562181 -0.774086 0.166187 
2954 2 -342.174 1334.44 -486.906 0.383392 0.262417 -0.873446 -0.145741 
2953 2 -335.194 1334.83 -479.965 0.161738 0.852774 -0.384814 -0.313903 
2952 2 -329.511 1339.01 -472.897 0.0788033 0.806642 0.468622 -0.351443 
2951 2 -322.331 1342.21 -466.983 -0.378265 0.192582 0.863594 -0.27209 
2950 2 -313.388 1345.4 -464.182 -0.556038 -0.505844 0.626859 0.20492 
2949 2 -305.685 1350.41 -460.278 -0.21834 -0.831479 -0.118832 0.496839 
2948 2 -296.808 1354.7 -458.704 0.285289 -0.469008 -0.588191 0.593863 
2940 2 -247.498 1399.8 -497.468 0.907016 0.0731209 -0.409994 0.0622884 
2941 2 -254.801 1397.61 -491.027 0.457588 -0.184802 -0.386575 0.779116 
2942 2 -261.227 1393.34 -485.049 -0.414365 -0.396545 -0.213567 0.790849 
2943 2 -266.125 1386.96 -479.26 -0.834241 -0.447393 0.220495 0.235084 
2947 2 -289.977 1361.15 -461.899 0.736109 0.232774 -0.535495 0.342352 
2923 2 -302.274 1332.69 -371.064 0.374781 -0.808229 -0.26865 -0.366241 
2944 2 -271.55 1380.37 -474.453 -0.738791 -0.0381166 0.456178 -0.494607 
2938 1 -234.197 1425.5 -460.076 -0.342559 -0.0990663 0.601052 -0.715245 
2945 2 -278.095 1374.96 -469.165 -0.0469512 0.41983 0.378227 -0.823701 
2946 2 -284.77 1368.86 -465.397 0.735156 0.574164 -0.150655 -0.32739 
2939 3 -241.02 1394.12 -446.107 -0.341836 -0.118015 0.583807 -0.726904 
2924 2 -298.248 1340.75 -375.268 0.550132 -0.651742 0.507526 0.122494 
2925 2 -293.322 1348.58 -378.961 0.40969 -0.090579 0.828203 0.371523 
2926 2 -288.096 1355.87 -383.006 -0.0947034 0.642441 0.544391 0.53098 
2927 2 -282.163 1362.89 -386.646 -0.440294 0.783059 -0.345926 0.270733 
2928 2 -274.454 1367.38 -391.059 -0.608773 0.248148 -0.716171 -0.234343 
2934 2 -231.96 1404.54 -407.869 -0.639341 0.726425 -0.192611 0.162636 
2933 2 -238.79 1397.6 -406.044 -0.138139 0.673784 0.328116 0.647513 
2932 2 -246.674 1392.2 -403.773 0.421683 0.194928 0.752835 0.466288 
2931 2 -253.525 1385.48 -401.107 0.621825 -0.60203 0.500566 -0.0180674 
2930 2 -260.785 1380 -397.111 0.271284 -0.858754 -0.104917 -0.421828 
2929 2 -268.055 1374.66 -392.977 -0.157892 -0.57683 -0.609922 -0.519935 
2935 2 -227.246 1412.98 -409.59 -0.440032 0.334098 -0.707427 -0.440791 
2936 2 -222.604 1421.49 -411.635 -0.00213685 -0.253486 -0.78098 -0.570798 
2937 2 -220.022 1430.18 -415.319 0.420181 -0.796459 -0.248185 -0.357078 
2884 1 -228.563 1371.63 -387.217 0.0469074 -0.366111 -0.500855 0.782883 
2888 2 -227.323 1324.66 -410.999 0.574352 0.6403 0.0239284 -0.509473 
2885 3 -249.174 1344.48 -378.755 0.062916 -0.319936 -0.532589 0.781045 
2887 2 -221.606 1331.79 -414.71 -0.0767215 0.270947 0.453582 -0.845556 
2886 2 -213.47 1337.4 -415.959 -0.642664 -0.0615812 0.655507 -0.391793 
3024 2 -331.993 1428.85 -369.757 -0.369587 0.62635 -0.317582 -0.608467 
3025 2 -336.749 1437.53 -369.814 0.387939 0.129076 -0.565168 -0.716538 
3023 2 -329.554 1419.36 -371.787 -0.777904 0.574122 0.248584 0.0587874 
3022 2 -327.738 1409.54 -372.349 -0.449899 0.314544 0.583476 0.598505 
3021 2 -324.396 1400.22 -371.313 0.111427 -0.403959 0.648353 0.635641 
3026 2 -343.182 1444.33 -366.67 0.784795 -0.404332 -0.348182 -0.315249 
3027 2 -346.522 1452.94 -362.822 0.808438 -0.376346 0.156722 0.424536 
2983 2 -421.838 1472.31 -475.584 0.460152 -0.603212 0.250928 0.601191 
2984 2 -425.906 1480.91 -473.08 -0.259522 -0.182624 0.505079 0.802615 
2985 2 -430.887 1488.4 -468.736 -0.750212 0.243903 0.526037 0.317769 
2986 2 -435.601 1496.43 -465.013 -0.706046 0.492085 0.112016 -0.496793 
2987 2 -442.279 1501.76 -460.148 0.0981144 0.442396 -0.414668 -0.78912 
2990 2 -468.874 1512.24 -452.78 0.147626 -0.554689 -0.0939148 0.813454 
2991 2 -477.93 1512.48 -448.843 -0.432624 -0.46542 0.297881 0.712382 
2988 2 -450.211 1506.92 -457.407 0.740632 0.11847 -0.610635 -0.254076 
2989 2 -459.457 1509.36 -454.793 0.753257 -0.420065 -0.426028 0.27322 
3181 1 -453.312 1606.23 -461.182 -0.557326 0.371292 -0.49186 -0.556421 
3183 2 -488.794 1617.98 -432.348 -0.498706 0.596267 0.451224 0.438356 
3180 2 -413.496 1615 -484.835 0.474884 0.658722 -0.532004 0.239879 
3127 1 -276.538 1619.51 -375.969 -0.579962 0.199688 -0.0477153 -0.788348 
3129 2 -318.857 1599.2 -371.855 0.874654 -0.230457 -0.356782 -0.233616 
3130 2 -323.693 1605.31 -365.606 0.739466 -0.539141 -0.0967175 0.39136 
3234 2 -685.327 1760.93 -384.479 0.147782 -0.59985 -0.499658 0.607192 
3233 2 -676.741 1765.37 -382.584 0.541028 0.0367307 -0.776296 0.321411 
3232 2 -669.734 1772.29 -381.459 0.647994 0.598986 -0.428463 -0.194265 
3199 2 -545.745 1706.36 -392.317 -0.118146 0.011939 0.371816 -0.92068 
3200 2 -546.599 1700.37 -384.588 0.7656 0.2374 0.288252 -0.52384 
3201 2 -544.509 1693.5 -377.638 0.825488 0.4749 -0.0844031 0.293115 
3202 2 -543.705 1685.14 -372.333 0.180338 0.384197 -0.29229 0.856993 
3198 2 -540.795 1711.42 -399.225 -0.748676 -0.0705893 0.36664 -0.547792 
3197 2 -536.067 1715.78 -406.779 -0.887824 -0.289423 0.182209 0.3079 
3196 2 -529.629 1715.42 -414.18 -0.335491 -0.2633 0.143305 0.893075 
3195 2 -522.136 1714.96 -420.712 0.438224 -0.344892 -0.119331 0.821443 
3203 2 -538.825 1678.84 -366.555 -0.678327 -0.073387 -0.472334 0.558021 
3194 2 -514.49 1711.57 -426.257 0.856457 -0.24245 -0.377593 0.25519 
3184 2 -487.668 1627.64 -434.033 -0.68671 0.706258 -0.152005 -0.0807646 
3179 2 -411.832 1623.6 -480.142 0.47245 0.847657 0.161424 -0.179475 
3185 2 -486.75 1637.43 -435.127 -0.331947 0.410538 -0.653376 -0.542558 
3178 2 -407.929 1629.22 -473.067 -0.082929 0.353735 0.850105 -0.381203 
3193 2 -508.619 1705.97 -431.952 0.788874 -0.123046 -0.440111 -0.4109 
3192 2 -502.813 1698.51 -434.532 0.0915603 0.293365 -0.507238 -0.805148 
3191 2 -495.591 1691.77 -434.823 -0.528161 0.688383 0.0827897 -0.490225 
3190 2 -488.141 1685.39 -433.89 -0.693973 0.36701 0.595211 0.171549 
3189 2 -484.279 1676.34 -435.51 -0.0915 -0.170412 0.561832 0.804321 
3188 2 -482.845 1666.55 -434.882 0.516335 -0.624576 0.427562 0.400616 
3186 2 -486.209 1647.25 -436.352 0.296234 -0.247572 -0.607009 -0.694617 
3187 2 -485.625 1657.04 -434.834 0.65173 -0.701146 -0.102972 -0.270259 
3172 2 -402.488 1666.98 -430.467 0.258404 0.938955 0.217069 0.0668716 
3171 2 -402.454 1673.97 -423.43 0.173426 0.493331 0.80411 -0.282763 
3177 2 -403.284 1635.4 -466.896 -0.296474 -0.341578 0.849167 -0.27266 
3176 2 -400.205 1641.58 -459.895 -0.377053 -0.854289 0.351191 0.0684606 
3175 2 -401.457 1647.44 -452.036 -0.290481 -0.818648 -0.476345 0.136134 
3182 3 -445.83 1639.13 -452.185 -0.545685 0.346223 -0.537023 -0.542184 
3174 2 -402.195 1654.8 -445.416 -0.0632215 -0.0861143 -0.89316 0.436866 
3173 2 -400.46 1661.24 -438.196 0.36044 0.729269 -0.544758 0.203688 
3170 2 -404.572 1680.9 -416.569 -0.0426908 -0.395559 0.845026 -0.357269 
3169 2 -404.901 1688.52 -410.314 -0.422075 -0.857003 0.257347 -0.145503 
3168 2 -405.157 1695.56 -403.48 -0.36289 -0.797489 -0.429977 0.217813 
3167 2 -408.337 1698.93 -394.693 -0.159995 -0.094287 -0.960803 0.205837 
3166 2 -411.876 1700.8 -385.593 -0.0874988 0.705403 -0.681694 0.173332 
3165 2 -415.795 1704.54 -377.218 0.207226 0.947195 0.171761 0.174289 
3164 2 -419.607 1708.48 -368.967 0.248833 0.491466 0.827798 -0.106272 
3163 2 -425.326 1712.72 -362.151 0.1976 -0.336158 0.874237 -0.289243 
3235 1 -699.673 1787.75 -420.573 0.773139 -0.426204 0.405627 -0.236797 
3238 2 -686.616 1827.99 -449.938 0.212609 0.534866 0.300674 0.760468 
3237 2 -696.132 1824.45 -450.037 0.63129 0.0756349 0.688155 0.349564 
3239 2 -676.839 1829.64 -448.609 -0.405916 0.557597 -0.32059 0.649261 
3240 2 -667.134 1830.77 -447.26 -0.834914 0.0176934 -0.548899 0.036273 
3236 3 -670.256 1803.44 -410.21 0.769315 -0.43813 0.419375 -0.2008 
3231 2 -663.231 1776.41 -375.215 0.174507 0.862169 0.228845 -0.416944 
3230 2 -657.057 1782.77 -370.841 -0.294533 0.190277 0.85732 -0.376892 
3241 2 -658.049 1830.54 -443.264 -0.610806 -0.429316 -0.359225 -0.559965 
3242 2 -648.85 1829.16 -439.586 0.0695797 -0.575761 0.129727 -0.804257 
3243 2 -639.36 1827.93 -437.482 0.668931 0.00830041 0.570645 -0.476263 
3244 2 -631.17 1823.03 -434.617 0.843822 0.343278 0.396164 0.1148 
3245 2 -623.629 1818.21 -430.363 0.347651 0.516499 -0.154585 0.767118 
3246 2 -616.966 1812.51 -425.653 -0.511092 0.266753 -0.223299 0.78598 
3247 2 -610.481 1810.96 -418.226 -0.910357 -0.000236719 -0.40015 0.105502 
3252 2 -566.317 1812.87 -399.352 -0.0477983 0.623466 0.332286 0.70611 
3253 2 -558.008 1818.23 -399.164 -0.534681 0.657837 -0.292988 0.442182 
3254 2 -549.071 1822.41 -398.255 -0.714641 0.117828 -0.676245 -0.134528 
3255 2 -540.095 1826.59 -398.051 -0.257324 -0.552079 -0.571986 -0.549386 
3256 2 -531.089 1829.35 -401.37 0.175073 -0.844894 0.124749 -0.489839 
3251 2 -575.881 1811.33 -401.107 0.679853 0.220835 0.551615 0.429829 
3250 2 -585.47 1811.27 -403.868 0.81241 -0.14116 0.536438 -0.179719 
3249 2 -594.946 1810.7 -406.426 0.323574 -0.579854 0.209554 -0.717744 
3248 2 -603.339 1809.64 -411.62 -0.468469 -0.368515 -0.322842 -0.735192 
3257 2 -522.278 1830.78 -406.045 0.638421 -0.430367 0.588302 -0.247191 
3229 2 -649.806 1787.89 -366.384 -0.511179 -0.532506 0.669609 0.0822053 
3228 2 -642.48 1793.63 -362.894 -0.299407 -0.815517 -0.0744396 0.489639 
3258 2 -512.802 1833.16 -407.805 0.528613 0.297958 0.746129 0.274009 
3263 3 -507.977 1810.26 -368.27 -0.304589 -0.797984 0.220716 0.470884 
3259 2 -503.261 1835.05 -410.363 0.0948841 0.530358 0.19014 0.82071 
3260 2 -493.821 1836.33 -407.489 -0.586853 0.5127 -0.236456 0.580372 
3261 2 -485.149 1839.81 -404.286 -0.809623 0.176764 -0.557264 -0.0521619 
3343 1 -548.779 2039.87 -470.4 0.993871 -0.0688769 0.0593782 -0.062857 
3336 2 -564.637 2006.66 -403.052 0.0172385 -0.894375 0.329625 -0.3019 
3344 3 -547.561 2043.21 -435.609 0.983999 -0.111204 0.0369104 -0.134231 
3335 2 -571.128 2007.16 -395.469 -0.241629 -0.777831 -0.509372 -0.27773 
3334 2 -577.95 2010.05 -388.846 -0.406567 -0.300872 -0.859536 0.0733286 
3333 2 -585.752 2012.5 -383.194 -0.232639 0.559363 -0.683166 0.40777 
3332 2 -593.57 2014.21 -377.554 0.115864 0.877759 0.0605891 0.460916 
3337 2 -558.446 2005.96 -410.964 0.212226 -0.491209 0.833722 -0.136317 
3338 2 -554.163 2005.5 -419.928 0.130395 0.419814 0.886409 -0.145029 
3341 2 -543.092 1998.03 -445.89 -0.0977256 0.144895 -0.979858 0.0966138 
3342 2 -540.286 1996.01 -455.169 -0.172206 -0.671014 -0.720882 -0.020333 
3339 2 -551.882 2002.85 -429.266 0.0809394 0.957043 0.1898 0.203698 
3340 2 -547.988 2001.48 -438.15 -0.0428422 0.660873 -0.690823 0.290129 
3331 2 -598.637 2016.47 -369.408 0.240879 0.570191 0.782493 0.0675553 
3372 2 -460.828 1961.26 -438.796 0.709212 -0.702492 -0.0354485 -0.0475969 
3373 2 -460.131 1971.16 -438.885 0.384125 -0.472991 0.513854 0.603888 
3374 2 -462.086 1980.8 -438.84 -0.0739289 0.310921 0.7286 0.605809 
3378 2 -461.058 2019.3 -438.222 0.580392 -0.458494 -0.4115 -0.532538 
3379 2 -460.973 2028.95 -435.7 0.771647 -0.561536 0.136279 0.265831 
3380 2 -461.658 2038.71 -434.056 0.269328 -0.266639 0.673153 0.635005 
3381 2 -460.624 2048.72 -433.981 -0.311402 0.498747 0.568274 0.575625 
3377 2 -460.189 2009.71 -440.519 0.00865454 0.0683268 -0.615338 -0.785249 
3376 2 -459.052 2000.05 -442.37 -0.618855 0.576626 -0.31761 -0.428539 