ITEM: TIMESTEP
100000000
ITEM: NUMBER OF ATOMS
4067
ITEM: BOX BOUNDS pp pp pp
-4.6310929470000001e+03 4.6704658980000004e+03
-4.6310929470000001e+03 4.6704658980000004e+03
-4.6310929470000001e+03 4.6704658980000004e+03
ITEM: ATOMS id type x y z c_q[1] c_q[2] c_q[3] c_q[4] 
3986 2 -678.847 3272.62 -693.556 0.114492 0.638228 0.76107 0.0181539 
3990 2 -684.032 3270.2 -731.023 -0.0535249 -0.798143 -0.562141 0.21 
3987 2 -676.862 3271.82 -703.17 -0.015281 0.999252 -0.012691 -0.0331899 
3988 2 -677.05 3272.33 -712.823 0.125172 0.692935 -0.702782 -0.101347 
3989 2 -681.115 3272.68 -721.87 0.159765 -0.0584234 -0.972786 0.15732 
3985 2 -677.041 3270.12 -684.134 -0.098449 -0.202586 0.965338 0.131869 
3991 1 -730.446 3276.18 -725.148 -0.840696 0.0362439 -0.30189 -0.448083 
3992 3 -717.363 3284.39 -693.848 -0.823278 0.0940276 -0.242131 -0.504723 
3984 2 -677.075 3268.65 -674.354 0.0742935 -0.972402 0.221 0.00854937 
3996 2 -758.882 3290.54 -672.432 -0.978629 0.12787 -0.145268 0.069516 
3994 2 -764.569 3287.34 -690.924 0.223294 0.105174 0.219813 0.943801 
3995 2 -761.74 3290.17 -681.832 -0.595535 0.118389 -0.166316 0.776956 
3993 2 -769.049 3283.66 -699.02 0.791853 -0.0474406 0.322858 0.516218 
3424 1 -533.582 2024.58 -565.8 -0.742222 0.00470064 -0.359398 -0.565613 
3426 2 -563.351 2030.22 -529.571 0.6863 0.0877542 0.419558 0.587591 
3427 2 -556.549 2034.19 -523.416 -0.0566823 0.338031 0.285557 0.894975 
3428 2 -551.188 2040.57 -517.877 -0.723449 0.550232 0.0385934 0.415183 
3425 3 -514.119 2041.39 -541.84 -0.75064 0.0233416 -0.31937 -0.577925 
3430 2 -543.232 2057.65 -514.361 -0.382623 0.0490972 -0.747237 -0.541135 
3431 2 -538.624 2066.45 -515.059 0.150243 -0.594229 -0.349717 -0.708532 
3432 2 -531.162 2072.9 -514.343 0.62677 -0.67149 0.207811 -0.336265 
3423 2 -490.803 2025.96 -585.692 0.124052 -0.828727 -0.518572 0.170013 
3422 2 -486.503 2025.56 -576.743 0.220087 -0.182429 -0.958267 0.0025212 
3421 2 -482.505 2025.04 -567.814 0.100941 0.773834 -0.601242 -0.171757 
3420 2 -478.12 2022.54 -559.317 -0.223818 0.888085 0.379904 -0.12994 
3419 2 -474.195 2021 -550.462 -0.23675 0.162162 0.954769 0.0779062 
3418 2 -470.811 2019.49 -541.37 -0.0373089 -0.732557 0.658218 0.169464 
3417 2 -467.592 2019.02 -532.049 0.0226979 -0.991772 0.0164874 0.124905 
3416 2 -463.94 2019.83 -523.051 0.0959412 -0.583438 -0.787401 0.17434 
3415 2 -459.299 2018.8 -514.395 0.258621 0.271618 -0.92156 -0.100327 
3447 2 -571.822 2175.48 -547.349 0.148788 -0.748367 0.47921 0.433782 
3448 2 -576.92 2182.08 -552.718 -0.463129 -0.190536 0.711639 0.492725 
3449 2 -585.043 2187.48 -554.751 -0.67312 0.337787 0.65788 -0.00197298 
3450 2 -593.857 2192.01 -555.335 -0.404187 0.724099 0.150606 -0.538175 
3446 2 -564.993 2169.8 -542.724 0.468037 -0.793823 -0.314283 0.228063 
3445 2 -557.991 2164.74 -538.157 0.504597 -0.191478 -0.828457 -0.149591 
3444 2 -549.945 2160.39 -534.379 0.327451 0.444982 -0.665692 -0.501619 
3443 2 -543.617 2155.04 -528.852 -0.207652 0.873554 -0.167392 -0.40714 
3442 2 -535.565 2150.07 -525.893 -0.557043 0.57981 0.593364 -0.0379792 
3441 2 -527.743 2146.32 -521.165 -0.427522 -0.0578383 0.863644 0.260766 
3440 2 -519.445 2141.33 -518.923 0.114031 -0.735845 0.285689 0.603251 
3434 2 -518.219 2087.18 -517.643 0.170565 0.248104 0.589191 0.749804 
3433 2 -523.759 2079.56 -514.59 0.537486 -0.33983 0.719543 0.279073 
3439 2 -513.732 2133.23 -519.368 0.730987 -0.61077 -0.19046 0.237366 
3438 2 -509.464 2124.26 -518.082 0.521784 -0.343237 -0.658848 -0.419344 
3436 2 -509.147 2104.56 -515.71 -0.673768 0.716259 -0.148827 -0.104213 
3437 2 -508.792 2114.38 -516.805 -0.301033 0.324404 -0.685339 -0.578317 
3435 2 -513.248 2095.54 -516.273 -0.487699 0.580835 0.29928 0.578975 
3838 2 -554.316 2926.4 -531.73 0.918285 -0.0461466 -0.380602 -0.098816 
3837 2 -547.758 2925.68 -539.057 0.535159 0.214458 -0.243544 -0.779935 
3836 2 -543.858 2923.11 -547.738 -0.387395 0.270709 -0.0286604 -0.880806 
3835 2 -537.26 2924.84 -554.927 -0.906489 0.0135469 0.318545 -0.276809 
3834 2 -530.921 2924.99 -562.419 -0.736986 -0.224859 0.277484 0.573841 
3833 2 -523.391 2922.58 -568.503 0.065173 -0.443884 0.149623 0.881097 
3839 2 -561.372 2927.28 -524.639 0.616905 -0.156055 -0.0691856 0.768302 
3840 2 -564.748 2928.51 -515.309 -0.254961 -0.325192 -0.045239 0.909505 
3832 2 -517.295 2917.91 -574.678 0.737997 -0.403056 -0.170601 0.513616 
3831 2 -510.53 2913.18 -580.083 0.875929 -0.17528 -0.413798 -0.175488 
3829 1 -472.383 2930 -557.931 0.636177 -0.271132 -0.178793 0.699856 
3830 3 -497.991 2934.75 -534.474 0.574683 -0.311231 -0.202992 0.729156 
3828 2 -450.931 2952.72 -522.511 0.0936886 -0.886908 -0.00774541 -0.452279 
3827 2 -459.062 2951.28 -517.085 -0.295052 -0.552801 -0.678591 -0.383236 
3927 2 -737.141 3104.4 -519.995 0.187645 -0.0982431 0.610287 0.76334 
3928 2 -736.748 3113.98 -517.319 -0.63107 0.389228 0.486082 0.462576 
3929 2 -739.621 3123.03 -514.746 -0.856586 0.494433 -0.0440484 -0.140915 
3926 2 -735.419 3094.74 -519.204 0.546098 -0.692208 0.264908 0.390447 
3954 2 -673.018 3145.57 -595.055 -0.0852054 -0.626349 0.254715 -0.731811 
3925 2 -734.888 3086.01 -514.664 0.469326 -0.746422 -0.412309 -0.229324 
3955 2 -664.465 3140.84 -593.973 0.549626 -0.142087 0.531903 -0.628333 
3910 1 -647.781 2996.66 -534.437 0.403411 -0.379012 0.364339 0.74891 
3963 2 -607.138 3113.31 -557.717 0.791963 0.216192 0.368595 0.436111 
3962 2 -614.987 3113.04 -563.936 0.781018 -0.234992 0.380769 -0.435666 
3961 2 -623.91 3113.2 -568.181 0.0472102 -0.5411 0.0258985 -0.839233 
3960 2 -632.236 3114.34 -573.462 -0.70782 -0.341474 -0.347659 -0.51139 
3959 2 -639.295 3115.46 -580.466 -0.839121 0.0750134 -0.407463 0.352454 
3958 2 -644.585 3121.45 -586.206 -0.193241 0.162567 -0.437585 0.862989 
3957 2 -651.287 3127.94 -589.338 0.532585 0.608815 -0.00309948 0.587953 
3956 2 -656.549 3136.25 -590.414 0.734877 0.514199 0.441074 -0.0317605 
3909 2 -619.746 3031.27 -550.102 -0.344455 -0.738607 -0.574718 0.0742222 
3908 2 -622.17 3037.17 -542.646 -0.215651 -0.200592 -0.913182 0.281703 
3907 2 -624.37 3044.53 -536.305 0.174368 0.650608 -0.615278 0.409559 
3911 3 -659.938 3024.75 -517.676 0.350912 -0.398196 0.368693 0.763129 
3906 2 -625.481 3046.65 -526.693 0.0831806 0.975442 0.197251 0.0518196 
3905 2 -625.124 3051.1 -517.865 0.10453 0.493703 0.84113 -0.194504 
3983 2 -672.078 3265.78 -666.228 0.313273 -0.68479 -0.652979 0.080873 
3953 2 -681.71 3150.07 -595.404 -0.609298 -0.599239 -0.354634 -0.379345 
3952 2 -690.061 3155.22 -594.019 -0.645099 -0.151452 -0.718045 0.212887 
3951 2 -699.684 3157.41 -593.007 -0.361945 0.562705 -0.523946 0.527105 
3950 2 -709.496 3158.52 -591.901 0.0977888 0.736583 0.0674934 0.665828 
3949 2 -718.853 3161.71 -591.934 0.654343 0.441244 0.59066 0.168107 
3948 2 -728.837 3162.1 -591.84 0.644097 -0.264633 0.632334 -0.339502 
3947 2 -737.518 3166.84 -591.817 -0.00600683 -0.602098 0.341415 -0.721718 
3946 2 -746.582 3170.67 -592.865 -0.569337 -0.611802 -0.272629 -0.476684 
3945 2 -754.799 3175.54 -590.32 -0.622599 -0.29566 -0.720521 0.0761912 
3944 2 -762.27 3182 -590.089 -0.188738 0.395986 -0.64373 0.627045 
3943 2 -767.201 3190.05 -587.003 0.462345 0.771983 -0.145616 0.411187 
3942 2 -772.642 3197.94 -584.404 0.600481 0.559199 0.561649 -0.106157 
3941 2 -779.521 3204.38 -581.156 0.386662 -0.180124 0.773885 -0.468135 
3940 2 -783.486 3212.55 -577.569 -0.268563 -0.609476 0.5539 -0.499607 
3939 2 -786.857 3220.74 -572.965 -0.476639 -0.85428 -0.107427 -0.17743 
3938 3 -759.965 3187.93 -543.243 -0.263707 0.449837 -0.716505 0.463385 
3937 1 -787.821 3203.45 -529.055 -0.262111 0.450276 -0.686533 0.507171 
3997 2 -756.701 3292.54 -662.97 -0.620663 0.143595 -0.114359 -0.762286 
3982 2 -667.88 3264.3 -657.305 0.152324 0.173009 -0.965417 -0.121797 
3998 2 -757.012 3296.1 -653.821 0.222536 0.0824388 -0.208828 -0.948721 
3981 2 -663.615 3262.46 -648.534 -0.012203 0.880787 -0.404489 -0.245875 
3964 1 -584.565 3150.57 -575.794 0.629015 -0.154081 -0.759328 -0.063403 
3980 2 -660.051 3261.49 -639.342 -0.10901 0.895743 0.376976 -0.208926 
3979 2 -657.245 3256.98 -631.029 -0.207664 0.457682 0.857859 0.107146 
3978 2 -655.206 3249.47 -624.866 0.0519478 -0.46147 0.765149 0.445975 
3977 2 -654.427 3241.48 -619.141 0.400449 -0.847206 0.286051 0.200143 
3976 2 -651.256 3233.87 -613.908 0.448855 -0.590943 -0.625467 -0.241053 
3975 2 -647.261 3226.47 -608.74 0.0741891 0.218812 -0.837316 -0.4955 
3965 3 -618.188 3157.75 -582.514 0.6109 -0.175892 -0.771727 -0.0173227 
3974 2 -644.263 3217.38 -605.817 -0.364927 0.724264 -0.3582 -0.46256 
3973 2 -640.477 3208.69 -603.03 -0.591139 0.739071 0.322305 -0.0211619 
3972 2 -636.177 3201.48 -597.888 -0.42162 0.381394 0.76296 0.307681 
3971 2 -630.533 3193.5 -596.313 0.0172026 -0.429171 0.632494 0.644568 
3970 2 -621.285 3190.56 -594.685 0.371851 -0.726821 -0.223892 0.532289 
3969 2 -611.729 3188.48 -596.102 0.7903 -0.177558 -0.582884 0.0643789 
3966 2 -582.593 3191.66 -598.855 -0.566885 0.408824 0.574857 -0.425493 
3967 2 -592.434 3191.08 -598.443 -0.00216554 0.721098 0.0908488 -0.686847 
3968 2 -602.296 3189.93 -598.944 0.630371 0.459328 -0.369397 -0.505169 
3999 2 -758.242 3300.3 -644.969 0.800833 -0.335967 -0.236483 -0.435739 
4000 2 -759.011 3308.22 -639.077 0.874616 -0.14305 0.0596804 0.459372 
4001 2 -758.973 3311.89 -629.89 0.331657 -0.0915475 0.137572 0.928815 
4002 2 -758.259 3313.97 -620.299 -0.382541 0.0699726 0.323542 0.862605 
4003 2 -759.232 3319.86 -612.206 -0.891685 0.340721 0.24417 0.170848 
4004 2 -761.264 3326.55 -605.275 -0.769166 0.349121 -0.0318492 -0.534307 
4005 2 -765.387 3331.89 -598.027 -0.0769699 0.345977 -0.339388 -0.871316 
4006 2 -770.813 3338.5 -592.916 0.435862 -0.208614 -0.538704 -0.690147 
4007 2 -772.987 3347.71 -589.651 0.839222 -0.452204 -0.261861 -0.150492 
4008 2 -776.241 3355.87 -585.192 0.691571 -0.501817 0.186022 0.485083 
4009 2 -778.929 3364.09 -580.638 0.0957393 -0.308548 0.424706 0.845728 
4010 2 -782.922 3371.62 -575.551 -0.656778 0.243575 0.25962 0.664764 
4011 2 -782.403 3378.09 -568.025 -0.966694 0.227512 0.111848 -0.0350963 
4012 2 -785.048 3382.53 -559.631 -0.609228 0.365495 -0.167332 -0.68356 
4013 2 -787.89 3389.23 -552.867 0.200449 -0.0182557 -0.433252 -0.87851 
4014 2 -789.363 3396.42 -546.079 0.816767 -0.411173 -0.237248 -0.327937 
4015 2 -790.364 3404.64 -540.639 0.716906 -0.410277 0.388368 0.408521 
4016 2 -788.74 3413.41 -536.303 0.267465 0.124534 0.625263 0.722496 
4017 2 -783.816 3421.83 -534.024 -0.447151 0.592892 0.266866 0.614262 
2914 2 -277.011 1442.24 -413.17 0.88964 -0.163305 -0.316095 0.286279 
2913 2 -268.108 1443.88 -417.079 0.742799 0.371197 -0.387109 -0.40076 
2915 2 -283.232 1442.91 -405.527 0.457431 -0.370163 -0.121871 0.799302 
2916 2 -290.201 1444.1 -398.537 -0.351346 -0.189971 0.25031 0.881936 
2911 1 -248.24 1404.56 -400.331 -0.861578 0.0388199 0.494457 -0.108115 
2917 2 -295.253 1446.98 -390.564 -0.934032 -0.0477291 0.227703 0.27103 
2918 2 -300.371 1446.9 -381.993 -0.818137 0.26534 0.224102 -0.458284 
2912 3 -277.576 1407.3 -381.446 -0.835682 0.0667484 0.531681 -0.120397 
2919 2 -305.968 1449.1 -374.078 -0.323945 0.118493 -0.154845 -0.925765 
2905 2 -293.362 1376.99 -363.483 -0.529544 -0.527435 -0.570592 -0.340324 
2909 2 -256.174 1368.06 -369.395 0.37538 0.758315 0.407512 0.343485 
2910 2 -247.61 1365.51 -373.786 -0.0422759 0.80919 -0.272324 0.518906 
2908 2 -264.553 1373.08 -368.044 0.685956 0.339853 0.638142 -0.0820972 
2907 2 -273.879 1375.9 -366.491 0.375883 -0.468879 0.624763 -0.498534 
2906 2 -283.786 1375.74 -365.805 -0.00739538 -0.752615 0.0033165 -0.658411 
2920 2 -308.386 1452.75 -365.247 0.622641 0.103345 -0.205333 -0.747981 
2904 2 -303.108 1379.03 -362.63 -0.639242 0.0252538 -0.754234 0.147859 
3181 1 -725.109 1600.95 -406.712 -0.862709 0.273051 -0.366404 0.216621 
3182 3 -696.68 1612.67 -390.014 -0.845761 0.271768 -0.42367 0.177015 
3180 2 -713.697 1564.99 -378.337 -0.193387 -0.66308 -0.566366 0.449617 
3179 2 -709.999 1572.42 -372.795 0.172169 0.0107264 -0.880786 0.440974 
3178 2 -703.673 1577.44 -367.151 0.448327 0.640613 -0.61842 -0.0785804 
3183 2 -720.96 1645.33 -422.407 0.783788 0.119204 0.564233 0.230452 
3184 2 -712.342 1646.25 -417.759 0.119406 0.432737 0.14524 0.881695 
3185 2 -703.875 1647.42 -412.633 -0.580857 0.42909 -0.258867 0.641463 
3186 2 -695.462 1650.37 -408.405 -0.788413 0.0514531 -0.605399 -0.0961738 
3187 2 -686.022 1652.54 -406.772 -0.298116 -0.586967 -0.472028 -0.586333 
3188 2 -676.334 1654.96 -407.22 0.11209 -0.627697 0.0979449 -0.764093 
3189 2 -666.559 1655.72 -404.924 0.74337 -0.312406 0.427737 -0.408466 
3190 2 -657.406 1656.69 -401.032 0.769698 0.376331 0.473301 0.204757 
3199 2 -574.981 1659.47 -400.584 -0.598299 0.316524 -0.407381 0.613101 
3198 2 -584.868 1659.46 -400.506 0.0255825 0.720149 0.0523718 0.691367 
3200 2 -566.592 1658.19 -395.502 -0.879368 -0.161399 -0.438252 -0.092724 
3201 2 -558.445 1655.83 -390.556 -0.534712 -0.607344 -0.28607 -0.513207 
3202 2 -549.037 1652.89 -389.828 0.0296345 -0.597979 0.40527 -0.690868 
3196 2 -602.508 1653.64 -407.115 0.764887 -0.262639 0.587804 -0.0213202 
3197 2 -593.298 1656.83 -404.791 0.539124 0.296292 0.429165 0.661342 
3203 2 -540.359 1648.14 -389.514 0.558521 -0.175872 0.736442 -0.338786 
3204 2 -531.034 1645.53 -391.609 0.606989 0.421292 0.633357 0.23008 
3205 2 -522.067 1642.4 -394.162 0.190625 0.763591 0.0255561 0.616391 
3195 2 -611.936 1651.21 -405.661 0.425535 -0.670367 0.345809 -0.499945 
3191 2 -648.764 1653.94 -397.302 0.242265 0.677073 0.110996 0.685974 
3194 2 -621.654 1649.64 -404.392 -0.0990666 -0.689065 -0.282692 -0.659894 
3192 2 -639.25 1651.13 -396.749 -0.387508 0.489337 -0.605717 0.493451 
3193 2 -629.772 1649.23 -398.822 -0.46295 -0.0340395 -0.885015 -0.0355906 
3209 3 -521.47 1684.98 -383.677 0.809521 0.0688974 -0.562266 -0.154225 
3214 2 -525.512 1738.26 -367.779 0.316442 0.340714 -0.257341 -0.847086 
3213 2 -520.78 1735.25 -376.049 -0.584467 0.294975 -0.0413704 -0.754769 
3212 2 -513.109 1731.83 -381.22 -0.877287 0.141741 0.456495 0.043476 
3206 2 -512.379 1640.82 -395.359 -0.334958 0.469647 -0.635035 0.513775 
3207 2 -503.041 1638.23 -397.103 -0.619291 -0.2292 -0.750376 0.0297128 
3208 1 -490.281 1683.6 -399.481 0.815494 0.0472089 -0.511815 -0.266059 
3210 2 -495.694 1729.45 -389.751 0.0102557 -0.579007 0.0177125 0.815066 
3211 2 -505.183 1729.62 -386.732 -0.621615 -0.203706 0.357583 0.666508 
3368 2 -541.31 1910.52 -388.919 -0.287682 -0.815098 -0.497478 0.0732745 
3369 2 -539.542 1905.03 -397.021 -0.227464 -0.860185 0.398105 -0.223281 
3325 2 -514.094 1911.95 -481.304 -0.790867 0.250463 0.549687 0.0981938 
3367 2 -541.778 1915.21 -380.104 -0.0405677 -0.0867756 -0.953911 0.28439 
3326 2 -522.764 1916.11 -478.896 -0.512983 0.599259 0.061577 -0.611511 
3327 2 -530.898 1920.54 -475.509 0.221888 0.593981 -0.433549 -0.640303 
3328 2 -540.26 1923.55 -475.358 0.774958 -0.133119 -0.598584 -0.153027 
3366 2 -542.202 1922.15 -373.159 0.221432 0.680397 -0.635818 0.289421 
3324 2 -505.76 1907.23 -483.32 -0.458882 -0.265584 0.592036 0.606948 
3323 2 -496.999 1904.39 -487.053 0.127297 -0.547415 0.0440476 0.825949 
3298 2 -507.788 1844.46 -404.493 0.661113 -0.681886 -0.127249 -0.285953 
3299 2 -505.628 1854.08 -403.533 0.707666 -0.375677 0.524809 0.287492 
3297 2 -507.269 1834.62 -403.373 0.304403 -0.267703 -0.681952 -0.608782 
3300 2 -500.608 1862.19 -400.89 0.123229 0.221885 0.507555 0.823389 
3296 2 -506.667 1825.06 -401.052 -0.13945 0.297718 -0.74257 -0.58353 
3322 2 -487.754 1904.06 -490.601 0.645054 -0.360234 -0.40875 0.53578 
3295 2 -501.613 1816.86 -398.631 -0.531036 0.793749 -0.021858 -0.295781 
3294 2 -495.072 1809.97 -395.733 -0.578383 0.423754 0.676962 0.166218 
3321 2 -479.38 1900.45 -494.772 0.808214 -0.120538 -0.513976 -0.260939 
3318 2 -452.196 1903.65 -502.785 -0.741318 0.0293481 0.57405 -0.346486 
3319 2 -460.059 1900.2 -497.911 -0.240067 0.582601 0.201478 -0.7499 
3320 2 -469.515 1899.76 -495.221 0.433079 0.57605 -0.364624 -0.589625 
3302 2 -488.433 1875.75 -394.387 -0.781963 0.461502 -0.414145 0.063508 
3303 2 -481.274 1882.23 -392.431 -0.516845 -0.15367 -0.686786 -0.487424 
3304 2 -473.171 1887.94 -391.87 0.218634 -0.457612 -0.480425 -0.71553 
3301 2 -495.743 1869.98 -397.509 -0.449692 0.584123 0.0679282 0.672282 
3305 2 -467.904 1896.15 -390.655 0.682094 -0.710236 -0.0542812 -0.165429 
3293 2 -486.954 1804.95 -393.033 -0.415053 -0.325059 0.69504 0.488864 
3292 2 -479.818 1798.17 -392.64 0.267019 -0.636554 0.253677 0.677604 
3291 2 -471.174 1793.17 -393.182 0.650666 -0.579954 -0.332862 0.359848 
3306 2 -466.083 1905.99 -390.12 0.41572 -0.533784 0.575933 0.458861 
3307 2 -465.844 1915.63 -392.188 -0.0802735 0.0564678 0.799273 0.592899 
3289 1 -443.036 1827.45 -377.316 -0.377003 0.619624 0.195939 -0.659957 
3290 3 -474.847 1838.68 -368.464 -0.369538 0.62315 0.180793 -0.665162 
3308 2 -466.348 1924.98 -395.344 -0.369128 0.740164 0.513427 0.228681 
3429 2 -547.801 2048.87 -513.532 -0.6257 0.512411 -0.553063 -0.200137 
3370 1 -555.455 1936.96 -427.915 -0.950934 0.271184 -0.133399 0.0662453 
3329 2 -548.788 1927.76 -472.469 0.615215 -0.516219 -0.389119 0.451236 
3371 3 -546.061 1956.24 -400.294 -0.949195 0.277656 -0.143157 0.0379789 
3342 2 -617.801 2025.27 -479.301 0.431849 -0.594737 -0.676914 -0.0397642 
3330 2 -558.102 1930.95 -470.771 0.192874 -0.513452 0.275441 0.789492 
3372 2 -564.656 1981.14 -442.03 0.341082 -0.294205 -0.0493079 -0.891446 
3334 2 -582.734 1959.75 -463.476 0.0224395 0.17737 -0.780066 -0.599611 
3341 2 -611.904 2019.4 -473.978 0.198831 0.315789 -0.835138 -0.40409 
3340 2 -604.852 2013.72 -470.096 -0.154128 0.803379 -0.253801 -0.516151 
3339 2 -598.847 2005.86 -469.86 -0.661738 0.625083 0.413969 -0.00193608 
3373 2 -559.773 1984.04 -433.829 0.86119 -0.414477 0.271238 -0.113977 
3332 2 -572.126 1943.36 -464.594 -0.709362 0.49501 0.500041 -0.0415986 
3338 2 -596.377 1996.56 -467.637 -0.27954 0.170666 0.797378 0.506872 
3336 2 -588.866 1978.19 -465.545 0.605512 -0.778245 -0.0613822 0.154668 
3337 2 -593.153 1987.09 -466.872 0.313548 -0.459675 0.533798 0.636746 
3335 2 -585.824 1968.82 -466.055 0.558268 -0.437904 -0.527493 -0.467257 
3333 2 -578.869 1950.64 -463.975 -0.503156 0.681265 -0.258097 -0.464863 
3331 2 -565.46 1936.87 -467.808 -0.572087 -0.088282 0.556624 0.595897 
3344 3 -596.986 2049.95 -438.817 0.858645 0.176326 0.0611425 -0.477388 
3343 1 -590.708 2063.01 -470.732 0.827475 0.167957 0.0452371 -0.533881 
3351 2 -549.231 2055.93 -406.269 0.77234 0.257148 0.442204 -0.376591 
3352 2 -544.792 2048.26 -401.932 0.746533 0.554149 -0.0446135 0.365538 
3353 2 -542.467 2039.44 -398.162 0.260043 0.265804 -0.583916 0.721643 
3350 2 -557.163 2061.2 -409.395 0.275508 -0.393844 0.451905 -0.751508 
3349 2 -563.579 2066.73 -414.674 -0.443624 -0.489811 0.0801377 -0.746231 
3348 2 -567.761 2073.61 -420.675 -0.888128 -0.359239 -0.285905 0.0208336 
3354 2 -541.799 2029.98 -395.387 -0.425229 -0.15517 -0.448037 0.770951 
3374 2 -553.7 1989.04 -427.776 0.61595 0.116551 0.526011 0.574747 
3375 2 -546.121 1993.28 -423.027 -0.116432 0.518027 0.0502062 0.845915 
3376 2 -537.362 1995.66 -419.137 -0.686134 0.54226 -0.241481 0.420549 
3377 2 -529.623 2000.71 -415.067 -0.782224 -0.0788661 -0.589502 -0.185454 
3378 2 -520.854 2001.83 -410.681 -0.345249 -0.454614 -0.315205 -0.758139 
3355 2 -540.754 2021.96 -389.69 -0.896949 -0.389164 0.015753 0.209251 
3356 2 -541.501 2014.27 -383.473 -0.505865 -0.367975 0.496084 -0.60216 
3357 2 -542.955 2004.88 -380.734 0.215125 0.225867 0.615712 -0.723605 
3358 2 -544.114 1995.08 -380.339 0.660151 0.670441 0.227453 -0.250948 
3365 2 -543.348 1929.05 -366.056 0.347408 0.922735 0.159212 -0.050201 
3359 2 -544.473 1985.13 -380.622 0.61431 0.480937 -0.374296 0.501224 
3360 2 -544.86 1975.75 -377.563 0.0464157 0.0613728 -0.487533 0.869707 
3361 2 -544.71 1967.49 -372.263 -0.563586 -0.423436 -0.427782 0.565752 
3364 2 -543.616 1939.01 -364.742 0.272957 0.221028 0.688492 -0.634523 
3363 2 -543.529 1948.88 -365.166 -0.381738 -0.384833 0.591637 -0.596779 
3362 2 -544.687 1957.98 -369.052 -0.821047 -0.559741 -0.0438889 -0.103183 
3379 2 -511.645 2003.07 -407.134 0.435931 -0.528139 0.15846 -0.711283 
3380 2 -503.044 2005.93 -402.964 0.811101 -0.217862 0.536183 0.0846058 
3316 1 -442.288 1942.39 -477.827 0.350173 -0.307926 -0.399679 0.789188 
3317 3 -468.497 1927.86 -459.657 0.436435 -0.283503 -0.42928 0.738153 
3414 2 -454.842 2017.24 -505.664 0.042444 0.875908 -0.435944 -0.202325 
3413 2 -446.96 2016.73 -499.634 -0.357019 0.696593 0.537031 -0.314473 
3309 2 -466.693 1932.74 -401.545 -0.349599 0.916813 -0.158443 -0.110138 
3310 2 -467.115 1940.09 -408.173 -0.273171 0.40652 -0.835521 -0.249047 
3311 2 -464.804 1946.43 -415.256 -0.0272127 -0.411387 -0.827234 -0.381712 
3312 2 -460.753 1952.71 -421.851 0.414856 -0.848557 -0.0781697 -0.318958 
3313 2 -456.558 1959.67 -427.291 0.363767 -0.698685 0.612 -0.0704925 
3381 2 -494.692 2009.57 -399.101 0.500947 0.332762 0.347569 0.719387 
3314 2 -450.98 1964.39 -434.043 0.205478 0.0806687 0.900062 0.375713 
3315 2 -446.946 1970.74 -440.285 -0.171956 0.714358 0.526002 0.428306 
3382 2 -486.462 2010.98 -393.977 -0.275375 0.445305 -0.0921068 0.846988 
3383 2 -478.01 2011.59 -388.86 -0.853738 0.116344 -0.39684 0.316407 
3412 2 -439.354 2018.46 -493.65 -0.391442 -0.0488659 0.915734 -0.07627 
3411 2 -436.294 2014.53 -485.081 0.0950118 -0.815239 0.510355 0.256701 
3410 2 -433.114 2008.83 -477.528 0.344256 -0.902357 -0.250479 0.0670857 
3409 2 -428.765 2004.09 -470.024 0.250005 -0.259576 -0.914786 -0.182443 
3408 2 -422.033 2002.5 -462.996 0.217344 0.540474 -0.750016 -0.313249 
3407 2 -416.36 2000.97 -454.993 -0.0221694 0.947661 0.00235052 -0.318499 
3406 2 -409.875 2002.09 -447.6 -0.253854 0.494063 0.804807 -0.209155 
3405 2 -402.523 2003.49 -440.937 -0.396531 -0.41224 0.815625 0.0870407 
3404 2 -394.761 2006.9 -435.688 -0.316542 -0.847523 0.214496 0.368101 
3403 2 -384.95 2005.67 -434.958 0.305382 -0.687181 -0.313982 0.579603 
3384 2 -470.522 2012.26 -382.464 -0.813364 -0.127184 -0.269655 -0.499549 
3385 2 -464.253 2012.37 -374.74 -0.0644551 -0.55253 -0.0163985 -0.830835 
3386 2 -455.249 2012.45 -370.906 0.456508 -0.259553 0.50885 -0.682133 
3387 2 -446.526 2008.67 -367.827 0.799037 0.0447417 0.580238 -0.1512 
3398 3 -380.735 1995.45 -392.849 -0.644313 0.520034 0.49724 -0.259189 
3402 2 -376.365 2001.1 -436.843 0.778772 -0.37789 -0.50047 0.0155764 
3401 2 -367.574 1996.27 -436.584 0.448564 0.336576 -0.606197 -0.563944 
3388 2 -437.387 2006.04 -365.253 0.579745 0.47493 0.464371 0.471908 
3389 2 -427.778 2003.53 -363.997 0.24623 0.619199 -0.0278408 0.74511 
3390 2 -418.854 1999.69 -361.981 -0.203843 0.334837 -0.488549 0.77952 
3400 2 -358.765 1991.66 -436.25 -0.252558 0.705577 -0.123956 -0.650393 
3397 1 -349.053 1981.81 -387.25 -0.593417 0.479899 0.605487 -0.225694 
3399 2 -349.478 1989.12 -433.897 -0.605631 0.408751 0.656835 -0.186284 
3347 2 -570.036 2079.38 -428.51 -0.47523 -0.0376691 -0.362494 0.800834 
3451 1 -607.997 2205.35 -512.308 -0.760876 -0.460428 -0.397922 -0.225239 
3346 2 -570.546 2086.39 -435.353 0.46578 0.217059 -0.34154 0.786946 
3345 2 -567.859 2092.92 -442.249 0.876347 0.352584 -0.264474 0.194305 
3452 3 -578.48 2187.95 -505.924 -0.756812 -0.474478 -0.338698 -0.295619 
3459 2 -545.864 2206.03 -470.265 -0.207814 0.831802 -0.25823 0.445236 
3458 2 -555.636 2205.68 -468.413 0.275501 0.665558 0.399624 0.56695 
3460 2 -537.018 2206.89 -474.78 -0.445056 0.445638 -0.763809 0.141166 
3461 2 -528.97 2207.75 -480.519 -0.451256 -0.248608 -0.72444 -0.457984 
3457 2 -565.332 2204.88 -466.319 0.652081 0.0798199 0.740468 0.141866 
3456 2 -575.027 2204.39 -464.271 0.536699 -0.412225 0.676474 -0.290532 
3455 2 -584.978 2204.5 -463.161 0.23604 -0.683883 0.300047 -0.62174 
3454 2 -594.644 2204 -465.256 -0.389255 -0.531224 -0.312504 -0.68456 
3453 2 -603.524 2208.45 -465.471 -0.717803 -0.371444 -0.5882 -0.0284651 
3462 2 -520.054 2211.7 -482.523 0.141816 -0.727469 -0.232431 -0.629803 
3463 2 -511.962 2217.28 -483.767 0.676204 -0.565852 0.299628 -0.364394 
3504 2 -392.629 2113.73 -495.36 -0.516559 -0.76217 0.256226 -0.2943 
3503 2 -394.664 2123.15 -492.656 -0.551895 -0.699682 -0.41982 0.172071 
3502 2 -398.484 2132.06 -491.072 -0.242707 -0.011266 -0.792497 0.559387 
3501 2 -397.977 2141.76 -489.015 0.449295 0.468099 -0.586141 0.485238 
3500 2 -396.887 2151.18 -485.802 0.556364 0.828643 -0.044986 -0.0422542 
3497 2 -401.262 2176.29 -471.724 -0.292184 -0.760655 0.46179 -0.350404 
3498 2 -397.931 2168.44 -476.623 0.0178156 -0.219642 0.84366 -0.489569 
3499 2 -396.056 2160.1 -481.707 0.321009 0.570537 0.614916 -0.43968 
3516 2 -409.151 2158.44 -389.177 0.144795 -0.638281 0.218009 0.72395 
3517 2 -417.371 2163.63 -387.599 -0.338168 -0.296126 0.675642 0.584345 
3515 2 -400.366 2153.72 -388.512 0.597355 -0.592429 -0.392898 0.371249 
3496 2 -405.878 2184.36 -468.321 -0.558653 -0.764578 -0.308823 -0.0891949 
3518 2 -425.38 2169.5 -388.091 -0.776273 0.335497 0.516533 0.134299 
3519 2 -432.566 2175.86 -386.395 -0.735002 0.442216 -0.0352732 -0.512808 
3495 2 -411.041 2192.06 -464.677 -0.419883 -0.260023 -0.769052 0.405765 
3520 2 -436.281 2183.4 -381.235 -0.111591 0.156328 -0.414229 -0.889676 
3494 2 -414.728 2198.17 -457.814 0.00145061 0.461486 -0.810486 0.360752 
3521 2 -439.021 2191.01 -375.452 0.632249 -0.0669101 -0.364183 -0.680555 
3522 2 -442.793 2197.31 -368.828 0.950204 -0.250686 -0.149006 0.109844 
3514 2 -392.562 2148.28 -390.818 0.766595 -0.107027 -0.560506 -0.294466 
3506 3 -377.862 2132.9 -449.273 -0.120875 0.0168138 0.587989 0.79961 
3513 2 -384.137 2145.11 -394.892 0.284843 0.334175 -0.39018 -0.80929 
3505 1 -369.789 2099.59 -456.5 -0.146325 -0.000790847 0.635991 0.757696 
3512 2 -376.752 2140.45 -399.486 -0.450751 0.511654 0.00761411 -0.73142 
3511 2 -369.876 2137.34 -406.08 -0.884996 0.237724 0.314307 -0.247952 
3493 2 -420.532 2204.6 -453.147 0.338453 0.845088 -0.066855 0.408419 
3492 2 -425.276 2211.69 -448.031 0.467163 0.610306 0.631968 -0.0995065 
3510 2 -363.293 2131.59 -410.912 -0.725426 0.0677487 0.505082 0.462666 
3491 2 -431.766 2217.7 -444.037 0.31205 -0.159484 0.834352 -0.425496 
3490 2 -438.754 2223.24 -439.751 -0.171583 -0.811143 0.296743 -0.473866 
3464 2 -503.467 2222.38 -483.572 0.609767 -0.239191 0.736346 0.169608 
3465 2 -495.153 2227.48 -484.862 0.276035 0.43511 0.573032 0.637274 
3489 2 -444.731 2229.38 -434.819 -0.50492 -0.759298 -0.408449 -0.0411459 
3527 2 -469.987 2229.86 -363.379 -0.270284 0.706138 -0.468086 -0.457396 
3509 2 -357.392 2124.82 -415.236 0.0146776 -0.332187 0.417055 0.845873 
3508 2 -352.757 2116.06 -415.915 0.587391 -0.633465 0.177531 0.471357 
3507 2 -348.872 2107.03 -414.864 0.656577 -0.576646 -0.467895 -0.132133 
3588 2 -309.633 2220.11 -417.011 0.637761 -0.5019 -0.028722 0.583551 
3586 1 -302.613 2192.93 -379.114 0.775901 -0.391906 -0.489093 0.0719429 
3587 3 -331.377 2211.12 -370.776 0.772763 -0.434922 -0.454928 0.081977 
3589 2 -316.17 2225.99 -412.26 0.0278414 -0.430289 0.423225 0.796842 
3466 2 -486.778 2232.73 -485.351 -0.28586 0.73413 0.137818 0.600286 
3467 2 -478.805 2238.49 -486.198 -0.711221 0.605339 -0.340745 0.10781 
3468 2 -472.791 2246.36 -485.808 -0.538826 0.176511 -0.670987 -0.477793 
3469 2 -467.425 2254.53 -484.564 0.145355 -0.298249 -0.710072 -0.621061 
3470 2 -465.521 2263.86 -487.041 0.551816 -0.668689 -0.297421 -0.399869 
3472 2 -461.76 2283.08 -488.175 0.409128 -0.174135 0.698371 0.560864 
3473 2 -458.617 2292.45 -488.996 -0.257862 0.328612 0.543417 0.728162 
3474 2 -456.548 2302 -487.084 -0.700041 0.506624 0.0789879 0.497027 
3471 2 -462.402 2273.25 -487.353 0.684588 -0.689504 0.195912 0.132448 
3475 2 -452.592 2310.23 -483.095 -0.81292 0.284109 -0.401752 -0.311511 
3476 2 -447.313 2317.02 -478.374 -0.387033 -0.153187 -0.496114 -0.761978 
3477 2 -441.495 2323.56 -473.73 0.36571 -0.454778 -0.207157 -0.785187 
3530 2 -485.512 2252.16 -374.487 0.502615 -0.733069 0.138104 0.436939 
3531 2 -490.281 2260.77 -375.934 -0.0512633 -0.321195 0.693336 0.643032 
3488 2 -449.342 2233.47 -426.92 -0.270351 -0.202931 -0.922541 0.186136 
3487 2 -454.073 2239.89 -420.893 0.0571677 0.620469 -0.642057 0.446668 
3479 3 -456.794 2285.61 -441.681 0.627538 0.773202 -0.0594015 -0.0694685 
3478 1 -453.162 2317.85 -428.357 0.567036 0.815518 -0.0161555 -0.114629 
3486 2 -458.61 2247.14 -416.058 0.470837 0.82645 0.229833 0.206082 
3485 2 -464.688 2252.65 -410.423 0.420611 0.32512 0.830548 -0.166051 
3484 2 -469.262 2259.19 -404.765 -0.00491274 -0.461054 0.742333 -0.486155 
3483 2 -475.119 2266.54 -401.656 -0.435129 -0.805806 0.0670704 -0.396032 
3482 2 -476.52 2275.77 -398.272 -0.460095 -0.649178 -0.537126 0.279959 
3481 2 -472.167 2284.35 -395.674 0.163528 -0.0854314 -0.786159 0.589843 
3480 2 -468.177 2292.34 -391.522 0.463796 0.564012 -0.671246 0.127326 
3640 1 -370.716 2345.2 -474.352 -0.845664 0.294014 -0.0362492 -0.443952 
3642 2 -416.085 2357.54 -478.039 -0.835159 0.188418 -0.26569 -0.443189 
3643 2 -413.32 2361.42 -469.416 -0.134866 -0.0170924 -0.168911 -0.976211 
3641 3 -378.24 2358.16 -442.814 -0.816214 0.327407 -0.0701474 -0.470829 
3629 2 -371.218 2346.44 -364.187 -0.12811 -0.660098 -0.739222 -0.037549 
3644 2 -412.869 2364.95 -460.155 0.775574 -0.18914 -0.15848 -0.581029 
3630 2 -369.344 2345.84 -373.823 -0.0434605 -0.981626 0.179532 -0.0478486 
3631 2 -367.572 2344.5 -383.586 0.203589 -0.412579 0.872623 -0.163888 
3529 2 -479.992 2244.36 -371.864 0.592523 -0.612146 -0.520769 -0.0547039 
3645 2 -413.605 2369.66 -451.439 0.901256 -0.286716 0.143694 0.291347 
3646 2 -412.074 2376.32 -444.347 0.336878 -0.154726 0.366419 0.853411 
3632 2 -361.959 2342.83 -391.551 0.185851 0.543937 0.806249 0.139839 
3528 2 -473.898 2237.56 -368.141 0.288764 0.0683693 -0.825413 -0.480244 
3633 2 -356.656 2342.66 -399.723 -0.0427052 0.978419 0.0427586 0.197596 
3590 2 -322.469 2232.79 -408.888 -0.551056 0.154498 0.48222 0.663274 
3635 2 -346.89 2344.66 -416.6 -0.309295 -0.224771 -0.924013 0.00391453 
3591 2 -326.255 2241.02 -405.001 -0.945987 0.22396 0.212211 -0.0995821 
3592 2 -330.983 2245.19 -397.418 -0.366479 0.342142 -0.127092 -0.85585 