ITEM: TIMESTEP
100000000
ITEM: NUMBER OF ATOMS
4067
ITEM: BOX BOUNDS pp pp pp
-4.6310929470000001e+03 4.6704658980000004e+03
-4.6310929470000001e+03 4.6704658980000004e+03
-4.6310929470000001e+03 4.6704658980000004e+03
ITEM: ATOMS id type x y z c_q[1] c_q[2] c_q[3] c_q[4] 
3288 2 -487.438 1820.85 -691.215 -0.124203 0.91348 0.150761 -0.356931 
3287 2 -480.409 1818.95 -684.471 -0.367858 0.52955 0.756396 -0.110102 
3286 2 -473.58 1818.47 -677.339 -0.328363 -0.33626 0.869128 0.154023 
3285 2 -465.491 1817.33 -671.655 -0.055142 -0.84796 0.244413 0.467104 
3940 2 -525.484 2921.74 -679.124 -0.549544 0.0540121 0.245178 0.796851 
3939 2 -522.795 2920.24 -688.684 0.346893 -0.12745 0.0712454 0.92647 
3941 2 -527.175 2926.54 -670.522 -0.909036 0.388544 0.130562 0.0751109 
3937 1 -480.852 2900.42 -680.352 -0.876268 0.231228 0.0454234 -0.420268 
4020 2 -510.355 3187.91 -678.928 -0.681628 -0.487631 0.346036 -0.421731 
4021 2 -510.308 3178.72 -675.136 -0.178932 -0.046695 0.560966 -0.80692 
4022 2 -511.489 3169.66 -671.252 0.52471 0.330932 0.411306 -0.667826 
4023 2 -511.976 3160.6 -667.47 0.861679 0.505404 0.00704779 -0.0450212 
4000 2 -410.747 3150.12 -672.066 0.135769 -0.52241 -0.0443991 0.840645 
3999 2 -401.459 3153.09 -673.876 0.61747 -0.160816 -0.591313 0.493172 
3998 2 -392.326 3156.75 -672.325 0.632776 0.449276 -0.613327 -0.146889 
3997 2 -383.798 3161.01 -669.643 0.236054 0.78094 0.0158323 -0.578067 
3996 2 -374.345 3163.58 -668.559 -0.36429 0.447708 0.536291 -0.615826 
4001 2 -419.841 3150.8 -668.049 -0.523932 -0.335267 0.44244 0.646017 
3235 1 -191.523 1620.68 -585.412 0.765353 -0.461737 -0.334405 0.298674 
3260 2 -400.143 1665.19 -548.893 0.480569 0.623449 -0.17088 -0.592591 
3261 2 -409.273 1661.26 -547.596 0.752317 0.225851 -0.618864 0.00423913 
3262 1 -418.278 1699.01 -520.816 0.37641 -0.109975 0.913479 0.108524 
3263 3 -396.759 1711.71 -545.334 0.357593 -0.0915917 0.910234 0.187649 
3259 2 -390.373 1666.9 -547.38 -0.263097 0.6372 0.376088 -0.619123 
3258 2 -380.691 1666.25 -545.08 -0.614894 0.186286 0.759568 -0.101284 
3257 2 -370.715 1665.75 -543.693 -0.490128 -0.460365 0.594111 0.441442 
3183 2 -417.731 1630.23 -527.315 0.706093 -0.26119 0.563679 -0.339821 
3184 2 -408.038 1630.26 -525.809 0.756272 0.35814 0.38786 0.386462 
3265 2 -410.536 1747.63 -518.612 0.214243 -0.613526 0.754697 0.090098 
3266 2 -407.668 1751.64 -527.22 -0.0243012 0.398091 0.888448 0.227141 
3267 2 -406.216 1754.97 -536.309 -0.0851585 0.946414 0.295677 0.0980964 
3185 2 -399.406 1628.44 -521.51 0.312591 0.378261 -0.000299308 0.871324 
3268 2 -405.379 1757.2 -545.962 -0.131504 0.895453 -0.415607 -0.0902309 
3269 2 -405.598 1760.31 -555.36 -0.119405 0.0963056 -0.971759 -0.179309 
3270 2 -402.928 1763.96 -564.189 0.303798 -0.660495 -0.622618 -0.289484 
3271 2 -402.145 1771.82 -570.315 0.305466 -0.950699 0.0520964 -0.0121903 
3186 2 -392.935 1625.72 -514.634 -0.51944 0.268721 -0.444052 0.678815 
3243 2 -262.426 1621.87 -592.77 -0.806215 -0.198962 0.345777 0.436886 
3256 2 -360.906 1666.54 -541.88 -0.137991 -0.7413 0.075221 0.652514 
3242 2 -255.801 1622 -600.091 -0.0828056 -0.359589 0.0513726 0.928009 
3241 2 -248.468 1621.82 -606.916 0.69201 -0.252916 -0.344051 0.582052 
3240 2 -241.672 1624.48 -613.488 0.891481 0.247891 -0.289687 -0.244729 
3239 2 -233.214 1625.46 -618.426 0.311832 0.497532 -0.0529858 -0.807722 
3238 2 -224.618 1625.41 -623.314 -0.465288 0.458108 0.207785 -0.728334 
3255 2 -351.027 1666.34 -541.356 0.43799 -0.594199 -0.349441 0.577047 
3254 2 -341.389 1667.92 -543.317 0.768036 0.0437831 -0.638435 0.0245861 
3245 2 -277.995 1622.38 -580.75 -0.324809 0.612996 -0.0798641 -0.715791 
3246 2 -286.523 1627 -578.665 0.454794 0.28686 -0.489813 -0.686263 
3244 2 -270.05 1621.78 -586.67 -0.854126 0.168756 0.395329 -0.292756 
3247 2 -294.237 1632.17 -575.131 0.856244 -0.261955 -0.432008 -0.107677 
3253 2 -331.802 1666.56 -545.852 0.421975 0.473913 -0.337922 -0.695092 
3252 2 -323.641 1662.97 -550.224 -0.294883 0.501735 -0.00508518 -0.813191 
3248 2 -300.828 1637.52 -570.333 0.598216 -0.550973 -0.0234117 0.581393 
3249 2 -307.576 1643.28 -565.749 0.0866221 -0.276652 0.390823 0.873623 
3250 2 -312.161 1650.52 -560.871 -0.658833 0.034147 0.450127 0.601796 
3251 2 -317.737 1656.99 -555.6 -0.88026 0.385513 0.217882 -0.170441 
3229 2 -228.162 1637.37 -521.792 -0.412463 -0.124329 -0.89737 -0.0956256 
3236 3 -220.699 1637.89 -575.956 0.760883 -0.486258 -0.29054 0.316539 
3230 2 -221.116 1637.75 -528.745 -0.312416 -0.798329 -0.301476 -0.417348 
3231 2 -212.777 1635.63 -533.648 0.0512133 -0.78148 0.313302 -0.53713 
3237 2 -214.973 1625.38 -626.133 -0.773089 0.0845692 0.600809 -0.184956 
3228 2 -236.693 1636.57 -516.826 -0.372102 0.630021 -0.597561 0.327924 
3234 2 -186.331 1625.89 -538.803 0.36792 0.687304 0.124448 0.613808 
3233 2 -195.23 1630.07 -538.406 0.687872 0.361812 0.626586 0.0575737 
3232 2 -204.228 1634.14 -538.366 0.496701 -0.229467 0.67956 -0.488703 
3289 1 -520.321 1837.38 -661.671 -0.819135 -0.263339 -0.369514 -0.350898 
3291 2 -536.083 1850.82 -619.302 -0.749439 0.165631 -0.599305 -0.227468 
3292 2 -527.761 1855.9 -617.458 -0.31568 -0.172001 -0.583927 -0.727868 
3293 2 -521.582 1863.01 -614.132 0.491658 -0.52375 -0.297439 -0.628879 
3294 2 -517.448 1871.41 -611.194 0.772084 -0.510125 0.377012 -0.039002 
3343 1 -515.041 1811.9 -514.325 0.598273 -0.0272957 0.609421 0.519548 
3284 2 -458.249 1815 -665.213 0.353321 -0.717378 -0.560608 0.215063 
3283 2 -451.95 1813.69 -657.782 0.365163 0.0298934 -0.929889 -0.0327025 
3282 2 -443.7 1811.38 -653.113 0.204411 0.600849 -0.652937 -0.413365 
3281 2 -435.174 1809.36 -648.501 -0.161066 0.837624 0.10653 -0.510974 
3295 2 -511.363 1879.13 -609.528 0.420161 -0.0938938 0.630104 0.646233 
3299 2 -493.512 1912.12 -599.543 -0.0182795 0.0507126 -0.46888 -0.881616 
3296 2 -507.313 1888.1 -607.905 -0.196586 0.453647 0.519138 0.697176 
3298 2 -497.258 1904.75 -605.049 -0.800486 0.248772 -0.366467 -0.403778 
3297 2 -503.434 1897.31 -607.502 -0.74861 0.579782 -0.221804 0.232892 
3342 2 -484.194 1801.39 -548.484 -0.432817 -0.63284 -0.498184 0.404964 
3290 3 -493.279 1830.95 -640.683 -0.779427 -0.292388 -0.357842 -0.423026 
3279 2 -423.6 1802.81 -634.458 -0.200987 -0.375613 0.878565 0.215968 
3278 2 -418.437 1801.71 -626.156 0.0041134 -0.9219 0.260219 0.287002 
3277 2 -411.631 1800.12 -619.183 0.303097 -0.760705 -0.538365 0.199055 
3276 2 -406.389 1796.97 -611.455 0.278829 0.0429465 -0.932815 -0.2242 
3280 2 -428.435 1805.08 -642.669 -0.443003 0.418282 0.791932 0.0403887 
3341 2 -482.744 1810.92 -545.781 0.178109 0.190751 -0.802612 0.536381 
3340 2 -480.625 1819.71 -541.679 0.501777 0.684631 -0.491721 0.194194 
3339 2 -479.094 1829.48 -541.38 0.61545 0.699007 0.222998 -0.287893 
3338 2 -479.105 1839.29 -540.707 0.162643 0.170033 0.679262 -0.695154 
3275 2 -403.888 1794.63 -602.148 0.0208652 0.86234 -0.473389 -0.178427 
3334 2 -482.648 1874.85 -528.872 0.193889 0.209701 -0.833965 0.47216 
3335 2 -484.12 1866.9 -534.691 -0.330506 -0.46793 -0.685486 0.449351 
3336 2 -484.693 1857.9 -538.836 -0.66519 -0.725638 -0.164115 -0.0635437 
3337 2 -480.773 1849.09 -541.133 -0.429139 -0.473963 0.481994 -0.599067 
3274 2 -402.789 1790.87 -593.051 -0.186283 0.920674 0.34244 0.0198294 
3273 2 -403.022 1783.93 -585.907 -0.076276 0.258775 0.890667 0.365964 
3272 2 -401.596 1777.9 -578.1 0.132477 -0.576461 0.768148 0.245134 
3333 2 -480.39 1883.77 -525.231 0.591043 0.752569 -0.285789 0.0513079 
3332 2 -476.588 1892.67 -523.415 0.416711 0.670886 0.363203 -0.494314 
3330 2 -480.511 1911.35 -528.309 -0.467845 -0.528918 0.41136 -0.576324 
3300 2 -494.32 1920.56 -594.357 0.666886 -0.193805 -0.456053 -0.556524 
3331 2 -479.25 1901.58 -527.079 0.150901 -0.0836242 0.56695 -0.805483 
3329 2 -483.267 1920.65 -529.779 -0.746604 -0.623082 -0.22744 0.0512034 
3306 2 -525.455 1943.66 -553.512 -0.511937 0.178116 0.0934515 -0.835142 
3308 2 -531.947 1944.52 -534.851 0.965801 -0.00608704 -0.128211 -0.225285 
3309 2 -534.482 1946.19 -525.424 0.851549 -0.0893488 -0.0673269 0.512199 
3307 2 -528.466 1943.81 -544.139 0.398883 0.114884 -0.0983489 -0.904445 
3305 2 -519.457 1941.63 -561.07 -0.92658 0.177771 0.272178 -0.189121 
3310 2 -536.491 1947.77 -515.957 0.118993 -0.0300331 0.193261 0.973442 
3301 2 -497.43 1928.23 -589.122 0.862681 -0.448014 -0.19758 0.126595 
3304 2 -512.771 1939.92 -568.251 -0.724359 -0.186901 0.390319 0.536678 
3303 2 -507.239 1938.42 -576.224 -0.319472 -0.216127 0.189343 0.902982 
3302 2 -502.234 1935.33 -584.212 0.396234 -0.305258 0.0416021 0.864919 
3328 2 -481.621 1930.13 -531.906 -0.462383 -0.440394 -0.45951 0.617338 
3451 1 -366.757 2032.56 -517.85 0.786186 0.211534 -0.561573 -0.147651 
3324 2 -473.726 1967.47 -540.687 0.170098 0.303242 0.632601 -0.692046 
3325 2 -475.413 1957.79 -540.051 0.694211 0.600034 0.17863 -0.355136 
3326 2 -477.455 1948.54 -537.737 0.759643 0.480206 -0.279144 0.338266 
3327 2 -479.773 1939.59 -534.324 0.223074 -0.0200885 -0.620751 0.751334 
3323 2 -472.374 1977.18 -540.289 -0.351207 -0.299878 0.626417 -0.627956 
3322 2 -471.203 1986.44 -537.099 -0.544822 -0.757235 0.335778 -0.130449 
3321 2 -471.175 1994.43 -531.153 -0.402419 -0.817403 -0.342629 0.229165 
3450 2 -363.824 1985.59 -520.837 -0.346415 0.67686 -0.625227 0.175924 
3320 2 -470.939 2001.9 -524.598 -0.117722 -0.160589 -0.899179 0.389653 
3319 2 -470.199 2009.17 -518.058 0.278535 0.561729 -0.724774 0.285624 
3942 2 -528.781 2933.52 -663.572 -0.621424 0.248401 -0.0430001 -0.741809 
3952 2 -565.281 2972.65 -582.914 0.903815 -0.304833 -0.195506 0.227976 
3953 2 -570.142 2977.49 -575.758 0.377654 -0.294716 0.261434 0.837957 
3954 2 -574.295 2983.62 -569.122 -0.550928 -0.00490219 0.314613 0.772964 
3951 2 -561.12 2967.01 -589.897 0.582331 -0.0489134 -0.355732 -0.729351 
3950 2 -558.124 2963.45 -598.498 -0.0391904 0.151018 -0.18585 -0.970112 
3949 2 -554.032 2958.7 -606.128 -0.738586 0.339782 -0.0205382 -0.581908 
3955 2 -577.818 2987.72 -560.783 -0.960348 0.237553 0.144695 -0.0190718 
3948 2 -548.365 2954.79 -613.303 -0.92151 0.135648 0.32655 0.160572 
3947 2 -542.58 2953.14 -621.236 -0.54264 -0.107198 0.296846 0.778417 
3946 2 -537.351 2949.04 -628.608 0.134848 -0.317865 0.149283 0.926549 
3945 2 -534.325 2944.57 -636.977 0.85678 -0.292542 -0.0221346 0.424097 
3944 2 -534.02 2941.11 -646.129 0.908313 -0.15513 -0.141771 -0.361667 
3956 2 -580.084 2992.14 -552.175 -0.517597 0.276651 -0.189786 -0.787108 
3943 2 -531.47 2937.13 -654.798 0.163325 0.149506 -0.242962 -0.944427 
3900 2 -572.009 2877.64 -516.935 0.439691 -0.378159 -0.437824 -0.687007 
3899 2 -578.45 2870.31 -516.01 -0.392736 -0.0176856 -0.733578 -0.554354 
3898 2 -585.765 2863.67 -515.246 -0.664042 0.50167 -0.554396 0.00450351 
3921 2 -499.015 2880.61 -520.523 -0.240298 0.407642 -0.861828 -0.182588 
3922 2 -496.201 2886.06 -528.396 0.0137416 -0.423161 -0.902738 -0.0762185 
3923 2 -495.793 2887.46 -538.26 -0.0857202 -0.973531 -0.175434 -0.118799 
3924 2 -493.441 2886.26 -547.774 0.0711363 -0.678426 0.73022 0.038169 
3925 2 -493.42 2887.35 -557.594 0.203792 0.217261 0.950676 0.0864994 
3926 2 -488.907 2887.36 -566.316 0.121939 0.885213 0.403945 0.195848 
3927 2 -484.722 2886.95 -575.262 -0.0838812 0.90345 -0.350317 0.232421 
3936 2 -445.69 2886.32 -652.251 -0.149725 -0.570786 -0.785703 -0.185626 
3935 2 -450.208 2884.92 -643.547 -0.241073 0.320489 -0.915968 0.0131899 
3934 2 -453.554 2883.74 -634.454 -0.114895 0.909348 -0.377823 0.130904 
3931 2 -464.539 2887.38 -607.852 0.217323 -0.479644 0.821106 -0.220222 
3933 2 -456.462 2884.3 -625.076 0.0709978 0.870661 0.475571 0.10364 
3932 2 -458.703 2887.12 -615.889 0.104579 0.259686 0.957167 -0.0738702 
3928 2 -479.743 2886.4 -583.664 -0.208209 0.291198 -0.906999 0.221824 
3930 2 -469.781 2885.82 -599.565 0.119468 -0.935709 0.089137 -0.319736 
3929 2 -474.706 2882.99 -591.455 -0.165606 -0.516943 -0.800507 -0.254034 
3938 3 -491.447 2910.55 -648.461 -0.900535 0.175116 0.0450373 -0.395402 
3957 2 -583.022 2997.4 -544.344 0.30717 0.0575013 -0.227608 -0.922244 
3958 2 -585.902 3001.8 -536.035 0.925082 -0.210659 -0.200031 -0.24461 
3960 2 -592.447 3012.58 -520.888 0.272675 -0.128235 0.343362 0.889554 
3959 2 -589.555 3006.6 -528.131 0.81753 -0.346829 0.0617267 0.455571 
3964 1 -549.035 3053.8 -517.115 -0.187165 -0.304872 -0.839122 0.409752 
3965 3 -551.985 3025.55 -537.462 -0.194922 -0.348733 -0.818441 0.412971 
3966 2 -512.452 3057.84 -546.562 0.611319 0.532377 0.58013 0.0794632 
4027 2 -503.871 3127.78 -648.562 -0.564758 -0.662122 0.149439 -0.469373 
4026 2 -506.892 3136.37 -652.737 -0.837158 -0.427799 -0.308968 0.143854 
4029 2 -495.856 3110.39 -644.151 0.705876 0.316288 0.536594 -0.337295 
4030 2 -490.649 3102.11 -642.32 0.708121 0.622977 0.0714608 0.324588 
4028 2 -499.407 3119.07 -647.242 0.0252699 -0.212783 0.564764 -0.796948 
4044 2 -386.321 3040.26 -658.497 0.1861 0.529598 0.750171 0.349479 
4043 2 -392.501 3036.47 -651.776 0.379919 -0.191726 0.89792 0.112438 
4042 2 -402.02 3035.95 -649.478 0.379272 -0.646326 0.439386 -0.495334 
4041 2 -411.498 3037.6 -647.148 -0.257748 -0.76869 -0.11562 -0.573858 
3967 2 -504.77 3051.82 -548.285 0.217645 0.81189 -0.0565871 0.53876 
3968 2 -496.773 3046.5 -550.689 -0.469112 0.389006 -0.581518 0.53893 
4045 1 -397.536 3084.43 -646.575 -0.970042 -0.207201 -0.108388 0.0658684 
3969 2 -487.134 3043.97 -550.989 -0.52118 -0.18591 -0.827997 -0.0907227 
3970 2 -478.19 3044.63 -554.864 -0.202538 -0.718545 -0.461281 -0.479471 
4047 2 -406.144 3118.86 -615.384 -0.610304 -0.332997 -0.0454326 -0.717341 
4048 2 -400.375 3115.65 -607.907 0.28718 -0.321317 0.144789 -0.890685 
4049 2 -393.23 3114.67 -601.139 0.830328 0.140089 0.353392 -0.407485 
4040 2 -420.272 3040.6 -643.877 -0.550226 -0.494727 -0.652999 -0.161521 
4046 3 -390.439 3069.46 -615.566 -0.961087 -0.25394 -0.107815 0.0142485 
4039 2 -426.262 3047.32 -639.995 -0.278896 0.0550874 -0.868859 0.405298 
4031 2 -485.708 3093.63 -641.04 0.148985 0.35046 -0.479375 0.790684 
4032 2 -480.9 3085.56 -638.12 -0.576133 0.0242519 -0.602925 0.55133 
4033 2 -473.837 3078.9 -636.498 -0.759793 -0.533243 -0.369093 -0.0462235 
4034 2 -467.393 3071.62 -635.21 -0.344627 -0.578027 0.0323532 -0.738966 
4035 2 -459.358 3066.76 -632.268 0.254296 -0.421912 0.560004 -0.666122 
4038 2 -433.657 3052.66 -636.119 0.134193 0.757156 -0.370274 0.521157 
4037 2 -442.631 3056.23 -634.154 0.484725 0.690393 0.339548 0.41606 
4036 2 -451.204 3061 -632.777 0.601911 0.226654 0.752335 -0.142559 
3973 2 -455.737 3057.66 -567.923 0.206744 0.15499 0.812511 0.522552 
3974 2 -450.727 3064.58 -572.662 -0.257463 0.679447 0.365354 0.581877 
3979 2 -440.775 3108.65 -589.111 0.542605 -0.713878 0.441819 0.0274593 
3980 2 -436.863 3116.98 -592.81 0.289371 -0.28903 0.842795 0.349889 
3981 2 -433.863 3124.8 -598.011 -0.0929658 0.485895 0.678575 0.542954 
3975 2 -445.111 3072.59 -574.827 -0.548992 0.803799 -0.213538 -0.0831715 
3977 2 -443.921 3090.79 -582.294 0.105091 -0.304815 -0.758343 -0.566533 
3978 2 -443.645 3099.47 -586.814 0.463022 -0.731326 -0.337599 -0.369866 
3976 2 -443.517 3081.24 -579.28 -0.316135 0.406067 -0.709518 -0.481406 
3972 2 -463.128 3051.6 -565.205 0.600563 -0.409032 0.681984 0.0831577 
3971 2 -469.863 3047.01 -559.603 0.293707 -0.88234 0.11442 -0.349459 
4050 2 -389.071 3108.99 -594.098 0.738392 0.381275 0.105463 0.546155 
3982 2 -429.388 3132.63 -602.09 -0.560026 0.733075 -0.13469 0.361705 
4051 2 -383.805 3104.53 -587.049 0.122332 0.331483 -0.223593 0.908383 
4052 2 -378.166 3100 -580.31 -0.783566 0.0729506 -0.339306 0.515339 
4025 2 -510.76 3144.38 -657.057 -0.285708 0.0376489 -0.577841 0.763579 
4053 2 -372.212 3097.31 -572.871 -0.962992 -0.0512644 -0.234484 -0.122616 
3983 2 -422.258 3139.5 -602.566 -0.721597 0.280036 -0.539599 -0.331226 
4054 2 -367.478 3096.87 -564.169 -0.597196 -0.280026 -0.167165 -0.732801 
4055 2 -360.94 3095.73 -556.897 0.199075 -0.423434 -0.148288 -0.871254 
4056 2 -354.324 3100.19 -550.978 0.794322 -0.40833 0.236065 -0.382875 
4057 2 -347.394 3104.95 -545.748 0.817581 -0.186379 0.399064 0.370908 
4060 2 -326.749 3117.94 -529.799 -0.958487 0.13464 -0.240474 0.0731274 
4059 2 -334.972 3115.4 -534.932 -0.498675 0.527635 -0.166296 0.667286 
4058 2 -342.153 3111.76 -540.822 0.256108 0.305994 0.286208 0.871126 
4061 2 -321.362 3120 -521.749 -0.655015 -0.108276 -0.12713 -0.736933 
4018 1 -524.322 3202.24 -636.172 0.0570293 -0.354152 0.563695 -0.744024 
4017 2 -524.556 3200.43 -589.016 -0.688491 0.0687819 0.721966 -0.00382415 
4016 2 -514.626 3200.34 -589.163 -0.511177 -0.466804 0.534682 0.484673 
3995 2 -366.625 3169.17 -666.086 -0.571633 -0.190086 0.754039 -0.261779 
3984 2 -416.552 3146.98 -599.418 0.129559 -0.290033 -0.657537 -0.683185 
4024 2 -512.47 3151.29 -663.842 0.577972 0.313263 -0.243606 0.713072 
4002 2 -428.668 3152.77 -664.04 -0.907495 0.195679 0.320317 0.188571 
4019 3 -502.475 3175.93 -628.994 0.0359926 -0.366029 0.511107 -0.776851 
3985 2 -413.598 3156.49 -599.285 0.623831 -0.697278 -0.276111 -0.220001 
4003 2 -433.817 3158.58 -658.093 -0.705075 0.441178 0.017931 -0.554896 
4004 2 -439.596 3164.54 -652.639 -0.116659 0.343024 -0.189598 -0.912567 
4005 2 -444.723 3168.99 -645.44 0.626669 0.0397368 -0.286148 -0.723758 
4006 2 -448.075 3172.63 -636.995 0.98436 -0.0263239 -0.171671 -0.0295313 
4007 2 -451.664 3173.53 -627.748 0.577636 -0.119143 -0.133954 0.796365 
4008 2 -455.194 3172.74 -618.688 -0.267132 -0.331664 0.00788296 0.904752 
3986 2 -413.216 3166.22 -600.165 0.642457 -0.619603 0.276069 0.356549 
4009 2 -461.032 3171.82 -610.783 -0.856948 -0.012379 0.29284 0.423948 
4010 2 -465.615 3174.01 -602.345 -0.848519 0.314995 0.302362 -0.29895 
4011 2 -472.74 3177.35 -596.43 -0.363919 0.559068 -0.0205075 -0.744705 
4012 2 -480.483 3182.24 -592.928 0.25348 0.392038 -0.505417 -0.725678 
4013 2 -488.717 3187.45 -591.02 0.662636 -0.0679522 -0.626608 -0.404546 
3992 3 -397.353 3178.3 -638.381 -0.112924 0.437381 0.705106 -0.5466 
4014 2 -496.203 3193.4 -588.577 0.604403 -0.552656 -0.49487 0.290468 
4015 2 -504.98 3197.99 -588.987 0.158201 -0.735807 -0.0127677 0.658329 
3987 2 -413.452 3175.98 -599.214 0.199992 -0.123106 0.669925 0.704307 
3988 2 -412.551 3185.73 -598.533 -0.434976 0.455257 0.483963 0.607715 
3989 2 -411.182 3195.5 -597.697 -0.743795 0.657883 -0.118063 0.00444866 
3990 2 -410.112 3205.29 -596.19 -0.425852 0.307708 -0.589193 -0.613855 
3991 1 -372.354 3198.02 -623.549 -0.06084 0.464211 0.723033 -0.507966 
3994 2 -358.908 3174.21 -662.466 -0.554498 -0.654272 0.45979 0.230333 
3993 2 -350.696 3179.8 -661.413 -0.1422 -0.67408 -0.279701 0.668702 
2857 1 -374.589 1288.44 -437.662 0.76302 -0.0541299 0.605013 0.220974 
2811 2 -368.342 1282.56 -362.472 -0.203627 -0.438349 -0.657053 -0.578505 
2856 2 -338.516 1264.01 -455.629 -0.21016 -0.78283 -0.323732 0.488065 
2854 2 -326.477 1274.12 -443.697 0.401055 0.586098 -0.702728 -0.0426411 
2855 2 -332.206 1269.61 -450.509 0.280176 -0.189202 -0.842977 0.418442 
2851 2 -306.541 1286.36 -426.408 -0.508516 -0.212211 0.829762 -0.0887325 
2853 2 -322.191 1278.64 -435.973 0.209521 0.95438 0.0540555 -0.20576 
2852 2 -314.68 1282.26 -430.54 -0.0913159 0.650234 0.605733 -0.449383 
2850 2 -301.288 1289.48 -418.566 -0.219406 -0.888237 0.351094 0.199071 
2849 2 -296.353 1295.3 -412.234 -0.118405 -0.717117 -0.535559 0.43 
2848 2 -289.247 1299.92 -407.085 0.417159 -0.0307385 -0.869085 0.264053 
2858 3 -346.759 1305.1 -425.064 0.725847 -0.0602971 0.636688 0.253257 
2814 2 -343.818 1298.21 -368.175 0.448471 0.308393 0.629018 0.555071 
2815 2 -334.77 1301.89 -368.337 -0.133264 0.642944 0.131509 0.742677 
2847 2 -280.778 1304.1 -404.242 0.55201 0.632619 -0.499953 -0.212425 
2813 2 -352.01 1292.86 -367.119 0.664511 -0.397287 0.632577 0.0208623 
2816 2 -325.324 1304.87 -367.605 -0.564541 0.543817 -0.451834 0.425913 
2812 2 -360.406 1287.73 -365.59 0.324632 -0.748087 -0.026921 -0.578148 
2817 2 -315.825 1307.53 -368.15 -0.791002 -0.0701138 -0.600323 -0.0949322 
2846 2 -273.124 1309.74 -401.515 0.295987 0.798895 0.0463672 -0.521545 
2818 2 -306.141 1307.83 -366.647 -0.371037 -0.250574 -0.452276 -0.771356 
2819 2 -299.132 1313.06 -362.024 0.290765 -0.529119 -0.110894 -0.789424 
2859 2 -393.424 1322.19 -410.548 0.615483 -0.381413 0.686373 0.0677969 
2860 2 -385.47 1327.65 -412.764 0.253305 0.407194 0.558319 0.676985 
2861 2 -377.011 1332.77 -412.667 -0.474073 0.617032 0.0725919 0.623905 
2862 2 -370.134 1339.59 -411.149 -0.660867 0.586441 -0.431795 0.181371 
2863 2 -362.052 1345.27 -411.548 -0.649219 -0.0455901 -0.680444 -0.336797 
2845 2 -265.612 1315.94 -402.677 -0.245969 0.360908 0.556104 -0.707102 
2864 2 -352.877 1348.76 -411.293 -0.339398 -0.635321 -0.164721 -0.673828 
2865 2 -343.132 1347.27 -410.894 0.339248 -0.411458 0.322175 -0.782187 
2842 2 -243.673 1335.37 -403.692 -0.0727461 -0.481457 -0.380677 0.786125 
2844 2 -259.643 1323.71 -401.818 -0.618314 -0.357681 0.637586 -0.288507 
2843 2 -251.438 1329.43 -401.76 -0.584384 -0.656778 0.149762 0.452447 
2841 2 -236.864 1342.07 -401.488 0.410378 0.0501472 -0.819581 0.396688 
2866 2 -334.51 1344.79 -406.618 0.882053 -0.0606477 0.429007 -0.185087 
2867 2 -327.019 1344.91 -400.057 0.784497 0.220146 0.279172 0.508098 
2868 2 -320.463 1344.62 -392.563 0.101342 0.24402 0.142925 0.953812 
2869 2 -316.501 1347.28 -383.916 -0.667058 0.286309 0.0374527 0.686774 
2870 2 -313.316 1351.92 -375.799 -0.986045 0.117267 -0.00759923 -0.117923 
2871 2 -312.885 1354.9 -366.27 -0.546611 0.214189 -0.235572 -0.774497 
2840 2 -227.2 1343.74 -399.774 0.532546 0.499389 -0.580793 -0.360117 
2839 2 -217.8 1346.99 -399.463 0.128064 0.708389 0.0749679 -0.690047 
2838 2 -208.66 1350.83 -398.7 -0.365925 0.403479 0.580761 -0.604996 
2837 2 -201.189 1357.33 -399.745 -0.700987 -0.451807 0.551136 -0.0271442 
2836 2 -195.113 1362.46 -394.042 -0.283508 -0.88039 -0.0145497 0.379902 
2835 2 -191.155 1369.16 -387.756 -0.0123596 -0.395394 -0.798671 0.453471 
2834 2 -188.159 1372.4 -378.972 0.232283 0.285449 -0.922486 0.116546 
2833 2 -181.39 1376.98 -373.398 0.364327 0.859701 -0.274864 -0.229409 
2832 2 -173.124 1379.84 -368.616 -0.0101847 0.846068 0.286518 -0.449414 
3176 2 -401.297 1606.47 -420.096 -0.384341 0.851739 -0.249214 -0.254392 
3175 2 -399.296 1599.25 -413.568 -0.382019 0.669602 0.599758 0.214439 
3174 2 -396.489 1593 -406.394 -0.0845427 -0.178139 0.93125 0.306419 
3173 2 -395.691 1585.3 -400.18 0.276317 -0.786514 0.457466 0.309465 
3172 2 -396.844 1577.35 -394.575 0.448797 -0.86041 -0.193191 -0.144753 
3171 2 -398.623 1570.65 -387.482 0.0796469 -0.439575 -0.811288 -0.37715 
3170 2 -399.302 1563.04 -381.132 -0.216711 0.425392 -0.805613 -0.350808 
3169 2 -397.257 1554.61 -376.262 -0.481298 0.858452 -0.0644498 -0.165101 
3168 2 -391.37 1547.43 -372.929 -0.553326 0.642878 0.529627 0.00576302 
3167 2 -384.249 1541.09 -370.738 -0.420128 -0.00977964 0.804589 0.419563 
3177 2 -404.126 1613.6 -426.379 0.121497 0.419613 -0.760404 -0.480572 
3191 2 -377.002 1616.55 -473.076 0.934396 0.0684442 0.253672 0.240564 
3166 2 -375.566 1536.43 -370.38 0.00358485 -0.632236 0.384125 0.672839 
3192 2 -371.511 1617.1 -464.895 0.498368 0.342947 0.159338 0.780146 
3165 2 -367.647 1530.67 -368.774 0.570443 -0.67899 -0.243145 0.392998 
3193 2 -365.103 1616.72 -457.383 -0.0742376 0.139545 -0.157295 0.97482 
3190 2 -378.686 1614.8 -482.649 0.805234 -0.0873561 0.0469955 -0.584601 
3189 2 -378.836 1617.95 -492.033 -0.0116241 -0.0300769 0.182952 -0.982593 
3194 2 -362.069 1613.73 -448.436 -0.859808 0.00829948 -0.179237 0.478054 
3178 2 -410.018 1619.79 -431.487 0.596644 -0.123933 -0.784096 -0.117684 
3188 2 -379.379 1619.66 -501.872 -0.702725 -0.0553536 0.0780014 -0.705003 
3197 2 -349.339 1611.97 -422.168 0.714135 -0.167503 0.0427766 -0.678325 
2906 2 -270.07 1502.44 -404.468 0.176732 -0.420259 -0.849129 -0.2667 
2910 2 -273.22 1526.74 -433.911 -0.427247 0.624878 0.651031 0.0560954 
2907 2 -271.022 1507.51 -412.932 0.290852 -0.943588 -0.0765784 -0.138503 
2908 2 -268.291 1513.13 -420.614 0.277534 -0.6738 0.599031 0.331859 
2909 2 -269.153 1520.51 -427.185 -0.235023 -0.00434845 0.90758 0.347913 
2912 3 -254.698 1540.22 -387.395 -0.870953 -0.311497 -0.327105 0.193422 
2911 1 -269.037 1565.38 -407.224 -0.862178 -0.322929 -0.334174 0.201726 
2905 2 -266.199 1498.23 -396.41 0.0857257 0.395164 -0.868497 -0.286721 
2904 2 -262.411 1494.28 -388.242 -0.0878982 0.913935 -0.29706 -0.262204 
3201 2 -337.169 1613.63 -385.807 -0.808921 -0.0217852 0.0521425 0.585195 
3202 2 -338.544 1613.74 -375.986 -0.914044 -0.000386105 -0.192531 -0.357009 
2903 2 -258.732 1493.15 -379.171 -0.202862 0.710685 0.65948 -0.137332 
3200 2 -337.041 1614.98 -395.616 -0.0611598 -0.0116337 -0.107208 0.992286 
3199 2 -340.741 1614.31 -404.806 0.687421 0.0829986 0.214372 0.688919 
3198 2 -346.401 1613.88 -412.854 0.943708 -0.0710859 0.303857 -0.109699 
2902 2 -256.122 1489.56 -370.372 -0.165409 0.187639 0.955311 0.157522 
3196 2 -354.539 1611.13 -430.415 -0.275617 -0.283977 -0.180244 -0.900503 
2913 2 -256.095 1588.53 -368.158 -0.539988 -0.630658 -0.141485 -0.539134 
3203 2 -336.544 1615.09 -366.393 -0.297445 -0.049759 0.0918093 -0.949011 
3195 2 -358.332 1612.17 -439.431 -0.916715 -0.0634208 -0.181014 -0.350492 
2914 2 -247.957 1583.26 -366.016 0.057616 -0.483106 0.409505 -0.771748 
2901 2 -252.816 1484.69 -362.387 0.0539669 -0.638224 0.708451 0.296403 
3164 2 -360.4 1524.75 -365.364 0.530573 -0.282575 -0.776152 -0.190349 
2915 2 -240.446 1577.81 -362.589 0.689162 0.169057 0.462649 -0.531442 
2993 3 -108.883 1528.97 -412.932 0.754643 0.233624 -0.144248 0.595925 
2995 2 -157.419 1538.49 -420.41 0.80589 -0.220794 0.0369063 -0.548113 
2996 2 -154.556 1541.42 -411.392 0.934849 0.202076 0.195571 0.216736 
2994 2 -157.604 1535.23 -429.696 -0.0693539 0.0440733 -0.185672 -0.97917 
2992 1 -113.715 1547.1 -442.289 0.761218 0.198175 -0.131646 0.603277 
2997 2 -150.366 1538.73 -402.776 0.572395 0.312482 -0.0504308 0.756423 
2998 2 -146.567 1534.73 -394.602 -0.241486 -0.154847 -0.259828 0.922061 
2999 2 -147.125 1529.14 -386.453 -0.881389 -0.193476 -0.0608862 0.426629 
3000 2 -147.701 1526.48 -376.897 -0.874681 -0.113712 0.0828687 -0.463827 
3001 2 -148.349 1522.99 -367.654 -0.183659 -0.0227371 0.16442 -0.968875 
2984 2 -78.3603 1506.82 -386.481 0.326682 0.164741 0.898664 0.241956 
2985 2 -72.5715 1511.57 -393.044 -0.0197389 0.728078 0.588533 0.350916 
2988 2 -64.571 1523.93 -417.788 0.248835 -0.396513 -0.841559 -0.269512 
2989 2 -66.0313 1529.94 -425.444 0.36954 -0.90973 -0.177207 -0.066553 
2991 2 -66.6858 1544.5 -438.865 -0.0915544 0.0105024 0.900725 0.424503 
2990 2 -65.5927 1536.81 -432.472 0.272869 -0.705247 0.577128 0.308371 
2987 2 -64.0561 1518.65 -409.459 -0.123902 0.462719 -0.834807 -0.271361 
2986 2 -67.9602 1515.4 -400.96 -0.201781 0.940617 -0.201585 0.184086 
2983 2 -83.4681 1501.8 -379.605 0.373895 -0.672741 0.638362 0.0107231 
2982 2 -88.047 1498.75 -371.381 0.157661 -0.957237 -0.0874725 -0.226251 
2981 2 -90.125 1492.55 -363.934 0.0346228 -0.498312 -0.806213 -0.317028 
3187 2 -385.152 1622.04 -509.639 -0.938969 -0.140016 -0.311608 0.0404091 
3264 2 -415.058 1744.83 -510.035 0.11788 -0.958166 0.0798465 -0.248288 
3182 3 -398.455 1626.32 -479.289 -0.437207 0.511601 -0.374935 0.637604 
3179 2 -418.576 1623.47 -434.819 0.566492 -0.703804 -0.308316 0.297805 
3180 2 -426.937 1628.67 -435.922 -0.0141467 -0.579018 0.454845 0.676501 
3181 1 -433.122 1629.46 -482.72 -0.370252 0.507814 -0.430174 0.648065 
3227 2 -243.477 1636.49 -509.676 0.0148779 0.923805 -0.034569 0.381008 
3226 2 -251.159 1635.59 -503.542 0.288042 0.577134 0.692586 0.322912 
3225 2 -258.427 1635.46 -496.859 0.39445 -0.0893941 0.912557 -0.060478 
3224 2 -266.45 1636.26 -491.161 0.190419 -0.696587 0.541404 -0.430568 
3223 2 -275.272 1634.4 -487.118 0.000265701 -0.823441 -0.236871 -0.515595 
3222 2 -284.177 1632.79 -483.042 -0.451001 -0.372128 -0.758172 -0.288606 
3221 2 -292.414 1633.77 -477.728 -0.402819 0.310353 -0.837858 0.198525 
3220 2 -300.759 1636.51 -472.956 -0.0825139 0.80244 -0.351696 0.474965 
3219 2 -305.329 1641.48 -465.798 0.364083 0.8801 0.298807 0.0598531 
3209 3 -328.237 1634.38 -381.367 0.113148 0.191015 -0.93345 0.281748 
3218 2 -307.083 1644.14 -456.396 0.0919948 0.376965 0.917662 -0.0856199 
3217 2 -310.236 1645.66 -447.22 0.126667 -0.411289 0.895067 -0.11684 
3216 2 -313.056 1648.23 -438.184 -0.0734524 -0.917172 0.348739 -0.178276 
3214 2 -320.464 1654.29 -420.906 -0.15989 -0.294706 -0.930541 0.147231 
3215 2 -317.143 1651.09 -429.582 -0.216439 -0.928182 -0.281147 -0.112201 
3213 2 -324.025 1660.39 -413.814 0.0564192 0.548433 -0.751707 0.361905 
3212 2 -326.556 1666.9 -406.841 0.316232 0.931256 -0.00183321 0.180988 
3211 2 -329.254 1675.66 -403.072 0.427929 0.515746 0.639171 -0.377285 
3210 2 -329.522 1683.79 -397.526 -0.0485341 -0.1448 0.867801 -0.472862 
3345 2 -528.129 1833.31 -474.382 0.763786 0.137887 0.630008 0.0265966 
3346 2 -518.51 1831.78 -472.61 0.412963 0.625615 0.291461 0.594237 
3344 3 -486.586 1830.14 -505.352 0.622871 -0.0622351 0.607881 0.488507 
3347 2 -508.811 1829.47 -472.213 -0.22155 0.635463 -0.258888 0.692877 
3348 2 -499.043 1829.41 -471.276 -0.7449 0.133116 -0.61409 0.224272 
3349 2 -489.417 1829.08 -469.042 -0.522155 -0.527347 -0.441887 -0.50398 
3350 2 -479.583 1828.2 -468.574 0.0401185 -0.537602 0.0452893 -0.841025 
3351 2 -470.359 1827.36 -465.126 0.724478 -0.210475 0.520148 -0.400346 
3352 2 -461.077 1825.39 -462.139 0.733769 0.227144 0.599403 0.225177 
3353 2 -451.297 1824.76 -460.875 0.294037 0.57564 0.181042 0.741218 
3354 2 -441.844 1825.23 -457.736 -0.406797 0.544267 -0.253271 0.688581 
3355 2 -432.883 1826.95 -453.883 -0.785015 0.110648 -0.58264 0.178994 
3356 2 -423.689 1826.87 -450.635 -0.688396 -0.234396 -0.48402 -0.486717 
3357 2 -414.775 1828.66 -446.885 -0.0946779 -0.517407 -0.185089 -0.830102 
3358 2 -405.842 1830.33 -442.759 0.519739 -0.395348 0.494506 -0.573615 
3359 2 -396.255 1828.43 -441.265 0.751192 0.153693 0.633044 0.106505 
3360 2 -386.699 1826.42 -440.353 0.308252 0.655541 0.207995 0.657256 
3361 2 -377.002 1825.42 -439.516 -0.133627 0.641174 -0.39367 0.64503 
3362 2 -367.396 1824.04 -441.818 -0.561294 0.312126 -0.756722 0.122059 