ITEM: TIMESTEP
100000000
ITEM: NUMBER OF ATOMS
4067
ITEM: BOX BOUNDS pp pp pp
-4.6310929470000001e+03 4.6704658980000004e+03
-4.6310929470000001e+03 4.6704658980000004e+03
-4.6310929470000001e+03 4.6704658980000004e+03
ITEM: ATOMS id type x y z c_q[1] c_q[2] c_q[3] c_q[4] 
2967 2 -242.025 1504.36 -535.8 -0.511624 0.471714 -0.328827 -0.638435 
2968 2 -244.414 1513.33 -532.674 0.407421 -0.110328 -0.674819 -0.605355 
2969 2 -248.426 1522.42 -532.888 0.684537 -0.658901 -0.310575 -0.0283235 
2970 2 -252.494 1531.29 -531.595 0.633316 -0.476357 0.171654 0.585261 
2971 2 -256.468 1538.34 -526.017 -0.334754 -0.276474 0.482117 0.760964 
2972 2 -263.454 1543.36 -521.248 -0.858467 0.192507 0.449972 0.153302 
2973 2 -270.326 1548.42 -516.137 -0.796613 0.350954 -0.0251072 -0.491537 
3274 2 -397.707 1780.64 -519.803 -0.151739 0.455336 -0.240454 0.843698 
3270 2 -423.543 1803.5 -537.648 -0.334672 -0.475345 0.271302 -0.767097 
3273 2 -404.691 1784.14 -525.773 0.690433 0.390296 0.222871 0.566833 
3272 2 -411.502 1790.51 -528.802 0.770285 0.31047 0.513398 -0.216082 
3271 2 -417.635 1796.71 -533.436 0.349108 -0.216372 0.50268 -0.760671 
3269 2 -430.577 1810.18 -536.69 -0.658718 -0.581076 -0.46334 -0.117293 
3268 2 -439.606 1813.47 -534.226 -0.527477 0.0670819 -0.787939 0.310517 
3267 2 -447.697 1816.14 -529.234 -0.0890294 0.794686 -0.315403 0.510949 
3266 2 -454.983 1816.56 -522.667 0.210582 0.802274 0.426508 0.360697 
3265 2 -462.157 1818.35 -515.993 0.448051 0.211673 0.867887 -0.0348909 
3307 2 -373.51 1867.41 -518.747 -0.221884 0.603063 0.15512 -0.750347 
3308 2 -383.013 1868.33 -516.479 0.308993 0.532343 -0.416077 -0.669339 
3309 2 -392.35 1871.38 -516.115 0.722615 0.223941 -0.612829 -0.228296 
3306 2 -364.681 1862.93 -517.582 -0.677143 0.299748 0.67051 0.0452215 
3275 2 -389.801 1778.5 -514.18 -0.781562 0.0355664 -0.53058 0.326159 
3310 2 -402.226 1871.48 -515.107 0.6845 -0.365809 -0.446238 0.44555 
3291 2 -251.249 1782.75 -543.792 -0.655718 0.241905 0.494699 0.516515 
3292 2 -256.631 1790.21 -540.114 -0.708941 0.544034 0.359975 -0.268044 
3297 2 -296.333 1814.03 -529.676 0.101618 -0.524032 0.532369 0.656999 
3298 2 -303.44 1820.86 -529.506 -0.469352 0.244045 0.702165 0.476566 
3299 2 -306.922 1830.08 -529.896 -0.695931 0.601255 0.387504 -0.0633503 
3300 2 -313.291 1837.59 -529.963 -0.355929 0.634034 -0.0369577 -0.685529 
3296 2 -287.746 1809.3 -528.333 0.459752 -0.731517 -0.217601 0.454049 
3295 2 -279.81 1803.96 -530.371 0.786773 -0.306662 -0.534404 -0.036866 
3294 2 -273.392 1798.14 -535.102 0.515395 0.194634 -0.460216 -0.696194 
3293 2 -264.164 1796.45 -538.384 -0.0993415 0.541571 -0.0247516 -0.834398 
3301 2 -321.481 1841.76 -526.619 0.227893 0.471234 -0.44966 -0.723747 
3235 1 -234.482 1915.5 -544.488 0.652533 0.42497 -0.197021 0.595637 
3237 2 -276.246 1895.49 -535.319 0.855896 0.129564 0.00659524 0.500612 
3238 2 -274.19 1893.27 -525.87 0.282149 0.151885 -0.0701295 0.944672 
3236 3 -226.205 1888.4 -524.08 0.631075 0.402778 -0.207178 0.629755 
3302 2 -330.178 1846.66 -525.87 0.666204 0.0113166 -0.655508 -0.355461 
3303 2 -338.895 1850.83 -523.861 0.749482 -0.429864 -0.378363 0.332167 
3239 2 -273.555 1891.29 -516.382 -0.547702 -0.156172 -0.0806659 0.818001 
3304 2 -347.339 1854.82 -520.334 0.218003 -0.544145 0.00703819 0.810143 
3305 2 -356.027 1858.13 -517.131 -0.420182 -0.307226 0.625381 0.581341 
3232 2 -179.675 1913.13 -525.634 0.0644413 0.725679 -0.672096 -0.132375 
3233 2 -182.744 1913.57 -535.046 0.213352 0.0463707 -0.953509 -0.207731 
3234 2 -187.314 1917.08 -543.127 0.276153 -0.812263 -0.50805 0.0765021 
3231 2 -176.64 1912.98 -516.296 0.00353973 0.966019 0.199647 -0.164123 
3345 2 -512.633 2026.86 -590.473 0.823512 -0.50713 0.19985 -0.157187 
3346 2 -507.333 2034.34 -586.685 0.589848 -0.105506 0.533342 0.597071 
3342 2 -434.262 2026.35 -638.314 -0.0309882 -0.964662 0.213168 0.151742 
3341 2 -431.13 2025.7 -628.955 0.110289 -0.839332 -0.525132 0.0871489 
3340 2 -424.05 2023.2 -622.405 0.419228 -0.219762 -0.874474 -0.10605 
3343 1 -478.377 2020.86 -622.414 0.760787 -0.0612205 0.237492 0.600876 
3344 3 -461.29 2033.06 -594.463 0.779939 -0.0785325 0.302981 0.541969 
3347 2 -501.822 2041.55 -582.549 -0.124539 0.262893 0.200488 0.935512 
3339 2 -420.024 2019.96 -613.971 0.0993728 0.566594 -0.781851 -0.240427 
3338 2 -420.157 2018.32 -604.24 -0.0759723 0.996909 -0.011968 -0.0160666 
3337 2 -420.19 2018.06 -594.382 -0.0264815 0.626129 0.778166 -0.041445 
3336 2 -419.714 2020.25 -584.815 -0.0689816 -0.304318 0.947004 -0.0762638 
3335 2 -417.901 2020.45 -575.113 -0.044393 -0.901539 0.417511 0.1046 
3334 2 -415.931 2018.46 -565.643 0.119613 -0.915079 -0.373165 0.0952412 
3332 2 -403.611 2010.51 -552.343 0.138052 0.626758 -0.689171 -0.336392 
3333 2 -409.919 2014.68 -558.734 0.369116 -0.25752 -0.885834 -0.112847 
3348 2 -497.301 2046.14 -574.914 -0.795161 0.335598 -0.160639 0.478841 
3349 2 -491.92 2049.25 -567.139 -0.75279 0.0426938 -0.568006 -0.329929 
3351 2 -476.347 2058.59 -559.088 0.621231 -0.525966 0.0523587 -0.578524 
3350 2 -484.085 2054.01 -563.201 -0.158133 -0.460727 -0.373905 -0.789253 
3331 2 -398.912 2004.14 -546.438 -0.288048 0.905602 -0.137469 -0.279312 
3330 2 -394.584 1997.45 -540.453 -0.422168 0.634674 0.628863 0.153279 
3329 2 -389.819 1991.04 -534.524 -0.173121 -0.141318 0.902423 0.368363 
3352 2 -469.513 2064.09 -554.437 0.762218 -0.331347 0.468524 0.299529 
3396 2 -474.701 2072.88 -596.732 0.452594 0.849285 0.141676 0.231952 
3328 2 -385.228 1983.9 -529.255 0.238896 -0.765928 0.427616 0.416446 
3353 2 -464.631 2071.66 -550.681 0.324199 -0.011881 0.367008 0.871813 
3327 2 -381.334 1976.87 -523.549 0.411485 -0.868866 -0.257486 0.0972244 
3354 2 -461.684 2077.87 -543.424 -0.443093 0.398064 0.104238 0.79646 
3386 2 -500.966 2071.43 -519.05 0.339523 -0.938357 0.0199794 0.061733 
3387 2 -501.719 2077.71 -526.83 0.146287 -0.673213 0.685501 0.235528 
3326 2 -379.243 1972.28 -515.076 0.168295 -0.470091 -0.844813 -0.192308 
3528 2 -561.247 2176.04 -535.054 -0.419774 -0.728512 0.115153 -0.528961 
3529 2 -555.527 2168.07 -536.024 0.0394545 -0.518686 0.710465 -0.473971 
3530 2 -550.059 2161.55 -541.263 0.298093 0.289967 0.872546 -0.256366 
3531 2 -545.601 2155.61 -547.684 0.399279 0.862368 0.288711 0.11638 
3527 2 -567.194 2183.56 -532.41 -0.570341 -0.691523 -0.414005 -0.158453 
3526 2 -569.812 2192.43 -528.996 -0.348414 -0.257775 -0.783714 0.444919 
3525 2 -567.874 2201.38 -524.748 0.328262 0.289245 -0.754144 0.489743 
3524 2 -562.462 2209.33 -522.706 0.625303 0.677308 -0.363241 -0.135296 
3523 2 -554.888 2215.64 -522.519 0.294931 0.696467 0.189352 -0.626175 
3522 2 -549.028 2223.12 -525.179 -0.223737 0.263744 0.553249 -0.757824 
3355 2 -456.014 2082.53 -536.826 -0.863809 0.387295 -0.272287 0.172329 
3395 2 -479.011 2080.54 -592.165 0.407038 0.346915 0.794631 -0.287284 
3394 2 -483.388 2083.42 -583.708 0.151817 -0.325917 0.907686 -0.216416 
3388 2 -502.15 2083.2 -534.947 -0.129089 0.344557 0.899631 0.235117 
3389 2 -502.222 2088.28 -543.611 -0.20965 0.901979 0.329772 0.183658 
3393 2 -487.809 2088.28 -576.467 -0.0949202 -0.882745 0.369789 -0.273875 
3356 2 -450.48 2088.21 -531.042 -0.655653 -0.0576563 -0.525795 -0.538827 
3357 2 -443.182 2092.84 -526.126 0.078175 -0.391879 0.0363043 -0.91597 
3390 2 -500.081 2093.43 -551.638 -0.195326 0.831031 -0.518768 0.0459989 
3391 2 -497.06 2095.4 -560.972 -0.189302 -0.00444039 -0.978889 0.0769551 
3392 2 -492.735 2093.71 -569.696 -0.386909 -0.770376 -0.504515 -0.0478176 
3532 1 -502.818 2167.75 -531.881 0.559648 0.124823 -0.496032 -0.652047 
3398 3 -449.748 2099.07 -559.523 -0.763514 -0.111613 0.173327 0.612002 
3397 1 -433.708 2095.19 -590.387 -0.773623 -0.130034 0.249312 0.567841 
3400 2 -406.066 2119.18 -556.868 -0.14733 0.0208438 0.114169 -0.982255 
3399 2 -403.429 2121.89 -565.981 -0.851852 -0.109019 0.175405 -0.481349 
3401 2 -407.256 2116.8 -547.239 0.732511 0.14446 -0.124817 -0.653437 
3402 2 -410.269 2116.76 -537.906 0.975791 -0.103828 -0.0780345 0.175959 
3403 2 -413.068 2118.05 -528.604 0.532393 -0.288889 -0.100347 0.789323 
3404 2 -418.332 2120.13 -520.615 -0.430692 -0.171678 0.304791 0.831946 
3465 2 -391.898 2173.33 -565.406 0.393454 0.0543873 0.865881 -0.304114 
3464 2 -394.42 2179.27 -557.771 -0.0940957 -0.611583 0.70133 -0.353906 
3462 2 -387.098 2187.1 -541.435 0.00107026 -0.793822 -0.520736 0.314132 
3463 2 -391.262 2184.33 -549.848 -0.276075 -0.928793 0.197989 0.148072 
3466 2 -385.793 2167.63 -570.905 0.51074 0.655028 0.534369 0.156629 
3467 2 -377.891 2162.72 -574.44 0.228502 0.818821 -0.29199 0.438247 
3461 2 -384.539 2190.38 -532.397 0.0954354 -0.23319 -0.950507 0.181798 
3468 2 -372.059 2156.09 -578.983 -0.23905 0.446567 -0.686087 0.522224 
3460 2 -378.978 2190.6 -524.173 0.299187 0.403362 -0.85495 -0.129793 
3358 2 -435.901 2092.93 -519.433 0.777042 -0.123413 0.401089 -0.469151 
3459 2 -373.627 2189.29 -515.84 0.00247559 0.905962 -0.300377 -0.298329 
3469 2 -364.728 2150.84 -582.991 -0.459996 -0.383196 -0.79984 0.0426719 
3479 3 -341.412 2188.15 -609.135 0.932243 0.197966 -0.301838 0.0250407 
3472 2 -342.028 2142.7 -599.458 0.341664 -0.0517366 0.937427 -0.0426489 
3471 2 -349.899 2143.92 -593.762 0.158939 -0.768119 0.438735 -0.438455 
3470 2 -357.805 2146.94 -588.781 -0.345912 -0.806893 -0.350026 -0.326726 
3477 2 -309.446 2154.66 -632.683 0.0513992 -0.856098 -0.248442 -0.450256 
3473 2 -335.245 2143.08 -606.732 0.314969 0.672307 0.561212 0.36584 
3474 2 -327.192 2143.16 -612.407 -0.200595 0.937687 -0.0751836 0.273592 
3475 2 -321.735 2145.97 -620.229 -0.404778 0.554797 -0.724405 -0.059936 
3476 2 -316.65 2151.07 -626.979 -0.294181 -0.350799 -0.829997 -0.318593 
3478 1 -319.068 2200.91 -632.832 0.925753 0.233153 -0.297582 -0.00814946 
3521 2 -544.781 2230.94 -529.675 -0.799641 -0.309368 0.408823 -0.312616 
3520 2 -540.188 2237.9 -535.084 -0.687429 -0.448031 -0.0418326 0.570052 
3519 2 -537.732 2245.9 -540.503 -0.0468336 -0.166891 -0.474424 0.863062 
3518 2 -535.873 2253.62 -546.485 0.645798 0.230316 -0.377629 0.622331 
3517 2 -537.266 2262.11 -551.654 0.845318 0.523382 0.105533 0.01926 
3516 2 -536.731 2270.31 -557.088 0.507945 0.337342 0.385263 -0.69265 
3515 2 -534.483 2279.56 -559.661 -0.2915 -0.165317 0.623268 -0.706566 
3513 2 -530.299 2298.55 -559.925 -0.507366 -0.646492 -0.363079 0.439092 
3514 2 -532.39 2289.11 -561.563 -0.737346 -0.540323 0.342172 -0.217465 
3512 2 -529.309 2306.86 -554.694 -0.0769219 -0.113554 -0.854061 0.501765 
3511 2 -529.047 2315.26 -549.382 0.344238 0.584218 -0.645668 0.351145 
3509 2 -531.314 2328.73 -535.239 0.132773 0.353921 0.867165 -0.324247 
3510 2 -531.045 2322.33 -542.698 0.380359 0.899343 0.210923 0.0449521 
3508 2 -528.766 2332.7 -526.519 -0.195423 -0.400701 0.884475 -0.137666 
3507 2 -523.46 2337.79 -519.652 -0.35377 -0.864176 0.279573 0.223352 
3506 3 -517.327 2286.27 -518.985 -0.0780847 -0.193631 0.932336 -0.295227 
3489 2 -415.941 2240.38 -571.411 -0.411668 -0.430142 0.0121791 0.803342 
3488 2 -408.415 2241.27 -577.733 0.403795 -0.383413 -0.226097 0.799265 
3490 2 -423.186 2237.67 -565.422 -0.769824 -0.32407 0.442737 0.326089 
3487 2 -399.51 2241.5 -581.973 0.815504 -0.131324 -0.49879 0.262517 
3486 2 -390.949 2242.59 -586.719 0.721012 0.320215 -0.388509 -0.476093 
3492 2 -439.152 2236.86 -554.376 -0.0864578 0.229475 0.096032 -0.964699 
3491 2 -432.039 2236.21 -561.176 -0.797852 0.227941 0.37479 -0.413529 
3493 2 -443.245 2235.44 -545.627 0.654848 0.16206 -0.243841 -0.696744 
3494 2 -448.5 2237.43 -537.482 0.942118 -0.0677681 -0.328356 0.00186452 
3495 2 -454.848 2238.62 -530.042 0.489773 -0.530263 -0.206271 0.660603 
3496 2 -464.002 2240.6 -526.509 -0.162323 -0.37738 0.207091 0.88789 
3497 2 -470.597 2243.04 -519.497 -0.819434 0.0132968 0.485473 0.304412 
3485 2 -381.741 2243.93 -589.957 0.157233 0.600847 -0.0152127 -0.7836 
3484 2 -373.041 2241.58 -594.033 -0.604382 0.487154 0.282658 -0.563479 
3498 2 -478.079 2246.59 -514.117 -0.715945 0.278369 0.420401 -0.482904 
3483 2 -364.317 2241.21 -598.845 -0.811951 -0.121608 0.532382 0.206195 
3588 2 -440.661 2277.51 -516.158 -0.689853 0.475406 -0.075997 0.540663 
3482 2 -358.089 2238.29 -605.88 -0.472927 -0.214293 0.277452 0.808356 
3481 2 -351.203 2237.66 -613.209 0.382024 -0.353284 -0.0763072 0.850544 
3480 2 -344.882 2238.54 -620.79 0.889585 -0.0612372 -0.32882 0.311072 
3613 1 -274.937 2347.58 -534 0.965685 -0.189041 -0.139169 0.111123 
3720 2 -410.812 2505.47 -522.112 -0.331698 -0.728568 -0.371975 -0.469892 
3719 2 -419.564 2507.35 -517.974 -0.55501 -0.142383 -0.819333 -0.0196247 
3718 2 -429.254 2507.17 -515.685 -0.499916 0.533238 -0.570926 0.373877 
3615 2 -301.163 2384.85 -546.312 0.982994 -0.138319 0.00577224 -0.120656 
3616 2 -299.755 2387.46 -536.815 0.682753 0.0189389 0.324223 0.654499 
3617 2 -295.494 2392.05 -529.094 0.0645664 0.131155 0.198086 0.969222 
3618 2 -292.646 2395.11 -520.061 -0.83091 0.0469658 0.036028 0.553249 
3839 2 -697.963 2663.93 -541.149 0.128641 -0.64088 0.692363 0.305546 
3840 2 -699.731 2669.13 -549.386 -0.164332 0.220853 0.941291 0.195424 
3838 2 -696.365 2658.41 -533.122 0.248242 -0.96121 0.0759912 0.0931494 
3837 2 -696.836 2650.51 -527.021 0.313909 -0.683962 -0.58514 -0.302107 
3841 2 -701.866 2673.29 -558.119 -0.253575 0.863774 0.428712 -0.0761585 
3842 2 -705.166 2677.46 -566.508 -0.0811843 0.828783 -0.505021 -0.226897 
3836 2 -699.65 2644.83 -519.422 -0.191443 0.0694069 -0.923632 -0.324709 
3843 2 -708.513 2681.64 -574.838 0.329239 0.117282 -0.875132 -0.334651 
3844 2 -714.433 2686.92 -580.559 0.43132 -0.686355 -0.584506 -0.035091 
3735 2 -519.019 2612.24 -527.391 -0.269747 0.0122074 0.0532097 -0.961383 
3736 2 -519.751 2611.59 -517.571 0.48983 0.204824 -0.163092 -0.831573 
3734 2 -515.687 2610.89 -536.519 -0.854494 0.146764 0.149767 -0.475257 
3733 2 -512.162 2609.49 -545.734 -0.937492 0.00250855 0.224999 0.265476 
3732 2 -506.027 2605.23 -552.279 -0.364681 -0.276032 0.318626 0.830236 
3722 3 -441.632 2546.69 -529.024 0.836635 0.123291 -0.522676 -0.107935 
3721 1 -408.923 2548.51 -541.347 0.797977 0.0532639 -0.599841 -0.0242181 
3723 2 -425.939 2591.64 -549.857 0.628622 -0.259685 -0.679594 0.274865 
3724 2 -435.745 2590.71 -551.022 0.199941 -0.765233 -0.25942 0.554205 
3725 2 -445.291 2591.37 -553.217 -0.124276 -0.725919 0.362663 0.571028 
3726 2 -454.515 2593.45 -556.414 -0.461788 -0.206623 0.858836 0.0803661 
3727 2 -462.495 2593.24 -562.177 -0.422925 0.525424 0.629472 -0.385784 
3728 2 -472.024 2593.28 -565.043 0.044114 0.696865 -0.19218 -0.689566 
3729 2 -481.626 2595.4 -564.904 0.64994 0.291346 -0.534941 -0.454461 
3730 2 -490.924 2597.63 -562.37 0.845881 -0.236759 -0.434922 0.198175 
3731 2 -499.065 2600.54 -557.547 0.504111 -0.395342 -0.0100466 0.767773 
3858 2 -847.092 2752.62 -564.058 -0.71 -0.598358 -0.0968596 -0.358448 
3859 2 -841.351 2745.01 -561.466 -0.0682693 -0.367697 0.283521 -0.883037 
3860 2 -836.136 2738.82 -555.586 0.702089 -0.0260386 0.339027 -0.625663 
3861 2 -830.47 2734.99 -548.303 0.932594 0.111003 0.288391 0.186488 
3862 2 -824.654 2733.8 -540.338 0.33778 0.512997 0.260766 0.744809 
3845 2 -719.031 2692.81 -587.003 0.272604 -0.865601 0.15406 0.390752 
3856 1 -814.103 2765.83 -595.076 0.758582 0.52357 0.0386312 0.385922 
3863 2 -815.692 2734.84 -536.31 -0.48077 0.528032 -0.135914 0.68671 
3864 2 -807.408 2737.59 -531.72 -0.827642 0.304433 -0.47131 0.0140027 
3857 3 -798.461 2739.87 -577.435 0.72215 0.577896 0.00465461 0.380149 
3855 2 -772.473 2761.75 -616.778 -0.44032 0.817008 0.368003 -0.056478 
3854 2 -768.172 2754.77 -611.181 -0.306228 0.218894 0.865721 0.329904 
3853 2 -763.21 2746.33 -609.838 0.102824 -0.489999 0.565381 0.655493 
3846 2 -725.148 2698.91 -591.899 -0.182617 -0.363882 0.659908 0.631476 
3847 2 -731.838 2705.89 -593.428 -0.606891 0.161836 0.766241 0.135524 
3848 2 -740.867 2709.51 -594.981 -0.543629 0.686069 0.313249 -0.368309 
3849 2 -749.178 2714.42 -596.741 -0.184068 0.649026 -0.373255 -0.63684 
3850 2 -756.125 2721.14 -598.816 0.380213 0.0360455 -0.717163 -0.582937 
3851 2 -761.829 2729.24 -600.18 0.447528 -0.739133 -0.469365 -0.181926 
3852 2 -762.603 2737.67 -605.367 0.511209 -0.834799 0.137479 0.151244 
3804 2 -692.18 2810.77 -542.346 0.0326885 0.550692 -0.746725 0.371579 
3805 2 -690.096 2804.8 -550.063 -0.194788 -0.343352 -0.894072 0.211665 
3806 2 -687.894 2799.74 -558.112 -0.241048 -0.889159 -0.306775 0.239125 
3807 2 -689.074 2793.77 -565.884 -0.394134 -0.863954 0.294014 -0.108616 
3808 2 -689.833 2786.08 -572.032 -0.17505 -0.326536 0.783213 -0.49931 
3809 2 -688.86 2777.3 -576.583 0.255122 0.280156 0.763496 -0.522971 
3810 2 -687.889 2767.92 -579.678 0.565046 0.687239 0.439028 -0.125219 
3811 2 -685.199 2758.77 -582.136 0.432755 0.747231 -0.263739 0.429897 
3812 2 -680.97 2750.02 -583.913 -0.0326979 0.207008 -0.654394 0.726531 
3813 2 -677.677 2740.89 -582.957 -0.739712 -0.150537 -0.495194 0.430054 
3814 2 -670.933 2735.23 -578.524 -0.877047 -0.378144 -0.134981 -0.263774 
3815 2 -666.669 2729.23 -571.702 -0.392491 -0.321515 0.190488 -0.840413 
3865 2 -799.251 2742.62 -528.673 -0.552887 -0.149114 -0.50392 -0.646642 
3866 2 -792.473 2748.1 -524.058 0.223441 -0.39965 -0.144678 -0.877167 
3867 2 -786.726 2752.61 -517.335 0.832065 -0.429098 0.131145 -0.326103 
3803 3 -669.699 2764.19 -538.687 -0.0593876 0.296269 -0.928877 0.214208 
3816 2 -662.263 2723.58 -564.732 0.415293 -0.0373832 0.384147 -0.823751 
3817 2 -658.665 2717.59 -557.725 0.92265 0.260725 0.171172 -0.226803 
3818 2 -656.108 2711.83 -550.152 0.810713 0.213139 -0.0235075 0.544761 
3819 2 -653.343 2708.07 -541.381 0.101168 0.00777229 -0.255099 0.961576 
3786 2 -558.504 2755 -593.168 -0.293401 0.494408 -0.0732861 -0.814927 
3785 2 -554.263 2749.75 -600.234 -0.904332 0.33333 0.190521 -0.186487 
3783 2 -540.497 2737.58 -606.69 0.0155702 -0.557237 0.300219 0.774024 
3784 2 -548.947 2742.58 -604.603 -0.683117 0.150177 0.473107 0.535693 
3787 2 -566.379 2759 -588.817 0.575268 0.303538 -0.327623 -0.68527 
3788 2 -574.566 2758.76 -583.243 0.837408 0.0681205 -0.518171 0.160019 
3789 2 -582.701 2755.86 -578.612 0.433518 -0.238531 -0.328989 0.804321 
3790 2 -589.709 2752.89 -572.277 -0.399713 -0.441523 0.0243862 0.802928 
3791 2 -596.836 2749.81 -565.981 -0.909137 -0.200619 0.302558 0.204159 
3792 2 -603.566 2747.93 -559 -0.657898 0.214188 0.0975046 -0.715393 
3793 2 -608.45 2748.98 -550.507 0.16836 0.285396 0.0111836 -0.94344 
3794 2 -613.361 2747.78 -542.09 0.739508 0.16776 -0.333063 -0.560405 
3795 2 -620.212 2749.06 -535.067 0.863414 -0.0256416 -0.442268 0.241369 
3796 2 -627.671 2747.43 -528.6 0.482619 -0.287288 -0.24107 0.791473 
3782 2 -531.674 2736 -610.871 0.696256 -0.387297 -0.367287 0.479927 
3781 2 -523.734 2735.36 -616.666 0.891575 0.00785768 -0.42892 -0.14512 
3780 2 -517.217 2737.05 -623.891 0.448075 0.29461 -0.0516562 -0.842475 
3820 2 -652.621 2703.02 -532.981 -0.56788 -0.0511844 -0.205076 0.79551 
3821 2 -650.593 2698.54 -524.41 -0.91903 -0.213764 -0.330579 0.0201412 
3797 2 -634.858 2746.76 -521.876 -0.21215 -0.412992 0.0140026 0.88557 
3822 2 -645.088 2694.69 -517.102 -0.565968 -0.531592 0.0864866 -0.624188 
3798 2 -642.197 2745.01 -515.476 -0.822819 -0.32446 0.297831 0.359153 
3779 2 -512.125 2735.78 -632.28 -0.444619 0.298523 0.0324451 -0.843887 
3778 2 -508.547 2735.63 -641.432 -0.913894 0.106111 0.175272 -0.350455 
3764 2 -468.243 2691.66 -528.632 0.259975 -0.938665 0.167505 -0.152521 
3765 2 -464.725 2696.06 -536.661 0.200496 -0.458633 0.820523 0.276044 
3766 2 -463.933 2702.38 -544.259 -0.0594035 0.364572 0.842466 0.392186 
3767 2 -461.606 2709.49 -550.74 -0.353489 0.868114 0.225068 0.266023 
3768 2 -458.707 2716.86 -556.553 -0.477464 0.667085 -0.567381 -0.0714491 
3769 2 -454.137 2724.43 -561.064 -0.229636 -0.0721463 -0.915901 -0.32123 
3770 2 -449.78 2729.93 -568.021 0.0888498 -0.831455 -0.472106 -0.279113 
3771 2 -446.496 2735.15 -575.745 0.271915 -0.859213 0.43193 -0.0353691 
3772 2 -443.731 2739.5 -584.116 0.339576 -0.0605952 0.934853 0.084062 
3773 2 -437.508 2741.6 -591.544 0.264909 0.74443 0.509501 0.34067 
3774 2 -429.861 2741.73 -597.81 -0.0885373 0.858752 -0.298623 0.406854 
3776 3 -481.218 2738 -603.92 -0.685973 0.187754 0.259098 -0.653497 
3777 2 -504.895 2731.74 -649.744 -0.766495 0.0244797 0.29229 0.571361 
3775 1 -461.345 2738.37 -632.741 -0.76788 0.152973 0.252292 -0.568602 
3763 2 -473.66 2689.92 -520.527 -0.109168 -0.803464 -0.527134 -0.254278 
1855 2 -35.1511 -294.383 -378.878 -0.441826 -0.465146 -0.765089 0.0553931 
1856 2 -29.5525 -299.911 -384.973 -0.276246 -0.914754 -0.125049 -0.266976 
1857 2 -24.5665 -304.877 -392.054 -0.00823541 -0.685627 0.607041 -0.401682 
1854 2 -38.7637 -287.986 -372.231 -0.0629711 0.249997 -0.868058 0.424278 
1853 2 -40.6112 -279.005 -368.19 0.41039 0.713687 -0.404088 0.398678 
1852 2 -38.6849 -270.51 -363.397 0.452098 0.862097 0.159939 -0.163752 
2856 2 -505.514 1210.17 -383.589 -0.041756 -0.926964 -0.307781 0.210391 
2857 1 -491.968 1251.47 -401.821 0.927814 -0.100645 0.133372 -0.333533 
2855 2 -502.166 1212.36 -374.571 0.136704 -0.347018 -0.911641 0.17263 
2854 2 -499.611 1212.83 -365.032 0.0667538 0.621126 -0.778614 -0.0592143 
2858 3 -475.448 1250.67 -371.018 0.931473 -0.0939544 0.178555 -0.302736 
2859 2 -469.047 1292.7 -400.626 0.737365 0.0825798 0.321173 0.588491 
2860 2 -462.825 1295.38 -393.311 -0.0688314 0.376741 0.311267 0.869737 
2861 2 -456.766 1300.78 -387.674 -0.761793 0.506973 0.0159472 0.402985 
2862 2 -453.845 1308.52 -382.248 -0.783146 0.442961 -0.30761 -0.309586 
2907 2 -212.002 1309.97 -467.626 -0.49243 -0.794216 -0.0758014 -0.347833 
2906 2 -220.25 1315.21 -466.457 -0.688051 -0.380677 -0.616937 0.0325418 
2908 2 -205.996 1303.01 -470.995 0.108098 -0.682938 0.550656 -0.46764 
2909 2 -198.264 1299.3 -475.902 0.395795 -0.0312932 0.914976 -0.0720175 
2910 2 -190.916 1298.31 -482.401 0.309674 0.671539 0.606748 0.291538 
2863 2 -451.921 1317.16 -377.797 -0.18566 0.0539909 -0.602007 -0.774728 
2938 1 -413.491 1434.37 -474.765 -0.858036 -0.0767613 -0.479004 -0.168631 
2937 2 -384.705 1402.42 -494.079 0.147251 -0.703458 -0.619246 0.316225 
2936 2 -378.489 1404.2 -486.564 0.338874 -0.00637746 -0.935046 0.103982 
2939 3 -384.711 1436.12 -454.843 -0.860892 -0.0494732 -0.485699 -0.143223 
2935 2 -370.057 1406.96 -482.201 0.382193 0.763786 -0.38992 -0.344269 
2869 2 -430.168 1368.58 -375.236 -0.749829 0.130098 -0.574115 -0.302031 
2870 2 -422.606 1373.86 -371.844 -0.25585 -0.512411 -0.446815 -0.687264 
2871 2 -413.535 1377.59 -371.018 0.377015 -0.700147 0.189345 -0.576023 
2868 2 -438.743 1364.04 -375.288 -0.550218 0.662295 -0.275068 0.427741 
2867 2 -444.749 1355.95 -375.153 -0.127612 0.506758 0.508474 0.684372 
2866 2 -447.577 1346.47 -375.027 0.487701 -0.283647 0.636233 0.526212 
2872 2 -404.224 1380.98 -370.753 0.706534 -0.175768 0.669603 -0.14679 
2864 2 -451.067 1326.76 -375.201 0.520962 -0.609454 -0.401016 -0.443114 
2865 2 -449.507 1336.66 -375.46 0.698459 -0.66982 0.212535 0.135367 
2873 2 -394.366 1381.66 -369.441 0.521674 0.253435 0.533353 0.615761 
2874 2 -385.703 1385.69 -366.561 -0.287208 0.630371 0.0580101 0.718873 
2875 2 -376.806 1389.93 -365.315 -0.654509 0.530229 -0.459284 0.282017 
2876 2 -367.771 1393.86 -364.565 -0.63967 -0.242539 -0.599973 -0.414764 
2940 2 -424.297 1468.06 -443.567 -0.510853 -0.487206 -0.448585 -0.548116 
2905 2 -228.535 1320.1 -464.704 -0.407633 0.303319 -0.700944 0.50051 
2877 2 -358.342 1396.22 -362.839 -0.160641 -0.513785 -0.160354 -0.827349 
2934 2 -361.031 1408.46 -478.246 -0.166647 0.742486 0.320796 -0.563944 
2933 2 -351.831 1410.83 -476.167 -0.56343 0.206213 0.749807 -0.278947 
2904 2 -234.664 1327.51 -462.532 0.236316 0.723355 -0.347769 0.547694 
2903 2 -242.746 1329.05 -456.886 0.282269 0.740054 0.500012 0.350188 
2902 2 -250.928 1331.06 -451.6 0.450157 -0.0482453 0.877646 -0.157378 
2901 2 -259.928 1332.81 -447.648 0.31691 -0.603776 0.564485 -0.465165 
2932 2 -342.434 1413.97 -476.233 -0.664633 -0.46206 0.536962 0.237559 
2931 2 -334.076 1417.43 -480.271 -0.235879 -0.572269 -0.0618134 0.782974 
2900 2 -268.614 1333.24 -442.838 -0.128436 -0.816262 -0.254367 -0.502512 
2899 2 -277.22 1334.33 -437.92 -0.477128 -0.32586 -0.805967 -0.12877 
2898 2 -283.134 1334.08 -430.111 -0.302876 0.405484 -0.849692 0.147891 
2897 2 -288.135 1334.06 -421.629 -0.10035 0.928907 -0.240086 0.263478 
2896 2 -292.099 1334.73 -412.422 0.146566 0.691379 0.701338 0.0929457 
2895 2 -295.692 1333.8 -403.262 0.218858 -0.0839366 0.972138 0.00198673 
2894 2 -297.363 1333.98 -393.518 0.0552326 -0.861347 0.493727 -0.106131 
2930 2 -326.525 1422.56 -484.174 0.46575 -0.24959 -0.485713 0.696322 
2929 2 -318.239 1427.35 -486.608 0.79193 0.264228 -0.540902 0.102247 
2928 2 -309.534 1431.93 -488.209 0.564029 0.612828 -0.156395 -0.530899 
2927 2 -300.55 1430.85 -492.346 -0.301291 0.519955 0.129527 -0.788729 
2926 2 -292.302 1427.86 -497.022 -0.804708 0.3164 0.420666 -0.274549 
2925 2 -283.406 1423.84 -498.757 -0.608658 -0.162453 0.62211 0.46489 
2924 2 -275.596 1417.79 -499.351 0.071546 -0.600366 0.332793 0.723665 
2923 2 -268.919 1410.62 -498.118 0.622611 -0.684287 -0.293418 0.240857 
2922 2 -263.376 1403.27 -494.652 0.466053 -0.288988 -0.776095 -0.311379 
2921 2 -256.366 1396.69 -492.344 0.12739 0.447227 -0.647866 -0.603349 
2920 2 -248.57 1391.73 -488.681 -0.331557 0.80782 0.175032 -0.454819 
2919 2 -238.688 1390.12 -488.507 -0.68754 0.273799 0.640972 -0.20366 
2918 2 -229.63 1386.12 -489.603 -0.614825 -0.122834 0.633742 0.453071 
2917 2 -219.977 1384.4 -491.157 -0.0256081 -0.695832 0.118517 0.707895 
2893 2 -298.989 1333.86 -383.674 -0.0824239 -0.939762 -0.318184 -0.0938805 
2892 2 -301.653 1336.15 -374.464 -0.127757 -0.20953 -0.964918 0.0933199 
2891 2 -303.979 1336.38 -364.993 -0.0819332 0.523554 -0.83815 0.129161 
2994 2 -286.577 1464.65 -425.684 0.17297 0.223011 0.3071 0.908866 
2916 2 -211.218 1383.08 -495.831 0.690535 -0.395232 -0.349296 0.494921 
2913 2 -185.835 1386.17 -508.795 -0.355038 0.526377 0.34314 -0.692193 
2912 3 -206.061 1347.83 -480.12 0.878419 -0.107101 -0.4638 -0.0424073 
2915 2 -204.189 1382.48 -502.756 0.895115 0.0622629 -0.407633 -0.169491 
2914 2 -195.41 1385.1 -506.517 0.438829 0.542273 -0.147722 -0.701104 
2911 1 -180.216 1339.76 -502.269 0.852907 -0.170897 -0.472796 -0.140738 
3045 2 -195.615 1467.1 -367.384 0.016278 0.633895 0.572812 -0.519422 
2941 2 -414.402 1469.1 -442.708 0.165657 -0.654046 -0.0792986 -0.733821 
2942 2 -405.023 1472.18 -441.397 0.655659 -0.565314 0.427274 -0.260709 
2943 2 -396.543 1477.54 -441.823 0.724697 0.0290392 0.67389 0.140866 
2944 2 -386.903 1479.26 -440.913 0.264845 0.569693 0.482683 0.610183 
2945 2 -377.319 1481.33 -442.247 -0.221499 0.692777 -0.16272 0.666723 
2946 2 -367.594 1482.79 -442.896 -0.585513 0.405828 -0.668285 0.214179 
2995 2 -282.467 1469.01 -417.792 -0.53191 0.359365 0.027744 0.766263 
2991 2 -352.025 1523.55 -399.847 0.273665 -0.110628 -0.729708 0.616762 
2990 2 -347.229 1532.12 -399.22 0.679177 0.51582 -0.503419 0.138626 
2989 2 -342.689 1540.91 -398.072 0.471661 0.692272 0.225536 -0.497421 
2988 2 -336.41 1548.41 -399.93 -0.330899 0.137839 0.591106 -0.722565 
2987 2 -328.921 1554.88 -401.373 -0.725952 -0.239789 0.609481 -0.209829 
2965 1 -219.393 1498.82 -494.716 0.723541 -0.597003 -0.250096 0.23985 
2947 2 -358.285 1485.59 -444.956 -0.409759 -0.22751 -0.747534 -0.470669 
2948 2 -350.022 1490.76 -447.316 0.104709 -0.719199 -0.353675 -0.588815 
2949 2 -341.697 1495.64 -449.688 0.46738 -0.644423 0.453366 -0.400917 
2950 2 -332.246 1498.11 -451.534 0.704722 -0.2421 0.654862 0.126132 
2951 2 -323.897 1503.31 -452.835 0.406923 0.303245 0.656249 0.558384 
2952 2 -315.225 1508.12 -453.194 -0.285685 0.77119 0.0993698 0.560157 
2953 2 -307.699 1514.27 -455.128 -0.684386 0.574323 -0.428618 0.134373 
2954 2 -300.905 1521.68 -455.315 -0.603563 -0.167466 -0.72598 -0.283938 
2955 2 -291.427 1524.34 -456.09 -0.351212 -0.578802 -0.271313 -0.684125 
2960 2 -244.43 1523.73 -443.952 -0.523621 0.0508404 -0.637001 0.563441 
2959 2 -254.046 1525.47 -445.639 0.0170126 0.583483 -0.187184 0.790076 
2956 2 -281.641 1525.39 -454.798 0.412502 -0.470994 0.175788 -0.759674 
2958 2 -263.307 1527.97 -448.172 0.669357 0.488319 0.332806 0.450274 
2957 2 -272.748 1526.73 -450.602 0.734176 -0.26312 0.595699 -0.192085 
2966 3 -241.78 1524.93 -488.189 0.775044 -0.559255 -0.234843 0.17717 
2974 2 -274.133 1554.27 -509.196 -0.182248 0.180471 -0.0620573 -0.964554 
2975 2 -277.212 1556.57 -500.197 0.589625 -0.114454 -0.0874049 -0.794735 
2976 2 -277.301 1559.66 -490.9 0.97221 -0.0851368 -0.210551 -0.0568044 
2977 2 -280.445 1562.55 -481.921 0.578437 -0.431268 -0.0525778 0.690401 
2978 2 -286.15 1566.27 -474.701 -0.0645332 -0.328957 0.23939 0.911216 
2986 2 -322.938 1560.68 -406.838 -0.73668 -0.428866 0.0816666 0.516437 
2983 2 -307.5 1566.66 -431.627 0.925232 0.0777993 -0.186842 -0.320911 
2982 2 -305.078 1568.38 -441.127 0.414977 0.135897 0.072946 -0.896663 
2981 2 -301.137 1569.38 -450.179 -0.436063 0.152307 0.167293 -0.871013 
2980 2 -297.06 1569.41 -459.249 -0.964079 -0.0138818 0.194051 -0.180841 
2979 2 -292.089 1570.13 -467.837 -0.828763 -0.180444 0.189241 0.494752 
2984 2 -311.732 1565.53 -422.743 0.741251 -0.0953239 -0.28045 0.602336 
2985 2 -316.93 1563.06 -414.507 -0.0386348 -0.312474 -0.129459 0.94027 
2993 3 -302.245 1510.35 -406.566 -0.208866 0.533599 0.281574 0.769651 
3000 2 -258.612 1500.99 -392.037 0.874029 -0.26888 0.360477 0.183938 
3001 2 -253.121 1506.52 -386.075 0.523356 0.043186 0.277477 0.804512 
2992 1 -326.555 1485.83 -412.351 -0.192201 0.563364 0.300888 0.745082 
2961 2 -237.446 1516.89 -441.86 -0.600901 -0.476747 -0.616563 -0.177426 
2999 2 -264.115 1493.33 -395.146 0.684666 -0.52909 -0.0301159 -0.50039 
2998 2 -268.605 1485.04 -397.779 -0.134737 -0.250143 -0.518504 -0.806491 
2996 2 -276.636 1472.84 -410.783 -0.938948 0.2933 -0.165459 0.0705378 
2997 2 -273.23 1477.59 -402.592 -0.658787 0.129761 -0.491809 -0.554334 
3002 2 -249.291 1510.75 -377.977 -0.317169 0.290028 0.102338 0.897114 
3003 2 -245.16 1514.4 -369.69 -0.848822 0.444107 -0.083437 0.274423 
2962 2 -228.332 1513.35 -442.927 -0.126562 -0.849537 -0.0772798 -0.506258 