ITEM: TIMESTEP
100000000
ITEM: NUMBER OF ATOMS
4067
ITEM: BOX BOUNDS pp pp pp
-4.6310929470000001e+03 4.6704658980000004e+03
-4.6310929470000001e+03 4.6704658980000004e+03
-4.6310929470000001e+03 4.6704658980000004e+03
ITEM: ATOMS id type x y z c_q[1] c_q[2] c_q[3] c_q[4] 
3814 2 -490.012 2815.5 -734.606 -0.484737 0.190219 0.442443 0.730131 
3816 2 -494.771 2832.12 -724.876 -0.503256 0.307823 -0.350116 -0.727596 
3810 2 -495.056 2777.63 -741.741 -0.0373493 -0.0955501 -0.644693 -0.757526 
3811 2 -492.185 2787.13 -741.468 0.615142 -0.613449 -0.173785 -0.463766 
3812 2 -489.016 2796.43 -739.892 0.738206 -0.513497 0.254941 0.355497 
3813 2 -488.383 2806.01 -737.212 0.128677 -0.227512 0.581863 0.77014 
3809 2 -496.902 2767.96 -741.688 -0.547241 0.482609 -0.504223 -0.461925 
3817 2 -495.389 2840.61 -719.825 0.198512 0.148158 -0.306843 -0.918961 
3815 2 -492.121 2824.06 -730.061 -0.882471 0.434204 0.17142 0.0576875 
3808 2 -496.79 2758.72 -738.061 -0.496086 0.865856 0.0630679 0.014634 
3807 2 -495.661 2749.57 -734.62 -0.392238 0.457569 0.678002 0.420825 
3806 2 -495.04 2740.95 -729.831 0.209438 -0.341538 0.775141 0.488512 
3805 2 -493.886 2731.26 -727.453 0.603705 -0.767868 0.0812002 0.198309 
3804 2 -494.873 2721.51 -725.556 0.510598 -0.680713 -0.363461 -0.37923 
3803 3 -490.36 2765.12 -697.995 0.544952 -0.812082 -0.116196 0.173348 
3802 1 -476.726 2735.81 -684.484 0.561789 -0.794737 -0.115779 0.198447 
3824 2 -518.555 2882.04 -674.267 0.691311 -0.363401 -0.145825 -0.607259 
3825 2 -515.868 2889.32 -668.019 0.918715 -0.336364 0.153265 0.13904 
3823 2 -519.685 2873.54 -679.049 -0.10033 0.0434947 -0.555427 -0.824344 
3822 2 -515.481 2866.19 -684.189 -0.683396 0.497488 -0.0678036 -0.52998 
3818 2 -498.6 2846.48 -712.357 0.884009 -0.0328118 -0.336565 -0.322762 
3819 2 -504.267 2848.3 -704.581 0.815764 -0.299294 -0.0533029 0.492048 
3820 2 -508.178 2853.36 -697.03 0.017205 -0.270256 0.293835 0.916693 
3821 2 -512.463 2859.34 -690.465 -0.77546 0.254888 0.372461 0.441551 
3368 2 -428.481 2047.99 -581.592 -0.238646 0.865156 0.43361 0.0808434 
3369 2 -428.953 2052.82 -590.248 -0.206419 0.828707 -0.492054 -0.168877 
3367 2 -429.026 2044.97 -572.128 0.00716645 0.190823 0.966441 0.171832 
3366 2 -426.526 2040.75 -563.633 0.123091 -0.592806 0.757587 0.243911 
3365 2 -428.721 2037.77 -554.509 0.151856 -0.978323 0.0356881 -0.136199 
3371 3 -386.785 2057.76 -560.492 0.675941 0.075794 0.00864636 -0.732997 
3364 2 -428.956 2035.83 -544.855 0.0573537 -0.64941 -0.756174 -0.0563817 
3363 2 -430.578 2031.55 -536.025 -0.132453 0.0924236 -0.96169 -0.221508 
3362 2 -431.35 2030.39 -526.16 -0.098368 0.904303 -0.414421 -0.0285388 
3370 1 -383.003 2062.69 -594.97 0.635432 0.0822482 0.0318952 -0.767101 
3380 2 -367.464 2034.06 -519.183 -0.877497 -0.30896 0.342177 -0.132131 
3361 2 -431.604 2030.11 -516.331 -0.00881756 0.902803 0.429632 0.0169026 
3379 2 -361.336 2038.85 -525.195 -0.574473 -0.461958 0.0165757 0.6755 
3378 2 -355.471 2044.62 -530.768 0.106144 -0.26443 -0.357202 0.889504 
3377 2 -349.689 2047.63 -538.206 0.806647 -0.0207802 -0.390789 0.442915 
3376 2 -345.672 2049.91 -546.947 0.888462 0.207081 -0.114708 -0.393185 
3375 2 -342.964 2055.99 -554.386 0.196017 0.232226 0.252002 -0.918772 
3374 2 -340.708 2059.98 -563.184 -0.558322 -0.00509814 0.168217 -0.812375 
3373 2 -341.46 2064.29 -572.114 -0.971382 -0.227617 -0.0103493 -0.0670796 
3372 2 -340.124 2072.48 -577.82 -0.610417 -0.317372 -0.261862 0.676827 
3550 2 -565.215 2224.47 -521.917 -0.0366909 0.47902 -0.85937 -0.175148 
3551 2 -566.472 2227.83 -531.025 0.134246 -0.325574 -0.935918 -0.00610988 
3552 2 -568.232 2228.7 -540.744 0.200959 -0.903348 -0.28656 0.247914 
3555 2 -583.314 2237.41 -563.848 -0.0735011 0.765057 0.634477 -0.0819984 
3556 2 -585.737 2236.22 -573.357 -0.178293 0.925013 -0.259483 -0.212676 
3553 2 -573.721 2230.99 -548.576 0.0314586 -0.793081 0.440508 0.419506 
3554 2 -579.557 2235.97 -554.723 -0.120463 -0.0532193 0.986808 0.0941637 
3557 2 -588.384 2240.46 -582.063 -0.0424656 0.505191 -0.845188 -0.169225 
3558 2 -589.644 2243.75 -591.316 0.137119 -0.392453 -0.899823 -0.132282 
3560 3 -541.231 2249.5 -573.409 -0.662065 -0.0601454 -0.361024 0.653998 
3559 1 -550.346 2267.57 -601.868 -0.644166 -0.109483 -0.293172 0.697936 
3666 2 -574.651 2352.78 -569.888 -0.310567 -0.741013 0.105975 0.585847 
3665 2 -565.535 2356.72 -568.935 0.239675 -0.545816 -0.505619 0.623691 
3661 2 -528.394 2357.32 -555.49 -0.438922 0.537883 0.590889 -0.41095 
3664 2 -555.699 2357.78 -566.85 0.612641 -0.0243883 -0.783253 0.102912 
3663 2 -546.712 2356.71 -562.761 0.407099 0.591084 -0.591534 -0.367393 
3662 2 -537.528 2356.78 -559.024 0.0216441 0.818385 -0.0316995 -0.573386 
3667 1 -576.474 2344.02 -523.499 -0.215627 -0.0560282 -0.704368 -0.673967 
3668 3 -564.931 2376.97 -524.912 -0.259556 0.0122504 -0.686318 -0.6793 
3660 2 -518.954 2358.58 -552.602 -0.60379 -0.0542475 0.795256 -0.00795981 
3570 2 -492.218 2251.4 -525.634 -0.745614 0.255741 -0.238029 0.567449 
3561 2 -505.166 2279.3 -595.73 0.364353 0.177456 -0.174373 0.897413 
3562 2 -503.103 2274.89 -587.232 -0.378621 -0.0100418 -0.440682 0.813846 
3567 2 -500.158 2244.91 -552.357 0.972595 -0.22502 0.0553424 -0.0190251 
3568 2 -500.005 2247.23 -542.746 0.551009 -0.0522358 0.206283 0.806913 
3563 2 -500.101 2267.41 -581.61 -0.792535 -0.454473 -0.33118 0.235929 
3564 2 -497.917 2258.95 -576.948 -0.760954 -0.333072 0.214712 -0.513722 
3565 2 -497.433 2251.41 -570.367 -0.0637899 -0.0315996 0.240754 -0.967972 
3566 2 -497.16 2246.81 -561.592 0.585669 0.200119 -0.0487743 -0.783942 
3569 2 -497.881 2250.99 -533.659 0.000343076 0.297323 -0.000587975 0.954777 
3654 2 -464.41 2370.94 -565.261 -0.340764 0.343904 0.581738 -0.653599 
3656 2 -481.788 2362.83 -561.845 0.833278 0.30258 -0.39521 -0.240631 
3655 2 -472.288 2365.14 -563.924 0.191254 0.618114 -0.00562151 -0.762447 
3657 2 -489.768 2360.06 -556.734 0.679987 -0.193531 -0.574894 0.411898 
3658 2 -499.32 2358.35 -554.824 0.0978649 -0.711736 -0.0861445 0.690241 
3659 2 -509.235 2357.97 -554.854 -0.409324 -0.517308 0.382397 0.647008 
3571 2 -486.069 2252.6 -517.935 -0.871885 0.240622 -0.336839 -0.261644 
3652 2 -447.535 2378.12 -571.713 -0.635112 -0.546667 0.290829 0.461743 
3653 2 -455.862 2373.41 -569.547 -0.804702 -0.0376398 0.552104 -0.214986 
3651 2 -438.68 2381.98 -573.513 0.0582844 -0.567624 -0.287667 0.76919 
3726 2 -613.924 2535.07 -534.732 0.605624 -0.359929 0.501496 -0.502167 
3727 2 -604.611 2534.02 -531.549 0.776808 0.234212 0.583792 0.0300016 
3728 2 -595.47 2531.1 -528.893 0.520025 0.44494 0.213289 0.697216 
3729 2 -587.118 2529.66 -523.897 -0.27818 0.476021 0.00788319 0.834241 
3730 2 -579.539 2532.2 -518.147 -0.808431 0.397448 -0.355885 0.248636 
3650 2 -428.917 2384.33 -573.476 0.594719 -0.246207 -0.669964 0.369919 
3649 2 -419.473 2386.9 -572.48 0.675298 0.269214 -0.668909 -0.155101 
3648 2 -410.933 2391.59 -571.123 0.277749 0.778151 -0.0565084 -0.560485 
3647 2 -402.885 2396.81 -569.363 -0.233303 0.415127 0.667061 -0.572947 
3646 2 -394.92 2402.64 -569.054 -0.724615 -0.387842 0.569317 -0.0197405 
3645 2 -386.319 2406.53 -566.301 -0.396283 -0.768269 0.0964899 0.493368 
3644 2 -376.746 2408.4 -564.224 0.290765 -0.633786 -0.426248 0.576266 
3640 1 -367.076 2439.98 -520.98 -0.263824 0.499693 0.611386 -0.553996 
3643 2 -367.607 2410.49 -561.169 0.567264 -0.0818255 -0.796665 0.19194 
3641 3 -397.463 2423.4 -526.263 -0.187362 0.517774 0.575026 -0.605104 
3642 2 -358.234 2413.33 -558.958 0.502848 0.624228 -0.498278 -0.330457 
3725 2 -622.074 2538.74 -538.978 0.0092001 -0.483514 0.210201 -0.849673 
3724 2 -631.831 2540.17 -539.962 -0.589628 -0.462581 -0.463301 -0.472979 
3723 2 -641.077 2540.14 -543.429 -0.820816 0.0982654 -0.521062 0.212368 
3774 2 -549.416 2687.1 -629.68 -0.340269 -0.882632 0.0760227 0.315276 
3733 2 -558.49 2551.46 -515.646 0.64773 -0.591585 0.238563 -0.416606 
3732 2 -564.873 2543.92 -515.161 0.0824899 -0.590703 -0.440187 -0.671194 
3735 2 -544.96 2565.4 -515.074 0.205178 0.182277 0.738843 0.615458 
3736 2 -539.536 2573.66 -516.281 -0.234081 0.58814 0.396131 0.665115 
3737 2 -533.969 2581.92 -516.281 -0.749477 0.52847 -0.32663 0.228728 
3751 2 -411.346 2646.53 -521.853 0.641655 -0.222909 -0.657461 -0.32609 
3750 2 -403.581 2640.44 -520.855 0.249465 0.399825 -0.594652 -0.65138 
3752 2 -418.211 2653.85 -522.433 0.702083 -0.606492 -0.228531 0.294994 
3753 2 -424.471 2661.28 -520.398 0.24127 -0.593042 0.175715 0.747807 
3754 2 -432.001 2667.09 -517.537 -0.333925 -0.0736505 0.562267 0.752944 
3755 2 -437.459 2674.84 -514.484 -0.713781 0.482718 0.464753 0.203726 
3775 1 -594.295 2691.49 -615.848 -0.705035 0.24803 -0.514185 -0.420738 
3773 2 -542.866 2692.32 -624.613 0.0408435 -0.619071 -0.617873 0.483028 
3772 2 -535.714 2696.51 -619.251 0.432074 0.0317787 -0.871833 0.228494 
3771 2 -529.677 2701.88 -613.373 0.460141 0.755155 -0.454086 -0.108708 
3776 3 -578.895 2719.87 -602.365 -0.672752 0.28721 -0.514122 -0.447877 
3777 2 -630.362 2715.32 -596.806 -0.779828 0.585422 -0.195031 0.105418 
3778 2 -626.541 2724.26 -594.775 -0.506721 0.228671 -0.660007 -0.505306 
3779 2 -621.882 2733.05 -594.565 -0.0478844 -0.403887 -0.636641 -0.655188 
3780 2 -616.369 2741.32 -595.136 0.426285 -0.705229 -0.159297 -0.543652 
3781 2 -609.491 2748.38 -594.947 0.601367 -0.597687 0.50041 0.175267 
3782 2 -605.557 2757.28 -596.735 0.267003 0.160111 0.65619 0.687378 
3783 2 -599.311 2765 -596.555 -0.221399 0.739056 0.36292 0.522559 
3784 2 -593.709 2772.66 -599.577 -0.576044 0.715735 -0.38158 0.101459 
3785 2 -587.907 2779.57 -603.375 -0.288467 0.194917 -0.874934 -0.336577 
3786 2 -583.74 2786.16 -609.514 -0.0905049 -0.559406 -0.600064 -0.564622 
3787 2 -576.059 2791.54 -612.588 0.342415 -0.835581 -0.00747701 -0.429535 
3788 2 -568.871 2797.06 -616.836 0.574716 -0.528837 0.619304 -0.0805926 
3789 2 -560.971 2802.43 -619.632 0.528054 0.230772 0.729175 0.369061 
3790 2 -551.777 2806.09 -620.522 0.143906 0.587893 0.157233 0.780353 
3791 2 -542.182 2806.64 -618.158 -0.386074 0.328405 -0.471694 0.721528 
3792 2 -533.619 2802.84 -614.843 -0.715978 -0.27489 -0.635162 0.0915425 
3793 2 -525.136 2797.71 -615.378 -0.380786 -0.753995 -0.367801 -0.388865 
3770 2 -524.781 2706.67 -606.235 0.199604 0.88275 0.258404 -0.337842 
3769 2 -519.434 2711.03 -599.093 -0.136256 0.348961 0.853645 -0.361871 
3843 2 -519.939 2837.68 -533.566 0.930891 -0.0681791 -0.132102 0.33368 
3768 2 -515.373 2714.59 -590.748 -0.251724 -0.52237 0.810734 -0.0804629 
3842 2 -517.044 2839.42 -542.905 0.912299 0.147026 -0.0461284 -0.379428 
3794 2 -516.513 2795.29 -619.412 0.115456 -0.785397 0.284839 -0.537296 
3841 2 -514.723 2835.72 -551.676 0.207254 0.101321 -0.199827 -0.952286 
3844 2 -523.039 2838.14 -524.176 0.186517 -0.0701898 0.188089 0.961721 
3767 2 -510.286 2714.39 -582.095 -0.0425271 -0.957659 0.106597 0.26404 
3766 2 -506.758 2712.83 -573.025 0.156795 -0.777752 -0.607793 0.0332383 
3758 2 -457.856 2693.05 -516.022 0.29465 -0.013801 -0.946 -0.134444 
3765 2 -502.58 2711.68 -564.114 0.249057 0.0174892 -0.961216 -0.117166 
3795 2 -507.5 2794.19 -623.313 0.421114 -0.30668 0.828046 -0.207244 
3764 2 -496.376 2711.23 -556.34 0.150924 0.812963 -0.510127 -0.236819 
3840 2 -512.323 2832.07 -560.699 -0.487442 0.182094 -0.0691555 -0.851152 
3796 2 -499.418 2794.4 -629.078 0.507751 0.414437 0.745428 0.121525 
3763 2 -488.729 2709.16 -550.249 -0.278441 0.849799 0.255824 -0.367242 
3762 2 -480.743 2705.91 -545.367 -0.451656 0.399609 0.791138 -0.102077 
3839 2 -507.386 2831.52 -569.198 -0.881136 0.130737 0.251163 -0.378713 
3759 2 -463.985 2695 -523.525 0.360138 -0.760103 -0.497108 0.213137 
3760 2 -470.771 2698.06 -530.119 0.149706 -0.916623 0.193753 0.315991 
3761 2 -475.628 2701.53 -537.993 -0.132205 -0.37582 0.859173 0.321097 
3800 2 -471.604 2776.68 -649.325 -0.642785 -0.658747 -0.390805 0.0122733 
3799 2 -477.602 2783.53 -645.619 -0.418272 -0.171753 -0.84186 0.294654 
3801 2 -467.376 2767.99 -651.385 -0.378425 -0.695187 0.328295 -0.515491 
3798 2 -483.782 2787.87 -639.02 -0.122333 0.618684 -0.65039 0.423387 
3797 2 -491.124 2792.7 -634.211 0.311671 0.883024 0.0120489 0.350691 
3838 2 -500.921 2831.6 -576.584 -0.807983 -0.200536 0.27152 0.482934 
3837 2 -493.09 2831.77 -582.548 -0.17485 -0.420625 0.00538844 0.89021 
3836 2 -486.42 2836.28 -588.235 0.62251 -0.0627084 -0.429818 0.651003 
3845 2 -524.431 2842.01 -515.112 -0.59008 0.226728 0.231539 0.739452 
3826 2 -514.064 2896.23 -661.217 0.465971 -0.214018 0.414316 0.751937 
3835 2 -479.024 2840.73 -592.854 0.86356 0.326972 -0.368689 -0.106876 
3827 2 -512.627 2904.45 -655.913 -0.248219 0.23456 0.425029 0.838284 
3828 2 -511.121 2912.83 -650.964 -0.798763 0.490408 0.0983493 0.334374 
3834 2 -471.179 2845.18 -596.609 0.390142 0.573206 0.0243137 -0.720161 
3833 2 -464.687 2850.9 -601.213 -0.168222 0.2943 0.376903 -0.861994 
3832 2 -456.62 2856.57 -601.461 -0.597732 -0.0403488 0.677018 -0.427476 
3831 2 -450.086 2863.99 -602.761 -0.732829 -0.571537 0.344315 0.133249 
3830 3 -487.865 2868.26 -638.089 0.334443 0.80421 0.355817 -0.338805 
3829 1 -476.821 2897.49 -622.35 0.379195 0.752074 0.387387 -0.37487 
3937 1 -685.988 3024.03 -537.75 -0.803067 0.0929565 -0.383887 -0.446176 
3936 2 -642.195 3012.57 -550.9 0.381126 0.827128 -0.39861 -0.108222 
3935 2 -637.348 3017.88 -544.12 0.245208 0.888117 0.219389 -0.320919 
3934 2 -633.441 3021.33 -535.699 -0.131433 0.544174 0.766045 -0.315871 
3933 2 -629.34 3021.63 -526.745 -0.190624 -0.143001 0.970671 -0.0317817 
3932 2 -625.135 3019.37 -518.018 0.0358227 -0.848387 0.4481 0.279576 
4040 2 -492.464 3062.6 -543.262 0.256748 0.843259 0.430018 -0.195139 
4036 2 -502.47 3096.18 -525.735 -0.621682 -0.57026 -0.511179 0.164349 
4037 2 -499.105 3087.34 -528.822 -0.474575 -0.847098 0.0964985 -0.21884 
4038 2 -495.774 3079.23 -533.331 -0.164971 -0.34492 0.77832 -0.498029 
4039 2 -495.034 3070.46 -537.7 0.282146 0.31061 0.809626 -0.410391 
4041 2 -493.285 3056.44 -551.032 0.329075 0.831931 -0.353066 0.273761 
4045 1 -480.393 3060.72 -607.681 -0.921037 0.313449 0.0631996 0.222364 
4046 3 -481.137 3083.75 -581.483 -0.892689 0.371642 0.0441821 0.25107 
4042 2 -491.289 3049.74 -557.98 0.0995537 0.132947 -0.895775 0.412312 
4043 2 -490.913 3042.43 -564.707 -0.313128 -0.506425 -0.716258 0.363949 
4044 2 -490.442 3033.99 -570.103 -0.514443 -0.850846 -0.100682 0.0356596 
4048 2 -468.685 3106.38 -621.179 0.643215 0.0176036 0.271006 0.715905 
4047 2 -472.118 3101.83 -629.253 0.93487 -0.282111 0.214505 -0.0204773 
4049 2 -465.044 3110.76 -613.153 -0.120282 0.267412 0.220569 0.930254 
4053 2 -445.474 3118.66 -580.465 0.445597 -0.497667 0.13776 -0.731295 
4054 2 -437.387 3121.49 -575.65 0.872284 -0.179634 0.450012 -0.0658863 
4055 2 -429.652 3124.87 -570.689 0.610613 0.230006 0.351238 0.671476 
4050 2 -461.158 3115.06 -605.058 -0.82933 0.193178 -0.269734 0.449598 
4052 2 -449.008 3116.33 -589.568 -0.204767 -0.131851 -0.174722 -0.954022 
4051 2 -455.638 3115.19 -596.822 -0.881762 -0.100053 -0.369496 -0.275605 
4056 2 -422.411 3127.39 -564.281 -0.0552168 0.3285 0.046 0.941766 
4035 2 -505.764 3105.25 -523.443 -0.218243 0.0347449 -0.804154 0.551814 
4034 2 -506.834 3114.98 -522.048 0.466119 0.576944 -0.527941 0.413699 
4032 2 -510.21 3133.26 -515.946 0.318683 0.361845 0.684249 -0.547094 
4033 2 -509.324 3123.76 -518.575 0.564846 0.800315 0.190055 0.0657534 
4031 2 -511.283 3142.99 -516.334 -0.232461 -0.334905 0.586549 -0.699829 
4057 2 -416.82 3129.09 -556.338 -0.775806 0.363204 -0.193331 0.478363 
4058 2 -410.697 3133.08 -549.726 -0.795873 0.147586 -0.29636 -0.506928 
4059 2 -407.883 3138.67 -542.156 -0.0113157 -0.239723 -0.427131 -0.871759 
4014 2 -572.464 3147.93 -600.112 -0.0405206 0.916771 -0.11136 0.381429 
4015 2 -565.204 3147.86 -606.973 -0.30022 0.608366 -0.690436 0.251113 
4013 2 -579.254 3149.98 -593.23 0.246571 0.799387 0.500267 0.223421 
4016 2 -557.619 3147.67 -613.2 -0.313974 -0.146583 -0.899894 -0.264811 
4012 2 -585.374 3154.14 -586.562 0.3978 0.193353 0.882354 -0.160691 
4017 2 -551.387 3151.12 -620.101 -0.0148831 -0.799813 -0.438972 -0.409123 
4011 2 -592.85 3157.81 -581.386 0.147018 -0.62321 0.636266 -0.430303 
4010 2 -599.128 3163.21 -575.997 -0.39999 -0.824057 -0.063436 -0.396124 
4009 2 -603.308 3170.43 -570.761 -0.475953 -0.663904 -0.564959 0.116282 
4008 2 -608.311 3175.3 -563.742 -0.315099 -0.0673933 -0.914625 0.244195 
4007 2 -614.657 3179.99 -557.658 -0.0428393 0.636536 -0.634498 0.436347 
4006 2 -620.618 3183.97 -550.737 0.258113 0.930023 0.0810894 0.248714 
4005 2 -626.546 3187.72 -543.822 0.414805 0.43039 0.798803 -0.0679326 
4019 3 -548.915 3169.72 -571.599 -0.895873 -0.301039 -0.279868 0.168706 
4018 1 -560.69 3191 -596.675 -0.897007 -0.354258 -0.246105 0.0965038 
4024 2 -527.832 3199.46 -545.704 -0.180124 -0.311475 0.316486 -0.87771 
4023 2 -535.004 3205.1 -549.214 -0.758017 -0.49512 -0.213919 -0.366748 
4020 2 -559.293 3218.99 -558.678 0.500838 0.588089 0.214036 0.597914 
4022 2 -542.223 3210.43 -553.319 -0.721181 -6.47373e-05 -0.527315 0.449263 
4021 2 -550.297 3215.62 -555.78 0.00324986 0.501568 -0.342228 0.794543 
4004 2 -633.805 3190.26 -537.568 0.320197 -0.405326 0.795651 -0.316425 
4003 2 -639.224 3195.4 -531.203 -0.189495 -0.879938 0.178632 -0.397356 
4025 2 -522.746 3193.08 -540.19 0.575238 -0.00753181 0.466075 -0.672174 
4026 2 -517.497 3187.16 -534.127 0.862592 0.465888 0.187479 -0.061122 
4002 2 -643.288 3202.57 -525.865 -0.451181 -0.619684 -0.640401 0.0481125 
4027 2 -514.982 3178.82 -529.445 0.62651 0.529901 -0.263013 0.507458 
4001 2 -647.397 3210.47 -521.589 -0.172688 0.0995029 -0.841881 0.501513 
4029 2 -514.379 3161.17 -521.578 -0.688943 -0.47792 -0.322221 0.439458 
4030 2 -514.368 3152.35 -517.061 -0.678884 -0.703219 0.00823823 -0.211028 
4000 2 -651.946 3217.68 -516.724 0.187464 0.662297 -0.497511 0.527922 
4028 2 -513.028 3169.65 -526.375 -0.0313022 -0.14484 -0.525849 0.83757 
4060 2 -403.143 3145.95 -537.385 0.616738 -0.607514 -0.175569 -0.468761 
4061 2 -399.886 3155.1 -535.171 0.846443 -0.423666 0.313798 0.0746385 
4062 2 -395.258 3162.69 -531.039 0.579986 0.126233 0.505742 0.626025 
4063 2 -387.4 3166.96 -526.851 -0.252291 0.472505 0.230736 0.812311 
4064 2 -380.781 3172.1 -521.709 -0.795802 0.317051 -0.222899 0.465289 
4065 2 -374.028 3174.85 -515.056 -0.910817 0.0119765 -0.379512 -0.161988 
2886 2 -391.774 1208.04 -392.034 0.318285 -0.256091 0.37505 -0.832135 
2887 2 -385.15 1203.67 -385.98 0.725953 0.334624 0.526929 -0.288728 
2888 2 -379.71 1195.8 -383.5 0.808899 0.475355 -0.0312004 0.344597 
2889 2 -376.465 1187.82 -378.444 0.0426325 0.495934 -0.400532 0.769289 
2884 1 -428.192 1185.38 -372.276 0.665521 -0.112956 0.481686 -0.558839 
2890 2 -369.03 1181.82 -375.969 -0.668541 0.300193 -0.58403 0.349064 
2891 2 -359.396 1180.08 -374.587 -0.702646 -0.17444 -0.594564 -0.349789 
2903 2 -252.644 1195.51 -363.922 0.0092132 0.588045 0.425608 0.687732 
2902 2 -261.481 1191.4 -362.223 0.594886 0.0151739 0.74999 0.288783 
2900 2 -280.044 1184.58 -363.339 -0.0163028 -0.636383 -0.296232 -0.712038 
2901 2 -271.102 1188.83 -362.728 0.586864 -0.528454 0.43847 -0.429034 
2892 2 -349.941 1182.3 -372.616 -0.304652 -0.48554 -0.133061 -0.808538 
2893 2 -341.602 1181.66 -367.507 0.332448 -0.41423 0.480677 -0.69774 
2894 2 -332.572 1178.43 -365.122 0.644591 -0.0309484 0.599395 -0.473571 
2895 2 -324.218 1173.76 -362.585 0.801256 0.328496 0.476956 0.150308 
2904 2 -244.146 1200.58 -364.649 -0.572139 0.689243 -0.0695226 0.439053 
2905 2 -238.392 1208.67 -364.318 -0.76653 0.277055 -0.532802 -0.227583 
2906 2 -231.038 1214.98 -362.161 -0.240206 -0.275477 -0.588563 -0.721115 
2899 2 -289.254 1181.36 -361.795 -0.520197 -0.234995 -0.700797 -0.427849 
3342 2 -462.021 1913.35 -419.433 -0.390854 -0.51756 -0.336845 0.682569 
3341 2 -457.421 1921.7 -421.592 0.433923 0.0351306 -0.62181 0.651021 
3343 1 -505.006 1924.09 -435.878 0.585363 -0.630087 0.500109 0.101152 
3345 2 -536.057 1952.2 -457.497 0.565129 -0.259216 0.780806 0.0614661 
3346 2 -528.006 1955.77 -461.923 0.264133 0.4203 0.635173 0.591724 
3347 2 -519.749 1960.67 -464.288 -0.329151 0.849105 0.0535763 0.409646 
3381 2 -373.133 2028.39 -513.339 -0.477446 0.149075 0.428614 -0.752404 
3348 2 -512.745 1966.65 -468 -0.609738 0.584217 -0.5231 0.115225 
3382 2 -379.655 2023.54 -507.611 0.2768 0.43875 0.232103 -0.822805 
3383 2 -386.278 2018.1 -502.502 0.797168 0.402925 -0.195961 -0.40469 
3349 2 -504.9 1972.06 -470.556 -0.469579 0.00956925 -0.690712 -0.549838 
3360 2 -432.163 2029.13 -506.39 0.0600556 0.207623 0.975822 0.0325198 
3350 2 -498.435 1979.43 -469.645 0.00721203 -0.581593 -0.399398 -0.708646 
3359 2 -435.378 2026.35 -497.509 0.234959 -0.410473 0.879948 0.0446879 
3351 2 -490.806 1985.5 -468.537 0.585741 -0.680937 0.25555 -0.357669 
3352 2 -482.857 1991.23 -468.899 0.653329 -0.370347 0.597198 0.281706 
3353 2 -476.58 1998.89 -469.345 0.299801 0.560679 0.558098 0.533183 
3395 2 -366.408 1971.25 -410.296 -0.622525 -0.362522 0.0603322 -0.690942 
3340 2 -452.783 1930.28 -423.285 0.756539 0.566983 -0.324433 0.030368 
3339 2 -447.648 1938.51 -421.054 0.341684 0.741108 0.327829 -0.475961 
3338 2 -444.651 1945.64 -415.076 -0.13164 0.0160369 0.901999 -0.410867 
3344 3 -485.123 1950.42 -447.56 0.590963 -0.560237 0.569725 0.110957 
3337 2 -443.32 1953.62 -409.414 -0.358905 -0.616617 0.654358 -0.250572 
3336 2 -443.225 1960.95 -402.701 -0.35788 -0.917275 -0.136763 0.108741 
3354 2 -467.428 2001.68 -472.237 -0.340336 0.75217 -0.0726385 0.559586 
3355 2 -458.688 2005.83 -474.58 -0.558162 0.480086 -0.673966 -0.0611799 
3356 2 -451.266 2011.63 -477.926 -0.282693 -0.182527 -0.889907 -0.307952 
3358 2 -439.775 2020.12 -491.287 0.424015 -0.849841 0.286538 -0.126006 
3335 2 -445.053 1969.19 -397.556 -0.268328 -0.342864 -0.799196 0.414403 
3334 2 -441.541 1976.72 -392.125 0.320223 0.304502 -0.831075 0.337713 
3357 2 -445.294 2015.38 -484.717 0.0192608 -0.782046 -0.479974 -0.397061 
3394 2 -370.835 1974.06 -418.706 -0.968824 -0.158624 -0.174803 -0.0752535 
3393 2 -374.127 1975.17 -427.966 -0.787374 0.0220519 -0.181361 0.588782 
3392 2 -379.458 1978.98 -435.301 -0.119128 0.267926 -0.220155 0.930353 
3391 2 -384.266 1980.53 -443.886 0.600879 0.24888 0.0591 0.757305 
3390 2 -388.891 1983.84 -451.912 0.93224 0.127407 0.329646 -0.0776538 
3389 2 -391.692 1988.78 -459.959 0.556497 0.0312527 0.296026 -0.775695 
3388 2 -393.39 1993.27 -468.606 -0.223645 -0.12864 0.244645 -0.934657 
3387 2 -398.668 1997.01 -475.94 -0.852698 -0.310882 -0.176512 -0.380923 
3385 2 -398.856 2008.78 -490.423 0.0676876 -0.0690095 -0.428408 0.8984 
3386 2 -401.622 2001.63 -484.143 -0.770473 -0.0778055 -0.228068 0.590171 
3384 2 -392.949 2013.43 -496.822 0.83431 0.0934274 -0.408888 0.357784 
3333 2 -440.578 1985.16 -387.202 0.452068 0.889172 -0.070219 -0.00879347 
3332 2 -441.306 1991.99 -379.995 0.221611 0.559476 0.762489 -0.237666 
3315 2 -496.591 2030.47 -380.406 0.43818 -0.668882 0.556217 0.226313 
3398 3 -393.79 2000.33 -379.638 -0.312106 0.394094 -0.692505 -0.517414 
3314 2 -498.553 2021.98 -375.451 0.439054 -0.863214 -0.159481 -0.191464 
3331 2 -443.418 1995.9 -371.018 0.0221337 -0.477638 0.852429 -0.211512 
3313 2 -500.134 2014.32 -369.457 0.186222 -0.54283 -0.72651 -0.377942 
3397 1 -393.346 1967.43 -367.519 -0.312849 0.374887 -0.696573 -0.52571 
3312 2 -496.997 2007.82 -362.667 0.0725291 0.280328 -0.86771 -0.404023 
3330 2 -446.235 1999.39 -362.206 -0.191213 -0.921252 0.262499 -0.214074 
3396 2 -362.192 1966.24 -402.875 0.0854292 -0.191231 0.309345 -0.927598 
3549 2 -561.56 2222.62 -512.929 -0.0703233 0.935343 -0.274096 -0.212272 
3548 2 -558.324 2219.53 -504.05 -0.237855 0.826167 0.508245 -0.0505941 
3547 2 -560.668 2215.55 -495.329 0.0815834 0.300907 0.925404 0.215469 
3546 2 -563.623 2210.47 -487.284 0.287496 -0.516469 0.787792 0.173174 
3545 2 -566.857 2203.91 -480.547 0.357689 -0.907308 0.156992 -0.15558 
3544 2 -572.503 2201.74 -472.624 -0.0768557 -0.80651 -0.501397 -0.303704 
3543 2 -579.237 2200.13 -465.472 -0.329351 -0.192572 -0.914205 -0.136653 
3542 2 -583.67 2195.63 -457.837 -0.326232 0.558936 -0.759756 -0.062716 
3532 1 -579.431 2112.9 -443.093 0.686237 -0.253943 0.527542 0.431615 
3533 3 -566.257 2142.34 -429.302 0.722501 -0.3106 0.489084 0.377249 
3541 2 -587.198 2189.87 -450.605 -0.310638 0.935652 -0.0444855 0.161495 
3534 2 -617.675 2135.06 -426.693 -0.652415 0.5793 -0.477512 -0.103675 
3540 2 -591.918 2183.24 -444.993 -0.0943273 0.641005 0.608642 0.458007 
3539 2 -595.587 2176.55 -438.585 0.131418 0.0424484 0.927443 0.347529 
3538 2 -601.969 2170.51 -433.875 0.55062 -0.504461 0.662314 0.0606399 
3535 2 -613.768 2144 -428.636 -0.277714 -0.00616844 -0.759139 -0.588681 
3536 2 -609.461 2152.85 -429.725 0.194685 -0.522709 -0.603515 -0.569774 
3537 2 -606.395 2161.94 -431.895 0.567153 -0.762996 -0.0063691 -0.310053 
3477 2 -557.493 2091.14 -383.83 0.586471 0.79069 0.145247 -0.0988187 
3476 2 -557.283 2100.45 -380.688 0.218973 0.295121 0.742277 -0.560338 
3475 2 -556.75 2110.28 -379.422 -0.333651 -0.308697 0.650756 -0.608194 
3531 2 -533.093 2108.88 -451.303 0.338484 0.925662 0.104437 -0.132934 
3530 2 -531.484 2115.45 -444.075 0.121202 0.482747 0.79664 -0.342973 
3474 2 -552.96 2119.11 -377.556 -0.626363 -0.704521 0.331777 -0.0352741 
3473 2 -547.387 2126.97 -375.661 -0.380901 -0.733711 -0.242264 0.50783 
3472 2 -544.306 2136.34 -374.409 0.055609 -0.193717 -0.757557 0.620878 
3517 2 -533.527 2225.75 -397.91 0.735817 0.63253 0.0557486 -0.235311 
3518 2 -535.925 2216.41 -395.948 0.682317 0.610732 -0.287391 0.280814 
3519 2 -535.888 2206.47 -395.688 0.174645 0.302358 -0.742343 0.571844 
3520 2 -535.429 2196.9 -398.388 -0.622173 -0.348326 -0.617824 0.331457 
3521 2 -530.478 2188.28 -398.957 -0.409442 -0.901298 0.00809001 -0.14126 
3522 2 -527.883 2180.79 -404.894 -0.157716 -0.519923 0.760412 -0.35578 
3524 2 -524.813 2165.77 -417.182 0.504442 0.825812 0.251931 -0.0101726 
3529 2 -528.284 2121.57 -436.828 -0.303822 -0.361031 0.852566 -0.224678 
3528 2 -526.014 2130.11 -432.625 -0.562443 -0.801567 0.162401 0.121551 
3527 2 -524.932 2138.9 -428.103 -0.379584 -0.655624 -0.538291 0.36921 
3526 2 -523.703 2147.28 -423.073 0.0843943 -0.0667541 -0.862614 0.494285 
3523 2 -527.695 2173.61 -411.732 0.343058 0.2874 0.815462 -0.367063 
3471 2 -541.832 2145.73 -372.53 0.573327 0.51436 -0.506416 0.387649 
3470 2 -536.928 2153.48 -369.194 0.502423 0.816708 -0.0182879 -0.283238 
3469 2 -531.726 2161.22 -366.076 0.0315447 0.504109 0.694592 -0.51227 
3525 2 -523.215 2157.08 -421.595 0.569591 0.614416 -0.430262 0.336058 
3468 2 -527.42 2169.97 -364.433 -0.412402 -0.183882 0.730609 -0.512175 
3467 2 -523.256 2178.65 -361.757 -0.672592 -0.616548 0.409176 -0.00797994 
3432 2 -376.937 2203.17 -361.626 0.641292 0.556244 -0.504012 0.159091 
3433 2 -381.41 2194.38 -363.135 0.301468 -0.133709 -0.699289 0.634219 
3434 2 -387.561 2186.7 -362.93 -0.248455 -0.550304 -0.180011 0.776551 
3424 1 -305.356 2212.9 -363.005 -0.819244 -0.153738 0.550388 -0.0477242 
3516 2 -533.771 2235.24 -400.686 0.418249 0.309322 0.502198 -0.690786 
3515 2 -537.401 2244.03 -403.027 -0.282713 -0.410538 0.455551 -0.737567 
3514 2 -543.914 2250.99 -405.654 -0.713163 -0.608629 -0.197686 -0.286165 
3513 2 -549.229 2257.15 -411.3 -0.718931 -0.161706 -0.458929 0.496361 
3507 2 -561.273 2307.07 -433.125 -0.628883 -0.609856 -0.35563 0.325744 
3508 2 -560.287 2297.32 -432.57 -0.530352 -0.583592 0.394821 -0.471449 
3509 2 -559.295 2287.47 -432.032 0.241635 -0.097526 0.625338 -0.735563 
3510 2 -555.15 2278.65 -430.006 0.75849 0.377466 0.349021 -0.400495 
3505 1 -605.58 2302.82 -417.339 0.515281 0.0788864 0.433347 -0.735169 
3506 3 -587.934 2278.32 -399.437 0.511795 0.00414334 0.523917 -0.680852 
3669 2 -568.075 2354.61 -478.245 0.595489 -0.674445 0.30003 0.317015 
3670 2 -569.575 2364.5 -478.786 0.0226043 -0.225906 0.728628 0.646186 
3671 2 -573.071 2373.82 -480.123 -0.444767 0.488148 0.633578 0.403079 
3504 2 -639.44 2281.57 -392.323 -0.365517 0.889193 0.12457 -0.245389 
3511 2 -552.209 2270.29 -425.51 0.792373 0.342954 -0.0262245 0.503825 
3512 2 -549.592 2264.07 -418.195 0.0615263 0.0645118 -0.3896 0.91666 
3503 2 -634.089 2275.96 -386.178 -0.420325 0.492656 0.75142 0.12643 
3502 2 -626.842 2269.57 -384.093 -0.244527 -0.30773 0.691611 0.605956 
3501 2 -621.758 2262.8 -379.232 0.196719 -0.79156 0.339472 0.468501 
3500 2 -615.945 2257.73 -372.916 0.407503 -0.809536 -0.395328 0.149358 
3499 2 -611.908 2251.01 -366.915 0.374466 -0.237513 -0.85012 -0.284004 
3498 2 -605.966 2243.77 -363.566 0.138175 0.312776 -0.795016 -0.501028 
3585 2 -513.903 2307.33 -413.82 -0.488911 0.604023 0.170189 -0.605935 
3613 1 -400.856 2232.43 -458.406 0.733916 -0.591969 0.275254 0.187551 
3584 2 -504.82 2303.85 -415.307 -0.786751 0.20192 0.583311 -0.000448668 
3586 1 -503.964 2351.49 -400.589 0.608317 0.150557 0.748557 -0.216667 
3583 2 -496.524 2298.8 -417.66 -0.361254 -0.331782 0.545642 0.679479 
3582 2 -491.22 2292.3 -422.941 0.414466 -0.44108 0.178869 0.775675 
3581 2 -487.691 2287.85 -431.042 0.94734 -0.216491 -0.156781 0.176349 
3572 2 -480.91 2257.9 -511.477 -0.368559 -0.0459149 -0.227638 -0.900132 
3580 2 -485.438 2284.11 -439.99 0.676737 -0.0662473 -0.224094 -0.698155 
3579 2 -483.673 2280.85 -449.172 -0.108049 0.145513 -0.214918 -0.959667 
3577 2 -476.744 2277.86 -467.328 -0.954319 0.105314 0.176333 0.217002 
3576 2 -476.142 2274.89 -476.829 -0.478487 0.0400271 0.124337 0.868325 
3615 2 -439.433 2252.44 -476.928 -0.32649 0.350832 -0.730399 -0.486661 
3628 2 -438.702 2365.93 -497.482 -0.729873 0.655629 0.00729155 0.193349 
3627 2 -442.14 2356.59 -497.682 -0.280538 0.481817 0.51834 0.64844 
3578 2 -479.715 2280.38 -458.244 -0.816393 0.132659 0.143301 -0.543478 
3575 2 -477.36 2268.96 -484.532 0.351031 -0.0463224 0.287378 0.889969 
3574 2 -477.894 2265.38 -493.679 0.974797 -0.144648 0.112072 0.127621 
3626 2 -445.171 2347.24 -496.602 0.409953 -0.233556 0.709967 0.522815 
3573 2 -478.854 2261.87 -502.704 0.539292 -0.112237 -0.126398 -0.824979 
3623 2 -452.872 2324.25 -482.461 0.10149 -0.0771554 -0.812176 -0.569313 
3625 2 -450.452 2339.81 -492.814 0.529881 -0.774388 0.328711 -0.107231 