ITEM: TIMESTEP
100000000
ITEM: NUMBER OF ATOMS
4067
ITEM: BOX BOUNDS pp pp pp
-4.6310929470000001e+03 4.6704658980000004e+03
-4.6310929470000001e+03 4.6704658980000004e+03
-4.6310929470000001e+03 4.6704658980000004e+03
ITEM: ATOMS id type x y z c_q[1] c_q[2] c_q[3] c_q[4] 
2965 1 -378.532 1136.06 -559.249 0.414849 -0.449683 -0.340932 0.713758 
2966 3 -412.526 1132.54 -551.313 0.383554 -0.516396 -0.349702 0.681124 
2967 2 -394.698 1107.41 -593.115 0.59252 -0.448701 -0.516244 0.425534 
2968 2 -404.536 1107.95 -592.613 0.17385 -0.711894 0.124224 0.668993 
2969 2 -413.745 1111.77 -593.604 -0.540482 -0.381376 0.476443 0.579166 
2970 2 -423.401 1112.64 -591.476 -0.813875 0.1755 0.553158 0.0286804 
2971 2 -432.378 1115.95 -588.481 -0.553454 0.466124 0.227758 -0.65157 
2972 2 -440.631 1118.89 -584.122 0.0506959 0.303477 -0.208806 -0.928295 
2973 2 -446.862 1121.96 -576.887 0.732771 -0.0421713 -0.44957 -0.509072 
2974 2 -452.288 1127.44 -570.845 0.902001 -0.244581 -0.258931 0.243985 
2975 2 -458.108 1130.98 -563.751 0.462124 -0.345023 0.0374244 0.816088 
2976 2 -463.021 1134.35 -555.818 -0.324886 -0.0393168 0.491597 0.806992 
2977 2 -466.533 1141.83 -550.447 -0.825992 0.28521 0.332264 0.354955 
2978 2 -469.653 1148.93 -544.337 -0.676346 0.532458 -0.165167 -0.481419 
2979 2 -473.296 1157.27 -540.537 -0.0123602 0.192537 -0.701775 -0.685776 
2963 2 -389.734 1159.12 -515.569 -0.382369 0.22044 -0.873168 -0.206826 
2990 2 -541.126 1234.45 -521.529 -0.583727 -0.235718 0.640465 0.439892 
2991 2 -550.685 1237.31 -520.554 -0.690626 0.385624 0.581795 -0.189328 
2989 2 -532.887 1230.37 -525.146 0.0776168 -0.518465 0.206881 0.826057 
2988 2 -525.555 1224.54 -528.537 0.752559 -0.509935 -0.298737 0.290478 
2987 2 -517.596 1220.36 -532.775 0.800094 -0.058022 -0.510371 -0.309846 
2964 2 -383.789 1164.13 -521.746 -0.106001 -0.518471 -0.733792 -0.42603 
2986 2 -511.541 1213.27 -536.157 0.173539 0.243659 -0.549703 -0.779962 
2980 2 -475.732 1166.83 -540.533 0.536815 -0.167796 -0.622692 -0.543993 
2981 2 -480.812 1175.21 -538.984 0.727854 -0.632423 -0.1995 0.174554 
2985 2 -504.897 1206.16 -537.727 -0.470646 0.676721 -0.067455 -0.562131 
2984 2 -498.589 1198.83 -539.317 -0.773401 0.466284 0.429453 0.000745743 
2983 2 -491.978 1191.54 -538.439 -0.454309 -0.0581946 0.689881 0.560607 
2982 2 -486.305 1183.52 -537.498 0.174182 -0.535617 0.519287 0.642741 
3008 2 -417.853 1306.78 -525.01 -0.365591 0.930251 0.0143841 -0.0277291 
3007 2 -421.33 1300.28 -518.387 -0.1322 0.660839 0.631286 0.383788 
3009 2 -418.118 1313.32 -532.508 -0.345207 0.599145 -0.567885 -0.446502 
3010 2 -419.796 1322.41 -535.798 0.147071 0.0341973 -0.77775 -0.610169 
3011 2 -422.429 1331.7 -537.957 0.564412 -0.597584 -0.563701 -0.0810795 
3017 2 -448.912 1382.8 -535.21 0.283068 0.244231 -0.551445 -0.745743 
3018 2 -455.164 1390.05 -532.336 0.740921 -0.323547 -0.548364 -0.213657 
3016 2 -443.023 1375.1 -536.738 -0.387625 0.570975 -0.255763 -0.676994 
3015 2 -439.18 1366.24 -539.047 -0.791657 0.576397 0.195712 -0.0523753 
3013 2 -429.121 1349.63 -541.564 0.135521 -0.464082 0.578781 0.656715 
3014 2 -434.082 1358.24 -542.341 -0.570079 0.195851 0.587975 0.539386 
3012 2 -426.409 1340.24 -540.99 0.615169 -0.704937 0.146163 0.321351 
3020 3 -424.971 1351.3 -515.754 -0.159432 -0.703654 -0.334219 -0.606424 
3098 2 -315.268 1635.62 -527.429 0.225409 0.753303 0.481264 0.387442 
3099 2 -307.653 1635.35 -533.715 -0.204922 0.778063 -0.472319 0.359915 
3097 2 -322.261 1637.16 -520.705 0.382905 0.121999 0.915511 -0.01842 
3096 2 -329.832 1637.28 -514.317 0.301122 -0.641587 0.638964 -0.299026 
3634 2 -564.986 2396.69 -524.328 -0.397867 0.164471 -0.895914 -0.109502 
3635 2 -557.9 2399.21 -530.787 -0.180898 -0.487764 -0.704413 -0.482871 
3636 2 -550.56 2404.09 -535.537 0.299445 -0.898842 -0.0560831 -0.315073 
3637 2 -544.646 2409.69 -541.242 0.475059 -0.630916 0.60178 0.118848 
3638 2 -540.859 2416.95 -546.867 0.150504 0.0136579 0.949038 0.276566 
3640 1 -569.962 2456.37 -561.34 0.902418 0.170164 -0.310816 0.245112 
3642 2 -610.3 2478.86 -551.417 -0.572443 -0.150463 0.221457 -0.775001 
3643 2 -610.063 2474.86 -542.405 0.288724 0.103342 0.200872 -0.930381 
3644 2 -610.602 2471.22 -533.285 0.857971 0.321256 0.236604 -0.323572 
3645 2 -609.37 2463.45 -526.995 0.774024 0.416175 -0.162712 0.448564 
3639 2 -538.178 2422.12 -555.038 -0.11229 0.704287 0.627685 0.312062 
3641 3 -583.949 2436.98 -535.667 0.87552 0.208366 -0.292321 0.323414 
3646 2 -608.099 2455.53 -521.134 -0.100385 0.405171 -0.301002 0.857413 
3633 2 -569.478 2395.48 -515.512 -0.184871 0.846463 -0.453518 0.208911 
3666 2 -515.175 2483.29 -516.958 0.0231064 0.298723 0.946746 0.117906 
3647 2 -601.884 2449.84 -515.944 -0.776537 -0.0300281 -0.385219 0.497689 
3882 2 -593.035 2927.37 -547.184 0.426814 0.893241 0.055328 -0.129956 
3881 2 -591.213 2935.02 -541.039 0.197826 0.565647 0.70343 -0.382223 
3880 2 -588.714 2941.93 -534.437 -0.193402 -0.0930071 0.901884 -0.3749 
3879 2 -583.346 2947.23 -527.928 -0.400855 -0.782731 0.462514 0.11282 
3883 1 -635.642 2922.77 -527.388 -0.592763 0.252944 -0.522113 -0.558614 
3878 2 -583.312 2952.27 -519.446 -0.258542 -0.848402 -0.457202 0.0658454 
3893 2 -622.701 2988.73 -515.845 -0.383372 0.16572 -0.797825 -0.434786 
3931 2 -493.825 2972.16 -545.693 0.626788 0.173244 0.503082 -0.569238 
3932 2 -488.544 2964.51 -542.18 0.762796 0.550586 0.167089 0.29509 
3933 2 -482.051 2957.71 -538.93 0.212526 0.673672 -0.180333 0.684455 
3936 2 -455.202 2947.98 -539.33 -0.185803 -0.786261 -0.0119897 -0.589175 
3934 2 -473.748 2952.32 -538.617 -0.545682 0.383817 -0.494191 0.557396 
3935 2 -464.303 2950.81 -536.422 -0.585613 -0.419372 -0.677975 -0.146746 
3930 2 -501.01 2979.05 -544.866 0.0126461 -0.522902 0.482739 -0.702408 
3929 2 -507.047 2986.56 -542.584 -0.520405 -0.785108 -0.0189543 -0.335299 
3927 2 -516.736 2994.73 -528.716 -0.244008 0.525881 -0.793811 0.183776 
3926 2 -524.304 2996.59 -522.562 0.00912097 0.883117 -0.160707 0.440675 
3901 2 -594.656 3060.06 -523.23 0.10566 -0.417051 -0.545141 -0.719532 
3900 2 -596.136 3050.32 -523.793 -0.355239 0.208058 -0.651379 -0.637356 
3902 2 -590.127 3068.94 -523.024 0.471683 -0.710261 0.12889 -0.506391 
3903 2 -581.786 3074.13 -523.956 0.749043 -0.384172 0.530536 0.0993902 
3904 2 -574.954 3081.27 -523.177 0.419836 0.160194 0.594656 0.666678 
3905 2 -567.298 3087.26 -520.928 -0.405978 0.510282 0.220089 0.725503 
3899 2 -600.104 3041.28 -524.795 -0.716218 0.607045 -0.342542 0.0345509 
3925 2 -527.619 3000.78 -514.278 0.275031 0.774606 0.567882 -0.0430433 
3906 2 -561.659 3094.33 -517.044 -0.886206 0.451016 -0.00157569 0.105931 
3894 2 -618.796 2997.12 -519.261 0.205262 -0.450737 -0.565122 -0.659803 
3896 2 -611.79 3015.54 -518.999 0.570641 -0.443706 0.538112 0.433508 
3895 2 -614.954 3006.25 -519.873 0.652593 -0.677777 -0.0804753 -0.329037 
3898 2 -602.772 3032.05 -522.621 -0.500714 0.704037 0.362947 0.349123 
3897 2 -608.891 3025.02 -519.098 0.155016 0.30457 0.779307 0.525251 
3928 2 -511.295 2993.35 -536.783 -0.349482 -0.380692 -0.812265 0.270485 
2260 2 -140.88 404.302 -371.894 -0.428362 -0.115398 0.879871 0.170342 
2261 2 -148.429 407.624 -377.517 -0.346412 0.714214 0.553106 -0.252925 
2262 2 -155.742 409.42 -383.856 -0.0604051 0.888922 -0.187686 -0.413454 
2259 2 -132.754 403.914 -366.206 -0.255559 -0.706631 0.504752 0.424956 
2940 2 -556.993 1109.05 -411.402 -0.264132 0.804738 0.096045 0.522882 
2941 2 -549.44 1114.12 -415.132 -0.628799 0.575063 -0.489975 0.183952 
2942 2 -541.219 1119.2 -417.173 -0.533036 -0.0834208 -0.753777 -0.375146 
2943 2 -532.207 1123.01 -418.548 -0.115575 -0.698463 -0.260444 -0.656476 
2938 1 -538.169 1085.65 -375.022 -0.721506 0.658387 -0.213318 0.0212448 
2939 3 -523.511 1117.31 -372.647 -0.705524 0.68619 -0.163551 0.068053 
2944 2 -522.688 1124.97 -420.526 0.378512 -0.729441 0.353774 -0.446641 
2945 2 -513.537 1127.45 -423.263 0.555376 -0.114888 0.810424 -0.146868 
2962 2 -395.925 1152.53 -511.263 -0.492106 0.771388 -0.345195 0.208884 
2961 2 -401.306 1145.49 -507.047 -0.200731 0.726864 0.441265 0.486478 
2946 2 -504.106 1126.54 -426.114 0.543939 0.488929 0.623681 0.275864 
2947 2 -494.632 1124.57 -428.357 0.2358 0.781722 0.0303268 0.576532 
2960 2 -404.339 1139.98 -499.429 0.150284 -0.123504 0.943569 0.268029 
2959 2 -410.074 1133.33 -494.866 0.501805 -0.730675 0.461183 -0.0402036 
2948 2 -485.987 1120.91 -431.691 -0.276148 0.537645 -0.584896 0.540904 
2958 2 -415.871 1127.46 -489.344 0.186754 -0.834758 -0.303456 -0.419782 
2957 2 -423.535 1122.45 -485.8 -0.359483 -0.296517 -0.781236 -0.415355 
2949 2 -477.442 1117.56 -435.191 -0.526887 -0.181027 -0.803943 0.208075 
2956 2 -430.268 1119.67 -479.128 -0.423486 0.408531 -0.808474 0.0114476 
2955 2 -436.74 1115.96 -472.684 -0.350453 0.859286 -0.292366 0.230939 
2953 2 -448.257 1111.35 -457.505 0.173967 0.279622 0.928067 0.173891 
2954 2 -443.748 1113.61 -466.063 0.029071 0.810089 0.459347 0.363196 
2952 2 -454.128 1111.1 -449.482 0.272005 -0.572458 0.751836 -0.181792 
2951 2 -460.052 1110.59 -441.617 0.0268026 -0.94414 -0.0632934 -0.322297 
2950 2 -469.365 1112.78 -438.7 -0.467074 -0.604884 -0.548595 -0.339118 
2992 1 -538.228 1276.45 -497.439 0.741531 0.291908 0.588888 -0.13466 
3006 2 -426.386 1292.86 -513.987 0.316618 -0.0275437 0.847257 0.425617 
3005 2 -432.446 1286.57 -509.111 0.525659 -0.672908 0.516063 -0.0675084 
3004 2 -436.364 1277.93 -506.246 0.489707 -0.753152 -0.227527 -0.375739 
2993 3 -512.571 1254.15 -489.569 0.787386 0.276844 0.543634 -0.0885596 
3003 2 -442.42 1271.25 -502.256 -0.160505 -0.384802 -0.748144 -0.516184 
3001 2 -456.262 1267.05 -489.505 -0.141955 0.844632 -0.242203 0.455833 
3002 2 -448.202 1267.72 -495.024 -0.343167 0.403522 -0.847104 -0.0426782 
3000 2 -465.297 1268.41 -486.045 0.415347 0.671187 0.514099 0.335704 
2999 2 -472.543 1273.52 -481.93 0.492794 0.22536 0.827612 -0.146371 
2998 2 -479.621 1279.65 -478.571 0.181127 -0.410005 0.684242 -0.575241 
2997 2 -486.616 1285.43 -474.572 -0.337092 -0.843882 -0.00985554 -0.417295 
2996 2 -492.968 1292.61 -471.808 -0.551817 -0.466528 -0.684422 0.0970306 
2995 2 -501.463 1297.58 -470.833 -0.340679 0.33209 -0.659178 0.582357 
2994 2 -510.266 1301.71 -469.004 0.164414 0.767686 -0.120146 0.607611 
3021 2 -441.503 1311.2 -487.3 0.0439824 0.742715 0.101087 0.660471 
3022 2 -431.802 1312.54 -487.007 -0.736006 0.506185 -0.340327 0.293683 
3023 2 -423.576 1317.73 -484.61 -0.649984 0.146845 -0.57932 -0.46941 
3024 2 -417.012 1324.56 -482.113 -0.206972 -0.625711 -0.315866 -0.682552 
3019 1 -458.951 1350.09 -507.495 -0.229042 -0.668525 -0.368184 -0.604198 
3025 2 -407.543 1327.26 -482.299 0.472826 -0.686691 0.0543239 -0.54949 
3026 2 -399.71 1333.24 -481.323 0.689427 -0.438071 0.551845 -0.168084 
3027 2 -390.954 1337.73 -480.519 0.484138 0.13106 0.716267 0.485175 
3028 2 -382.803 1343.23 -480.119 -0.141859 0.554398 0.49433 0.654337 
3029 2 -376.795 1351.15 -480.031 -0.681797 0.671789 -0.139406 0.25381 
3030 2 -372.112 1359.72 -478.874 -0.72477 0.284387 -0.493956 -0.387092 
3031 2 -366.937 1367.64 -475.935 -0.19716 -0.199681 -0.65163 -0.704722 
3032 2 -362.756 1376.37 -473.536 0.422824 -0.446957 -0.23321 -0.753035 
3034 2 -354.615 1390.48 -462.555 0.675595 -0.152942 0.337945 0.637161 
3033 2 -358.091 1383.69 -468.791 0.876898 -0.424095 0.135303 -0.181347 
3035 2 -352.312 1397.2 -455.711 -0.0686918 0.283572 0.289926 0.911489 
3036 2 -346.929 1402.5 -449.311 -0.637078 0.387477 -0.0422317 0.664988 
3037 2 -340.63 1406.31 -442.642 -0.912072 0.306199 -0.256028 -0.0938963 
3038 2 -336.45 1411.83 -435.711 -0.594513 -0.171802 -0.397646 -0.677433 
3039 2 -329.685 1415.28 -429.413 0.0809909 -0.43739 0.0103716 -0.895557 
3040 2 -322.228 1415.61 -422.927 0.780867 -0.0523365 0.386679 -0.487839 
3041 2 -315.877 1412.87 -415.832 0.805419 0.189708 0.441412 0.347082 
3042 2 -307.142 1413.06 -411.163 0.18872 0.500917 0.211701 0.81771 
3043 2 -298.573 1414.97 -406.709 -0.549294 0.288462 -0.308991 0.720826 
3045 2 -281.665 1409.55 -399.907 -0.517748 -0.638276 -0.211581 -0.528937 
3044 2 -290.746 1413.52 -400.855 -0.727769 -0.228679 -0.63831 0.103047 
3046 1 -259.533 1446.12 -419.77 -0.650474 0.0978105 0.753109 -0.0119899 
3047 3 -293.009 1451.56 -428.332 -0.653639 0.112588 0.74693 -0.0466446 
3064 2 -404.75 1517.49 -403.053 -0.316849 -0.261238 0.353775 0.84036 
3063 2 -395.258 1515.86 -405.586 0.343874 -0.556986 -0.180423 0.734142 
3065 2 -411.867 1521.16 -397.333 -0.748431 0.26127 0.489031 0.363919 
3066 2 -416.623 1528.55 -392.837 -0.830451 0.517076 0.100862 -0.181138 
3074 3 -418.538 1599.72 -385.717 -0.262122 0.274592 -0.899022 0.21829 
3062 2 -385.662 1514.11 -406.789 0.663285 -0.376308 -0.586415 0.273062 
3061 2 -376.159 1511.76 -408.778 0.608546 0.230388 -0.577475 -0.493068 
3067 2 -420.744 1536.87 -389.525 -0.486178 0.207117 -0.422728 -0.73623 
3068 2 -420.117 1545.27 -384.484 0.280015 -0.00285439 -0.426428 -0.860083 
3069 2 -422.461 1552.7 -378.416 0.824501 -0.21381 -0.27955 -0.443098 
3060 2 -367.249 1508.33 -411.253 0.0099077 0.570681 -0.225417 -0.789565 
3070 2 -424.822 1558.6 -370.936 0.776705 -0.239449 -0.252337 0.52509 
3086 2 -412.182 1619.07 -468.245 -0.423295 0.549708 -0.706721 0.13852 
3085 2 -418.317 1615.83 -461.261 -0.228611 0.905234 -0.14897 0.325723 
3084 2 -423.022 1616.18 -452.566 0.185352 0.737323 0.625458 0.175507 
3083 2 -428.408 1616.82 -444.416 0.300759 -0.041591 0.951716 -0.0452846 
3082 2 -433.855 1619.89 -436.697 0.0866661 -0.705135 0.58614 -0.389504 
3071 2 -429.978 1560.19 -362.633 0.0339286 -0.271141 0.101363 0.956586 
3059 2 -357.857 1505.55 -412.673 -0.500714 0.556197 0.383181 -0.54139 
3050 2 -276.938 1488.41 -439.603 -0.373372 -0.388778 0.46066 0.705151 
3051 2 -285.701 1491.82 -436.278 -0.801502 0.0931679 0.576466 0.128848 
3049 2 -267.26 1489 -441.599 0.202727 -0.595267 -0.214848 0.747261 
3053 2 -303.331 1495.97 -428.952 0.13237 0.608199 -0.0728958 -0.779268 
3052 2 -294.029 1495.39 -432.412 -0.574987 0.392455 0.380046 -0.609044 
3054 2 -312.782 1495.69 -426.202 0.806495 -0.00802586 -0.47964 -0.345612 
3055 2 -320.192 1499.17 -420.507 0.689574 -0.387615 -0.502573 0.348802 
3048 2 -258.161 1486.43 -444.295 0.761633 -0.269536 -0.518994 0.279123 
3056 2 -329.774 1500.55 -418.297 0.0763037 -0.76164 0.0362327 0.642472 
3057 2 -339.493 1502.25 -418.839 -0.47462 -0.385614 0.429858 0.664274 
3058 2 -348.639 1504.68 -415.976 -0.813586 0.027958 0.580731 -0.0068903 
3087 2 -404.872 1621.57 -474.501 -0.354531 -0.0521738 -0.885445 -0.295926 
3089 2 -388.476 1626.84 -482.112 0.250357 -0.750752 0.427768 -0.4367 
3088 2 -398.114 1626.11 -480.142 -0.282352 -0.669149 -0.385418 -0.569183 
3090 2 -379.648 1627.47 -486.637 0.408584 -0.298156 0.859776 0.0703309 
3081 2 -436.91 1624.51 -428.447 -0.257063 -0.955129 -0.0626631 -0.133116 
3091 2 -372.619 1631.36 -492.404 0.302797 0.482383 0.642316 0.512885 
3080 2 -441.767 1626.49 -420.023 -0.303886 -0.483279 -0.815238 -0.0973729 
3079 2 -441.018 1629.76 -410.84 0.151378 0.403893 -0.894661 0.11635 
3078 2 -437.891 1633.17 -402.051 0.187034 0.923835 -0.296445 -0.153843 
3077 2 -433.992 1638.38 -394.449 0.128835 0.775034 0.526861 -0.324254 
3076 2 -430.451 1644.59 -387.763 -0.131009 0.307327 0.863406 -0.378044 
3140 2 -372.361 1765.52 -426.722 0.0606918 -0.83482 0.472199 0.276443 
3075 2 -430.185 1649.87 -379.463 -0.188432 -0.514572 0.801529 -0.239291 
3138 2 -366.579 1754.82 -411.347 0.316255 -0.411791 -0.813109 -0.263181 
3139 2 -369.871 1760.88 -418.435 0.282473 -0.904455 -0.318576 0.0260658 
3141 2 -377.017 1769.71 -434.355 -0.14391 -0.138378 0.939418 0.27863 
3137 2 -366.753 1750.28 -402.552 -0.118356 0.269514 -0.932794 -0.207967 
3136 2 -367.739 1747.1 -393.171 -0.172754 0.927231 -0.328041 -0.0528023 
3135 2 -368.086 1740.39 -386.101 -0.29787 0.775035 0.517572 0.206672 
3134 2 -367.928 1733.72 -378.837 -0.0141441 0.00294123 0.924084 0.381917 
3133 2 -367.661 1725.26 -373.698 0.36851 -0.631553 0.593399 0.33648 
3132 2 -368.704 1717.29 -368.045 0.477662 -0.863361 -0.0834968 -0.139554 
3092 2 -363.798 1634.56 -495.714 -0.212735 0.85574 -0.0403899 0.469917 
3131 2 -367.808 1708.34 -363.902 0.402442 -0.480134 -0.683728 -0.374203 
3093 2 -355.396 1637.96 -500.108 -0.486891 0.280752 -0.809296 0.170749 
3094 2 -346.919 1637.7 -505.168 -0.454343 -0.471564 -0.742285 -0.142169 
3095 2 -338.761 1635.76 -510.316 -0.0199763 -0.824554 -0.170987 -0.538957 
3100 1 -274.103 1652.88 -505.388 0.692327 0.291395 -0.39619 -0.528021 
3102 2 -259.558 1674.28 -465.916 -0.684693 -0.302804 0.580022 0.321061 
3103 2 -269.303 1672.67 -464.583 -0.530457 0.373146 0.637633 -0.415693 
3104 2 -279.105 1671.31 -464.278 0.121443 0.729102 0.169341 -0.651909 
3101 3 -302.194 1651.38 -484.424 0.723345 0.280239 -0.384193 -0.500633 
3113 2 -314.298 1706.12 -415.324 0.963114 -0.250039 0.0050577 0.0993286 
3112 2 -314.322 1701.67 -424.161 0.68833 -0.164968 -0.135021 -0.693366 
3114 2 -314.818 1710.94 -406.737 0.560878 -0.0133789 0.146868 0.814657 
3115 2 -313.491 1712.86 -397.112 -0.218858 0.11222 -0.1134 0.962626 
3111 2 -315.452 1698.34 -433.305 -0.157829 -0.0799643 -0.168124 -0.969758 
3110 2 -313.554 1691.22 -439.796 -0.746178 0.415673 -0.10211 -0.509909 
3109 2 -311.031 1684.8 -446.876 -0.859573 0.275336 0.246149 0.353179 
3108 2 -308.931 1677.38 -453.16 -0.197557 0.0685102 0.417898 0.884103 
3107 2 -304.614 1669.72 -457.696 0.5241 -0.471809 0.225971 0.67205 
3105 2 -288.328 1667.74 -465.761 0.628795 0.480172 -0.474339 -0.386075 
3106 2 -297.794 1665.87 -463.836 0.902537 -0.23675 -0.356237 0.0497015 
3116 2 -309.902 1712.68 -387.909 -0.853372 0.257232 -0.122322 0.436607 
3117 2 -305.062 1714.55 -379.433 -0.818211 0.059266 -0.359826 -0.444459 
3118 2 -300.24 1719.12 -372.003 -0.274126 -0.207893 -0.00974685 -0.938904 
3119 2 -296.075 1718.84 -363.011 0.51973 -0.0968483 0.193257 -0.826531 
3142 2 -381.045 1774.4 -442.017 -0.345363 0.614243 0.708062 -0.0455952 
3143 2 -386.551 1777.45 -449.721 -0.0652189 0.862202 0.0719189 -0.497173 
3148 2 -428.821 1775.3 -474.587 -0.606851 0.0063519 0.782959 0.136626 
3144 2 -395.007 1777.5 -454.965 0.302353 0.605475 -0.640523 -0.362924 
3145 2 -403.284 1778.15 -460.533 0.413198 0.0409797 -0.906416 0.0774523 
3146 2 -410.928 1776.73 -466.743 0.3365 -0.676548 -0.525187 0.391445 
3147 2 -419.36 1776.19 -471.997 -0.298361 -0.744594 0.345312 0.487155 
3150 2 -447.083 1781.78 -477.922 -0.0562615 0.620088 -0.306197 -0.720118 
3151 2 -456.004 1786.27 -478.073 0.481918 0.129872 -0.650375 -0.572626 
3149 2 -438.091 1778.01 -476.317 -0.507817 0.626226 0.462587 -0.368749 
3153 2 -472.367 1796.58 -474.161 0.290149 -0.623702 0.0649297 0.722907 
3152 2 -463.85 1792.15 -476.022 0.742565 -0.404908 -0.500731 0.184161 
3154 1 -459.442 1823.6 -437.769 -0.553159 -0.294047 -0.77559 -0.0775337 
3155 3 -429.283 1817.04 -454.023 -0.528151 -0.261926 -0.804454 -0.0728382 
3156 2 -428.014 1848.13 -412.508 0.599991 0.319999 0.730724 0.0604462 
3157 2 -418.804 1844.74 -414.051 0.181288 0.764113 0.377367 0.490775 
3158 2 -409.914 1844.97 -418.196 -0.241365 0.69554 -0.221712 0.639383 
3159 2 -400.12 1845.63 -419.598 -0.708836 0.377188 -0.585865 0.10974 
3187 2 -369.124 1906.89 -409.191 0.853568 0.470404 0.144295 0.17123 
3160 2 -391.135 1849.59 -419.578 -0.448323 -0.20096 -0.766577 -0.413498 
3161 2 -382.719 1854.02 -422.187 0.164383 -0.80955 -0.212162 -0.522105 
3186 2 -373.1 1914.44 -414.121 0.669169 0.165723 0.478428 -0.543927 
3162 2 -375.088 1858.97 -426.186 0.50379 -0.70264 0.481242 -0.144563 
3163 2 -369.052 1864.97 -431.176 0.366606 0.117564 0.859254 0.33684 
3188 2 -363.961 1899.79 -404.763 0.364052 0.423307 -0.246385 0.792195 
3185 2 -376.709 1922.13 -419.289 -0.0678487 -0.270806 0.412794 -0.866984 
3164 2 -361.992 1870.57 -435.494 -0.0389452 0.687521 0.568109 0.45061 
3189 2 -358.994 1892.42 -400.184 -0.493938 -0.150203 -0.426396 0.742732 
3190 2 -356.644 1884.61 -394.472 -0.916473 -0.376664 -0.11835 0.0647681 
3191 2 -354.781 1877.21 -388.007 -0.648373 -0.314077 0.301971 -0.624325 
3192 2 -354.145 1870.3 -380.71 0.150975 0.0448338 0.329517 -0.930922 
3165 2 -356.787 1876.16 -441.888 -0.35189 0.856709 -0.250108 0.282257 
3166 2 -350.232 1880.01 -448.082 -0.559149 0.27785 -0.777313 -0.0770448 
3167 2 -341.767 1883.99 -450.953 -0.151018 -0.402203 -0.745473 -0.509604 
3168 2 -335.128 1890.65 -454.26 0.33787 -0.679262 -0.224416 -0.611624 
3169 2 -328.225 1897.79 -454.794 0.6918 -0.520134 0.382139 -0.323795 
3170 2 -319.165 1901.69 -454.663 0.694344 0.0182137 0.600604 0.396016 
3171 2 -310.246 1905.62 -452.395 0.0885086 0.427002 0.282626 0.854376 
3172 2 -301.968 1909.24 -448.349 -0.716364 0.462583 -0.125007 0.507162 
3193 2 -354.982 1864.98 -372.383 0.835706 0.148119 0.0447989 -0.526924 
3173 2 -296.211 1915.11 -442.987 -0.789023 0.176338 -0.508484 -0.296297 
3174 2 -289.66 1921.11 -438.266 -0.213244 -0.0540324 -0.238822 -0.945818 
3175 2 -287.723 1925.37 -429.554 0.707408 -0.0729417 -0.174464 -0.68104 
3194 2 -356.202 1862.39 -362.859 0.939893 0.0974054 0.0690271 0.31992 
3184 2 -378.925 1929.87 -424.929 -0.755869 -0.424961 0.12684 -0.481645 
3183 2 -381.228 1937.66 -430.513 -0.867136 -0.377571 -0.269452 0.181414 
3181 1 -342.018 1961.08 -418.86 0.409859 0.633341 -0.359015 0.549548 
3176 2 -288.202 1929.07 -420.376 0.868831 -0.430413 -0.207513 0.129676 
3182 3 -331.583 1927.69 -419.408 0.463258 0.629504 -0.293911 0.550212 
3177 2 -292.417 1936.47 -415.289 0.581802 -0.509584 0.239416 0.58695 
3178 2 -295.655 1944.84 -411.252 -0.0151276 -0.0839105 0.614985 0.783915 
3179 2 -296.944 1954.1 -408.178 -0.538107 0.576365 0.42765 0.441995 
3180 2 -296.067 1963.88 -408.295 -0.687111 0.703516 -0.160852 -0.0840817 
3504 2 -672.208 2220.98 -488.056 -0.0668826 0.802578 0.557655 -0.201038 
3503 2 -667.942 2222.28 -479.151 -0.207688 -0.0435957 0.975903 -0.0507833 
3474 2 -545.028 2172.54 -385.873 0.905082 0.383138 0.180292 -0.0390649 
3473 2 -548.106 2180.88 -390.335 0.494141 0.171253 0.520198 -0.675197 
3472 2 -550.318 2190.42 -392.248 -0.186806 -0.316757 0.549581 -0.750153 
3475 2 -542.942 2165.5 -379.124 0.556533 0.399333 -0.17913 0.706199 
3476 2 -539.873 2158.35 -372.998 -0.125522 0.0206937 -0.414789 0.900981 
3477 2 -537.836 2150.93 -366.919 -0.770008 -0.268381 -0.313945 0.48631 
3471 2 -552.354 2200.03 -393.549 -0.555428 -0.57791 0.327927 -0.499983 
3470 2 -550.163 2209.63 -391.926 -0.640324 -0.745451 -0.101597 0.154812 
3469 2 -552.86 2219.09 -391.018 -0.387524 -0.303185 -0.702236 0.514557 
3492 2 -629.48 2224.61 -379.927 0.16215 -0.220837 -0.955637 -0.10815 
3491 2 -625.811 2222.09 -371.084 0.0418786 0.615885 -0.765017 -0.183521 
3493 2 -631.762 2228.06 -388.975 0.222201 -0.835215 -0.463145 0.196313 
3468 2 -557.651 2227.84 -390.871 -0.0163568 0.339178 -0.627673 0.700512 
3494 2 -636.018 2229.72 -397.575 0.0160212 -0.969193 0.21161 0.125022 
3495 2 -638.568 2230.32 -407.251 -0.116574 -0.48621 0.865739 0.022511 
3496 2 -640.793 2229.61 -417.041 -0.18707 0.302531 0.93451 -0.0130795 
3490 2 -622.412 2220.45 -362.036 -0.0620664 0.97215 -0.114916 -0.194591 
3502 2 -664.935 2224.75 -470.019 -0.173756 -0.728092 0.662516 0.0276461 
3501 2 -662.495 2226.13 -460.543 -0.0332926 -0.979487 -0.143952 0.137018 
3498 2 -649.35 2229.95 -434.34 0.194038 0.832039 -0.48311 -0.191479 
3500 2 -658.795 2227.52 -451.428 0.127184 -0.597785 -0.770711 0.180228 
3499 2 -654.738 2228.97 -442.515 0.228997 0.191131 -0.954281 0.01941 
3585 2 -878.535 2347.01 -473.685 -0.0108983 0.826013 -0.551526 -0.115775 
3584 2 -876.314 2346.08 -464.131 -0.0844095 0.917674 0.381024 -0.074638 
3578 2 -877.318 2319.39 -412.999 -0.264133 0.868204 -0.417814 -0.043446 
3579 2 -876.445 2324.81 -421.138 -0.123118 0.125782 -0.949893 -0.258309 
3582 2 -872.195 2340.08 -445.93 0.0902391 -0.532395 0.810978 0.225226 
3581 2 -874.261 2334.37 -438.145 0.342593 -0.935402 0.0564114 -0.0668705 
3580 2 -874.859 2330.01 -429.38 0.173603 -0.698294 -0.665521 -0.198315 
3583 2 -873.304 2343.94 -454.951 -0.166799 0.371334 0.911586 0.057451 
3577 2 -877.637 2311.72 -406.88 -0.359766 0.837655 0.374475 0.169325 
3576 2 -876.524 2302.77 -402.812 -0.178632 0.333412 0.794208 0.475564 
3575 2 -874.637 2294.06 -398.438 0.137772 -0.42351 0.728896 0.51997 
3574 2 -873.303 2285.86 -393.03 0.454689 -0.869931 0.11258 0.154281 
3573 2 -870.218 2278.26 -387.603 0.453538 -0.597513 -0.615109 -0.242741 
3572 2 -865.864 2272.23 -380.767 0.0983111 0.126119 -0.922547 -0.351192 
3571 2 -863.539 2264.83 -374.58 -0.211873 0.716492 -0.549825 -0.373419 
3587 3 -877.604 2379.66 -433.374 0.892855 0.151751 0.411808 0.100972 
3570 2 -861.347 2256.94 -368.935 -0.481662 0.840289 0.246432 -0.0344601 
3569 2 -858.435 2248.67 -364.513 -0.375944 0.436523 0.741294 0.344379 
3505 1 -714.939 2240.79 -486.886 0.854701 -0.0806601 0.317822 0.402453 
3542 2 -810.972 2315.58 -390.272 0.837118 0.477124 -0.253248 0.0863258 
3541 2 -809.495 2324.92 -393.185 0.728007 0.525711 0.198911 -0.392516 
3543 2 -814.151 2307.04 -386.336 0.390857 0.234668 -0.51523 0.725741 
3540 2 -805.196 2332.47 -397.825 0.0127271 0.274817 0.443084 -0.853224 
3507 2 -748.796 2267.33 -467.503 -0.540235 -0.250053 -0.36261 -0.717031 
3544 2 -814.495 2297.64 -383.372 -0.157891 -0.158398 -0.52783 0.819376 
3539 2 -803.763 2340.6 -403.255 -0.580363 -0.261118 0.400861 -0.65902 
3538 2 -802.832 2347.81 -410.002 -0.897094 -0.423718 0.103909 -0.0699143 
3537 2 -799.534 2356.34 -414.06 -0.42355 -0.486676 -0.343706 0.682362 
3536 2 -795.99 2364.36 -418.865 0.195176 -0.0540661 -0.500666 0.841615 
3508 2 -741.973 2270.14 -461.126 0.22465 -0.375784 -0.196346 -0.877363 
3534 2 -786.245 2378.61 -427.783 0.66483 0.557737 0.0525302 -0.494138 
3535 2 -791.22 2370.45 -425.14 0.858233 0.281079 -0.344849 0.255947 
3509 2 -736.095 2275.15 -454.783 0.931009 -0.100216 0.10361 -0.335326 
3506 3 -700.017 2252.64 -457.546 0.85743 -0.0663793 0.283357 0.424402 
3510 2 -734.181 2276.76 -445.289 0.83469 0.192703 -0.0578577 0.512651 
3511 2 -733.248 2273.34 -436.099 0.0315679 -0.109627 -0.0742108 0.990696 
3512 2 -735.34 2272.02 -426.539 -0.781562 -0.157918 0.0918769 0.596474 
3615 2 -695.461 2308.61 -445.494 -0.0326264 -0.463171 -0.772722 -0.432792 
3616 2 -690.234 2314.75 -451.262 0.533601 -0.816121 0.0633631 -0.212608 
3617 2 -685.868 2322.72 -455.203 0.455596 -0.375831 0.772629 0.232867 
3614 3 -702.928 2359.39 -437.385 -0.313962 0.865632 0.369939 0.12351 
3613 1 -702.743 2338.26 -409.497 -0.328222 0.872391 0.340425 0.123757 
3533 3 -773.585 2364.25 -379.564 -0.420205 -0.145355 0.610999 -0.654965 
3518 2 -755.722 2278.71 -374.337 0.0864778 0.051888 0.349548 0.931475 
3513 2 -737.955 2270 -417.286 -0.956966 0.0543098 0.213771 -0.188597 
3516 2 -752.341 2271.04 -391.534 0.897529 -0.0600193 -0.1353 -0.415372 
3517 2 -754.776 2272.82 -382.175 0.803801 -0.265524 0.131637 0.515823 
3515 2 -748.78 2270.74 -400.696 0.390768 0.135458 -0.0676456 -0.907951 
3514 2 -742.708 2270.55 -408.567 -0.475611 0.271062 0.149546 -0.82338 
3618 2 -679.843 2329.25 -459.702 0.288194 0.397672 0.664523 0.563214 
3612 2 -713.466 2380.33 -391.013 -0.364646 -0.331772 -0.0329534 -0.869411 
3545 2 -815.199 2288.46 -379.677 -0.785957 -0.436545 -0.370788 0.232844 
3546 2 -811.554 2279.98 -375.975 -0.670499 -0.54494 0.132123 -0.485814 
3547 2 -807.304 2271.77 -372.571 -0.0229813 -0.30261 0.501119 -0.810419 
3548 2 -802.3 2264.22 -368.712 0.676141 0.20307 0.551639 -0.444174 
3619 2 -671.456 2334.35 -461.106 -0.370898 0.742714 0.0467859 0.555537 
3549 2 -796.571 2257.01 -364.882 0.769192 0.518734 0.216905 0.303661 
3611 2 -719.853 2382.09 -398.568 -0.875104 -0.208266 -0.276717 -0.338004 
3550 2 -790.25 2250.16 -361.706 0.288179 0.624387 -0.187215 0.701458 
3519 2 -754.264 2284.36 -366.424 -0.685207 0.359281 0.420979 0.473483 
3497 2 -643.708 2230.77 -426.249 -0.156912 0.854612 0.426929 -0.250496 
3620 2 -663.617 2340.3 -462.173 -0.695513 0.483801 -0.519075 0.11296 
3621 2 -655.232 2345.62 -461.982 -0.479402 -0.144298 -0.676209 -0.540457 
3622 2 -647.823 2352.2 -461.381 0.225333 -0.63505 -0.465918 -0.573462 
3623 2 -641.848 2359.96 -463.386 0.549538 -0.73004 0.332775 -0.233046 
3624 2 -633.946 2365.37 -465.825 0.520781 -0.103815 0.807074 0.258148 
3625 2 -626.013 2370.34 -469.066 0.188821 0.613481 0.492741 0.587532 
3463 2 -565.535 2275.64 -388.569 -0.63667 -0.750476 -0.163025 0.0697153 
3462 2 -564.205 2285.26 -390.242 -0.295237 -0.269223 -0.575887 0.713238 
3464 2 -564.386 2266.12 -390.601 -0.467278 -0.619639 0.378644 -0.504309 
3465 2 -561.313 2256.68 -390.267 0.0463747 0.109561 0.710107 -0.69397 
3467 2 -560.729 2237.12 -389.063 0.497205 0.764121 -0.242706 0.331664 
3466 2 -562.541 2246.92 -389.735 0.682386 0.516069 0.406755 -0.320269 
3461 2 -563.843 2295.12 -391.325 0.385571 0.292243 -0.597109 0.639836 
3460 2 -563.803 2305.02 -391.317 0.711364 0.701385 -0.0439144 0.00956712 
3459 2 -562.968 2314.46 -394.357 0.49249 0.344865 0.412896 -0.684133 
3458 2 -564.085 2323.24 -398.864 -0.211974 -0.154418 0.525156 -0.809588 
3457 2 -565.652 2331.1 -404.64 -0.777399 -0.418602 0.131905 -0.450582 
3456 2 -568.738 2338.39 -410.54 -0.787701 -0.309607 -0.348793 0.402509 
3455 2 -570.914 2344.58 -417.862 -0.0969414 0.116337 -0.3474 0.925409 
3454 2 -575.431 2351.41 -423.535 0.699708 0.45633 -0.0330259 0.548709 
3453 2 -582.873 2357.14 -426.641 0.824216 0.276406 0.479539 -0.119624 
3452 3 -558.226 2349.78 -381.613 0.355058 0.302266 -0.493755 0.734013 
3626 2 -617.272 2373.9 -472.084 -0.238984 0.856178 -0.238827 0.390907 
3627 2 -609.837 2376.17 -478.169 -0.382873 0.378237 -0.841371 -0.0494076 
3451 1 -565.323 2382.64 -391.136 0.314589 0.287778 -0.482359 0.765211 
3628 2 -603.49 2380.72 -484.402 -0.21727 -0.382003 -0.736713 -0.513927 
3442 2 -531.496 2318.37 -361.989 0.555383 -0.604542 -0.0292013 -0.570285 
3586 1 -902.968 2383.78 -457.018 0.927019 0.0512664 0.327786 0.174827 
3592 2 -874.498 2420.42 -413.734 0.72709 0.169688 0.661833 -0.0672547 
3591 2 -883.176 2419.02 -418.033 0.529966 -0.465459 0.252346 -0.662424 
3588 2 -911.922 2417.62 -425.242 -0.686355 0.364789 -0.474043 0.413677 
3589 2 -902.141 2417.8 -423.009 -0.707749 -0.193237 -0.625998 -0.264344 
3590 2 -892.507 2417.73 -421.238 -0.22024 -0.516151 -0.287681 -0.776094 