ITEM: TIMESTEP
100000000
ITEM: NUMBER OF ATOMS
4067
ITEM: BOX BOUNDS pp pp pp
-4.6310929470000001e+03 4.6704658980000004e+03
-4.6310929470000001e+03 4.6704658980000004e+03
-4.6310929470000001e+03 4.6704658980000004e+03
ITEM: ATOMS id type x y z c_q[1] c_q[2] c_q[3] c_q[4] 
3879 2 -827.07 2980.99 -678.147 -0.542347 0.495586 0.503141 -0.455085 
3880 2 -836.887 2982.01 -677.111 -0.025418 0.59535 -0.186783 -0.781041 
3881 2 -846.405 2984.69 -675.87 0.627568 0.258629 -0.584151 -0.445013 
3882 2 -856.043 2986.66 -674.469 0.765468 -0.24798 -0.564297 0.184753 
3878 2 -817.711 2979.12 -675.472 -0.561745 -0.0699571 0.80426 0.18087 
3877 2 -809.169 2975.15 -672.598 -0.121617 -0.645604 0.460102 0.597253 
3876 2 -801.216 2972.88 -667.123 0.248882 -0.815823 -0.273985 0.444324 
3932 2 -592.08 2981.33 -670.718 -0.397942 -0.61059 0.199236 -0.655078 
3933 2 -586.353 2973.4 -669.332 0.323517 -0.188994 0.682149 -0.627926 
3931 2 -595.482 2990.35 -672.99 -0.779836 -0.587254 -0.20293 0.0762106 
3936 2 -570.635 2949.29 -673.593 -0.0285989 0.441295 -0.684242 0.579874 
3935 2 -575.247 2957.04 -669.926 0.427694 0.812242 -0.139127 0.371463 
3934 2 -579.782 2965.95 -670.092 0.693387 0.529262 0.450172 -0.190896 
3883 1 -849.293 3033.25 -677.953 -0.293123 0.100296 -0.936966 0.161598 
3885 2 -833.368 3071.97 -699.762 0.109625 0.64647 0.610355 0.444439 
3884 3 -829.965 3020.27 -704.008 -0.298479 0.220211 -0.889791 0.265874 
3886 2 -826.118 3075.53 -705.673 -0.26392 0.829147 -0.0662349 0.488339 
3887 2 -818.035 3079.73 -709.444 -0.554137 0.568917 -0.571938 0.205312 
3888 2 -809.369 3082.8 -712.936 -0.719623 -0.178272 -0.660864 -0.11671 
3889 2 -799.557 3081.92 -712.779 -0.352114 -0.70465 -0.341187 -0.512909 
3890 2 -789.739 3080.8 -714.014 0.116498 -0.761393 0.257291 -0.583532 
3891 2 -780.304 3078.61 -716.256 0.551179 -0.313929 0.628705 -0.449867 
3892 2 -770.701 3076.51 -717.199 0.688607 0.346888 0.625962 0.116883 
3893 2 -761.208 3073.61 -717.912 0.466366 0.517714 0.193477 0.690682 
3894 2 -752.258 3070.61 -714.792 -0.194495 0.603255 -0.224588 0.740145 
3895 2 -742.605 3069.17 -713.193 -0.750976 0.0748062 -0.534009 0.381149 
3896 2 -733.936 3066.22 -709.507 -0.845405 -0.347572 -0.351146 -0.202929 
3897 2 -725.955 3062.08 -705.392 -0.383462 -0.353609 -0.0785891 -0.849554 
3898 2 -718.382 3060.49 -699.142 0.312159 -0.383112 0.131456 -0.859361 
3899 2 -710.771 3060.46 -692.762 0.908237 -0.12239 0.299942 -0.264881 
3900 2 -704.322 3060.3 -685.298 0.801133 0.203359 0.320745 0.462551 
3901 2 -697.33 3060.42 -678.294 0.179277 0.258976 0.0603529 0.947179 
3902 2 -692.899 3060.07 -669.548 -0.545302 0.339932 -0.296855 0.706378 
3927 2 -600.309 3028.71 -675.804 0.43047 0.477258 0.612124 -0.46068 
3926 2 -601.676 3037.8 -672.029 -0.0747858 -0.253402 0.788562 -0.555306 
3928 2 -599.592 3018.8 -676.891 0.763538 0.635371 -0.0266703 0.112262 
3929 2 -598.598 3009.1 -675.221 0.245775 0.373106 -0.470127 0.761162 
3930 2 -595.059 3000.18 -672.784 -0.289906 -0.381364 -0.61511 0.626223 
2792 2 -370.291 1086.81 -525.667 -0.603666 -0.345564 0.190663 0.692691 
2793 2 -377.613 1085.65 -519.236 -0.912031 0.0537865 0.406575 0.00188065 
2791 2 -363.191 1086.9 -532.399 0.157815 -0.366097 -0.0993768 0.911697 
2785 2 -325.004 1067.26 -570.555 -0.801752 0.20767 0.516604 0.217227 
2784 2 -319.273 1062.62 -577.023 -0.208728 -0.259697 0.262063 0.905711 
2780 2 -309.85 1034.41 -602.407 -0.0432459 0.0424168 -0.344267 -0.936915 
2781 2 -310.514 1041.29 -595.288 0.566529 -0.173847 -0.441801 -0.673524 
2782 2 -313.356 1048.55 -589.166 0.877192 -0.466139 -0.105291 0.0464997 
2783 2 -315.387 1056.49 -583.618 0.528736 -0.358983 0.153658 0.75363 
2777 3 -275.41 1063.87 -607.881 -0.563284 -0.094126 -0.13378 -0.80991 
2779 2 -309.973 1033.18 -612.22 -0.817796 0.0117669 -0.0147014 -0.575201 
2778 2 -310.621 1027.93 -620.685 -0.868889 0.283573 0.0804632 0.397674 
2776 1 -283.891 1060.79 -641.517 -0.507305 -0.127245 -0.173262 -0.834524 
2773 2 -247.158 1093.2 -622.451 -0.142257 0.216698 0.961055 0.0958085 
2774 2 -249.446 1095.17 -631.893 -0.0933284 0.767993 0.623208 -0.114406 
2775 2 -251.902 1095.42 -641.486 0.0129164 0.961969 -0.251256 -0.106395 
2772 2 -246.075 1089.53 -613.39 0.127666 -0.722895 0.655566 0.177079 
2771 2 -244.473 1085.85 -604.451 0.182977 -0.926771 -0.327963 -0.0074045 
2786 2 -332.532 1072.93 -567.705 -0.771425 0.35424 0.273673 -0.452239 
2787 2 -339.685 1075.68 -561.457 -0.226537 0.381997 -0.179467 -0.87781 
2788 2 -345.221 1080.63 -554.824 0.398524 0.194956 -0.344275 -0.827433 
2770 2 -241.678 1083 -595.369 0.135409 -0.278308 -0.94545 -0.101651 
2789 2 -351.276 1083.66 -547.704 0.888075 -0.016562 -0.337637 -0.311528 
2769 2 -237.375 1077.7 -588.153 -0.0747942 0.669236 -0.643918 -0.363179 
2768 2 -234.511 1070.86 -581.69 -0.362855 0.910965 0.195502 -0.0160734 
2767 2 -231.396 1065.65 -573.889 -0.234492 0.353289 0.885043 0.192093 
2766 2 -226.058 1062.03 -566.352 -0.122124 -0.580158 0.737892 0.322517 
2765 2 -218.95 1058.66 -560.38 0.223559 -0.890551 -0.0341432 0.394682 
2764 2 -214.315 1054.66 -552.511 0.279376 -0.625094 -0.728764 -0.0104983 
2790 2 -356.651 1086.13 -539.684 0.817461 -0.229028 -0.292185 0.440377 
2763 2 -209.958 1054.53 -543.6 0.157151 0.272263 -0.949021 -0.023141 
2762 2 -208.151 1052.89 -534.054 -0.044299 0.880111 -0.456787 -0.121609 
2761 2 -207.757 1050.96 -524.333 -0.0703285 0.850561 0.521152 -0.000367045 
2760 2 -207.838 1051.98 -514.526 -0.00384743 0.133891 0.990791 -0.0197904 
3397 1 -559.11 2076.18 -523.769 -0.80827 0.385149 -0.177428 -0.408509 
3399 2 -603.373 2092.04 -528.073 0.69777 -0.62985 -0.0559827 -0.336559 
3400 2 -599.169 2100.86 -526.166 0.755175 -0.50404 0.365884 0.204409 
3401 2 -594.905 2109.57 -524.765 0.189099 -0.00865188 0.576324 0.794995 
3402 2 -592.823 2118.54 -521.458 -0.516306 0.378871 0.448362 0.623584 
3403 2 -592.188 2127.98 -518.416 -0.890021 0.443009 -0.0719176 -0.0802036 
3439 2 -529.5 2265.33 -542.063 -0.514784 -0.177279 -0.277953 -0.791399 
3437 2 -546.442 2259.48 -550.122 -0.57106 0.495838 -0.334803 0.562088 
3438 2 -537.133 2261.5 -547.105 -0.870521 0.161057 -0.461462 -0.057505 
3436 2 -555.308 2257.34 -553.721 -0.0556718 0.590503 0.112889 0.797159 
3435 2 -565.08 2257.58 -555.364 0.624026 0.420103 0.433541 0.496132 
3434 2 -574.688 2256.39 -557.154 0.749977 -0.0546109 0.658533 -0.0297837 
3426 2 -649.236 2276.33 -571.699 0.236824 -0.404851 0.350665 -0.810582 
3427 2 -640.71 2272.86 -568.272 0.703216 -0.00689492 0.681137 -0.203697 
3429 2 -621.697 2267.53 -566.632 0.00200057 0.537685 -0.224522 0.8127 
3428 2 -631.167 2270.41 -567.512 0.55652 0.591625 0.410091 0.414837 
3430 2 -612.575 2264.67 -564.258 -0.586657 0.346871 -0.601386 0.416952 
3431 2 -602.951 2262.37 -563.129 -0.732161 -0.375435 -0.502348 -0.265772 
3432 2 -593.581 2259.56 -561.278 -0.251882 -0.56494 -0.09955 -0.779415 
3433 2 -584.047 2259.09 -558.529 0.404221 -0.50064 0.468888 -0.60507 
3440 2 -523.269 2267.32 -534.712 0.264231 -0.274564 0.0349218 -0.923892 
3424 1 -655.833 2290.81 -527.321 -0.0738562 0.41353 -0.566805 0.70871 
3425 3 -632.827 2264.64 -523.77 -0.0404448 0.406222 -0.548622 0.729631 
3441 2 -517.825 2268.07 -526.259 0.958185 -0.131382 0.182993 -0.176447 
3442 2 -513.8 2269.23 -517.264 0.716078 -0.0244239 0.282616 0.63778 
3683 2 -679.191 2522.95 -526.5 -0.490975 0.67344 0.334978 0.439559 
3682 2 -683.407 2514.08 -524.925 0.114842 0.199895 0.727291 0.646453 
3681 2 -687.421 2505.35 -522.182 0.562083 -0.555324 0.564815 0.238038 
3680 2 -693.154 2497.29 -522.48 0.617581 -0.685774 0.01197 -0.384921 
3679 2 -697.119 2488.27 -522.41 0.173494 -0.432438 -0.591997 -0.6576 
3678 2 -701.736 2479.69 -524.159 -0.609711 0.219112 -0.575949 -0.498523 
3677 2 -707.67 2471.9 -522.637 -0.63194 0.684344 -0.334359 0.143281 
3684 2 -676.637 2532.5 -527.329 -0.600963 0.699371 -0.352227 -0.160188 
3676 2 -712.223 2463.56 -519.966 -0.242909 0.615035 0.522078 0.538666 
3675 2 -715.731 2455.03 -516.529 0.260257 -0.10512 0.798674 0.532293 
3685 2 -674.622 2541.87 -529.645 -0.18677 0.193369 -0.830275 -0.48823 
3686 2 -673.277 2551.1 -533.343 0.359326 -0.504188 -0.668221 -0.412504 
3691 2 -680 2594.33 -555.489 -0.445133 0.67692 -0.495101 -0.313865 
3692 2 -679.848 2603.41 -559.436 -0.0994186 -0.00869807 -0.820481 -0.562895 
3693 2 -678.09 2612.7 -562.34 0.374652 -0.618357 -0.51032 -0.465665 
3810 2 -673.37 2675.72 -575.056 -0.76178 0.443041 0.231101 -0.412309 
3690 2 -679.849 2584.8 -552.744 -0.561583 0.755213 0.282556 0.185582 
3688 2 -675.997 2568.53 -541.924 0.164045 -0.576185 0.678183 0.425639 
3687 2 -674.467 2560.12 -537.246 0.517548 -0.844098 0.067907 0.122602 
3689 2 -678.141 2576.32 -547.661 -0.237584 0.261939 0.830555 0.430256 
3811 2 -680.694 2681.01 -570.824 -0.0972455 0.503789 -0.242308 -0.823424 
3812 2 -688.674 2685.61 -567.17 0.51891 0.219747 -0.589058 -0.579185 
3809 2 -667.46 2668.94 -578.983 -0.784537 0.297687 0.464088 0.283735 
3808 2 -661.616 2661.37 -581.94 -0.219344 -0.156537 0.598092 0.754765 
3694 1 -656.584 2634.05 -526.21 -0.721464 -0.546424 -0.306042 0.295378 
3807 2 -654.867 2656.29 -586.943 0.349168 -0.515668 0.105142 0.775315 
3806 2 -647.854 2651.03 -591.581 0.836726 -0.373977 -0.378341 0.12996 
3805 2 -645.688 2643.7 -597.671 0.470715 -0.114505 -0.428785 -0.762535 
3804 2 -642.65 2636.11 -603.528 -0.338254 0.300915 -0.30949 -0.836212 
3802 1 -596.533 2646.12 -604.338 0.528287 -0.541011 0.257499 0.601592 
3803 3 -610.744 2675.57 -592.013 0.495307 -0.468254 0.268736 0.680581 
3801 2 -559.739 2675.53 -601.359 0.378847 0.433016 0.792661 -0.201646 
3800 2 -564.072 2681.95 -595.38 0.0404823 -0.434675 0.788782 -0.432714 
3695 3 -653.244 2600.12 -518.557 -0.732367 -0.561855 -0.298621 0.242451 
3855 2 -825.239 2827.91 -631.996 0.432246 -0.455073 -0.190699 0.754789 
3854 2 -817.141 2826.6 -637.534 0.857609 -0.182528 -0.445305 0.181365 
3813 2 -696.908 2690.38 -564.548 0.790264 -0.323695 -0.520253 -0.00649786 
3814 2 -705.102 2694.79 -561.417 0.552936 -0.542245 -0.176031 0.607655 
3853 2 -811.215 2828.05 -645.409 0.837355 0.250491 -0.243118 -0.420694 
3852 2 -803.34 2831.25 -650.367 0.223662 0.518531 0.0128929 -0.825188 
3848 2 -767.91 2823.64 -654.947 0.433527 -0.746386 0.0145579 0.504728 
3851 2 -793.667 2832.63 -652.178 -0.469341 0.450735 0.522949 -0.550528 
3850 2 -784.751 2833.42 -656.373 -0.842772 -0.0876347 0.526322 0.0710017 
3849 2 -775.395 2830.17 -655.849 -0.218286 -0.509057 0.484017 0.677451 
3847 2 -762.678 2815.75 -651.744 0.567834 -0.535493 -0.606265 -0.152497 
3846 2 -756.63 2807.91 -652.402 0.288295 0.194905 -0.585734 -0.731993 
3845 2 -748.53 2802.1 -651.117 -0.303789 0.748419 -0.0540241 -0.587079 
3844 2 -743.619 2796.13 -644.889 -0.438293 0.698943 0.564873 0.0171999 
3821 2 -748.13 2744.25 -559.605 0.800561 -0.465582 -0.103183 0.362888 
3820 2 -742.909 2736.24 -561.858 0.707702 -0.268123 -0.542564 -0.364544 
3819 2 -739.238 2727.09 -560.746 0.107178 0.128715 -0.708862 -0.685172 
3816 2 -719.667 2706.64 -555.249 -0.634916 0.131738 0.7128 0.267288 
3815 2 -712.943 2699.76 -557.923 -0.103586 -0.379249 0.522315 0.756721 
3817 2 -727.834 2712.23 -554.997 -0.598091 0.707082 0.350128 -0.140473 
3818 2 -734.237 2719.15 -557.668 -0.230257 0.718854 -0.411253 -0.510981 
3839 2 -712.604 2788.47 -608.929 0.207773 0.627228 -0.719828 -0.212752 
3838 2 -707.764 2789.63 -600.362 0.0354811 0.968033 0.0225484 -0.247275 
3837 2 -702.054 2790 -592.366 -0.276074 0.537185 0.780114 -0.163211 
3836 2 -698.435 2791.1 -583.23 -0.208201 -0.417328 0.883322 0.0472449 
3840 2 -718.326 2786.9 -616.929 0.330774 -0.274319 -0.902509 -0.0285383 
3841 2 -723.757 2788.64 -625.003 0.301524 -0.860501 -0.354871 0.206613 
3842 2 -729.298 2790.61 -632.978 -0.10894 -0.809745 0.373199 0.439508 
3843 2 -736.778 2791.6 -639.371 -0.329287 -0.0981031 0.879737 0.328647 
3830 3 -735.482 2787.43 -557.079 -0.329488 -0.443216 -0.720855 0.418768 
3822 2 -752.939 2751.61 -554.989 0.11065 -0.579296 0.395149 0.704294 
3823 2 -760.143 2758.35 -554.461 -0.456838 0.0538217 0.624004 0.631682 
3824 2 -765.49 2766.5 -552.345 -0.676871 0.666156 0.306946 -0.0621752 
3825 2 -769.824 2775.16 -553.517 -0.350361 0.585087 -0.22883 -0.694663 
3835 2 -695.024 2792.8 -574.293 -0.0978405 -0.964632 0.22064 0.105978 
3834 2 -691.553 2797.16 -566.069 -0.037463 -0.761406 -0.578354 0.290454 
3827 2 -779.924 2791.88 -552.028 0.687499 -0.23857 -0.55915 -0.397217 
3826 2 -775.765 2783.03 -552.231 0.193162 0.0887305 -0.68474 -0.697098 
3828 2 -785.227 2799.5 -548.673 0.775775 -0.529888 -0.239528 0.244986 
3833 2 -691.216 2803.49 -558.59 0.0663511 0.192647 -0.911508 0.357264 
3832 2 -692.437 2811.35 -552.726 0.377655 0.810002 -0.340255 0.292403 
3759 2 -670.599 2745.06 -529.105 0.118762 0.782205 0.577287 0.201969 
3829 1 -742.448 2818.75 -543.025 -0.397321 -0.401568 -0.763214 0.313661 
3758 2 -677.101 2746.6 -521.751 0.367434 0.193169 0.909603 0.0173169 
3757 2 -683.819 2750.39 -515.476 0.301242 -0.440163 0.786296 -0.311847 
3831 2 -695.541 2819.27 -547.569 0.475257 0.76263 0.43781 -0.0291125 
3799 2 -568.517 2688.25 -589.163 -0.343165 -0.899816 0.0652857 -0.261356 
3760 2 -665.212 2746.29 -537.334 -0.297062 0.838279 -0.237245 0.390842 
3798 2 -572.022 2694.05 -581.865 -0.369383 -0.777126 -0.509337 0.0143752 
3761 2 -656.997 2749.22 -542.228 -0.57828 0.32927 -0.74644 0.00098435 
3797 2 -572.695 2700.16 -574.17 -0.141801 -0.236935 -0.915734 0.291867 
3762 2 -648.134 2751.66 -545.785 -0.325846 -0.381035 -0.719101 -0.481177 
3763 2 -639.894 2756.32 -548.426 0.194618 -0.752403 -0.302061 -0.552063 
3796 2 -574.653 2705.26 -565.947 0.100649 0.659847 -0.700438 0.252702 
3764 2 -632.775 2762.42 -551.362 0.574307 -0.781927 0.198473 -0.139177 
3765 2 -627.711 2770.5 -554.149 0.357538 -0.242009 0.793109 0.429625 
3766 2 -625.032 2778.78 -558.822 -0.0844896 0.57008 0.661206 0.480289 
3767 2 -621.141 2786.52 -563.894 -0.398808 0.885063 0.02702 0.238507 
3768 2 -617.619 2793.9 -569.501 -0.479981 0.55597 -0.674195 -0.0773053 
3769 2 -612.095 2800.03 -575.103 -0.0316553 -0.029333 -0.870669 -0.489973 
3770 2 -611.604 2808.32 -580.615 0.349954 -0.745019 -0.424814 -0.376846 
3771 2 -609.57 2816.8 -585.337 0.611325 -0.731548 0.286377 0.0954331 
3772 2 -607.365 2826.15 -588.029 0.497901 -0.253117 0.673106 0.484722 
3795 2 -577.736 2711.46 -558.981 0.30389 0.945581 -0.0128032 0.115598 
3794 2 -580.587 2718.73 -552.807 0.466152 0.670633 0.555909 -0.154658 
3793 2 -585.766 2725.62 -547.982 0.21268 -0.152912 0.877374 -0.401995 
3792 2 -588.096 2731.8 -540.641 -0.169451 -0.875577 0.375653 -0.252063 
3776 3 -600.165 2825.13 -541.05 0.746855 0.634516 0.0983083 -0.17301 
3773 2 -604.039 2835.44 -588.255 -0.164151 0.380675 0.631709 0.655045 
3791 2 -590.713 2737.64 -533.189 -0.317131 -0.866137 -0.38599 -0.0156691 
3790 2 -593.359 2741.77 -524.659 -0.216689 -0.274606 -0.920741 0.172837 
3789 2 -595.159 2747.61 -516.774 0.122871 0.434704 -0.819001 0.353798 
3856 1 -808.496 2848.85 -593.11 0.416624 0.320049 0.833132 0.172873 
3875 2 -795.033 2968.77 -660.622 0.393455 -0.306991 -0.857337 -0.126184 
3857 3 -781.707 2850.85 -615.555 0.37755 0.382786 0.816668 0.209723 
3874 2 -788.812 2965.67 -653.586 0.156091 0.546916 -0.736963 -0.365247 
3873 2 -784.21 2961.45 -646.003 -0.252736 0.929647 0.0720494 -0.258245 
3872 2 -777.21 2959.53 -639.13 -0.32449 0.66465 0.657357 -0.144317 
3871 2 -771.727 2952.17 -635.584 -0.261587 -0.0875428 0.829817 0.485089 
3870 2 -764.403 2945.64 -634.337 0.193071 -0.61569 0.334881 0.686662 
3869 2 -758.299 2938.11 -631.792 0.593462 -0.734185 -0.267834 0.192456 
3858 2 -775.63 2872.4 -568.709 0.189015 0.866217 0.412226 0.20979 
3859 2 -771.33 2871.03 -577.439 -0.109196 0.918628 -0.333083 0.182356 
3860 2 -765.774 2871.32 -585.634 -0.441341 0.394647 -0.805629 -0.0208224 
3868 2 -752.824 2931.26 -627.402 0.401267 -0.249593 -0.823589 -0.313671 
3867 2 -750.795 2923.48 -621.664 -0.0838611 0.347799 -0.824031 -0.43929 
3866 2 -751.973 2914.68 -617.094 -0.451821 0.86135 -0.223403 -0.0634503 
3861 2 -759.17 2875.03 -591.878 -0.0908163 -0.374437 -0.806399 -0.448631 
3862 2 -754.214 2881.17 -597.72 0.423381 -0.858952 -0.229843 -0.17356 
3863 2 -754.165 2889.56 -602.814 0.519834 -0.607974 0.519621 0.300224 
3864 2 -751.629 2898.68 -605.965 0.114679 -0.0546018 0.8745 0.468099 
3865 2 -750.067 2906.82 -611.31 -0.373905 0.71299 0.557044 0.203817 
3774 2 -600.426 2844.71 -589.319 -0.613921 0.742621 0.0437309 0.264012 
3775 1 -595.226 2859.66 -544.837 0.729728 0.652284 0.106278 -0.175296 
3937 1 -539.921 2933.56 -641.474 -0.14151 0.0671792 0.574459 0.803405 
3938 3 -542.915 2967.59 -633.733 -0.208252 0.0902403 0.607997 0.760807 
3944 2 -532.531 2982.29 -592.266 0.757452 -0.535732 -0.056201 0.368916 
3943 2 -528.516 2974 -595.896 0.662059 -0.274976 -0.51719 -0.467525 
3942 2 -524.679 2964.95 -596.729 -0.157235 0.356985 -0.587792 -0.70876 
3941 2 -520.633 2955.97 -598.423 -0.694587 0.66284 -0.0609148 -0.272914 
3940 2 -517.126 2947.28 -601.758 -0.730919 0.397075 0.4461 0.330277 
3945 2 -536.986 2990.56 -588.852 0.308035 -0.312462 0.527049 0.727806 
3939 2 -512.676 2938.48 -603.251 -0.229014 -0.106872 0.64166 0.724157 
3903 2 -685.043 3059.77 -663.461 -0.913304 0.219619 -0.342932 0.00633057 
3904 2 -678.61 3062.9 -656.541 -0.625148 -0.137522 -0.227122 -0.733957 
3905 2 -673.484 3063.97 -648.273 0.143153 -0.140599 -0.0198439 -0.979462 
3906 2 -670.367 3064.13 -638.858 0.793536 -0.0236221 0.0496464 -0.606034 
3907 2 -669.458 3065.18 -628.956 0.917497 -0.030472 0.0920189 0.385751 
3908 2 -667.977 3066.17 -619.298 0.200987 0.137591 0.0233933 0.969601 
3910 1 -668.433 3113.42 -616.743 -0.0599059 0.17169 -0.953592 0.239993 
3925 2 -603.473 3045.74 -666.286 -0.381754 -0.802282 0.378996 -0.258786 
3909 2 -665.253 3066.81 -609.752 -0.742106 0.111106 -0.125035 0.649077 
3924 2 -604.027 3054.81 -662.526 -0.492386 -0.721353 -0.406723 0.267922 
3923 2 -608.791 3063.38 -661.723 -0.342507 0.03535 -0.724795 0.59675 
3922 2 -612.833 3072.41 -660.216 0.410838 0.604166 -0.439131 0.522838 
3921 2 -615.895 3081.56 -658.46 0.627564 0.710668 0.309464 -0.0731192 
3920 2 -621.39 3089.07 -655.07 0.353332 0.0974168 0.833882 -0.412683 
3946 2 -538.505 2999.99 -586.346 -0.31458 0.131892 0.291884 0.893559 
3919 2 -626.244 3097.45 -652.79 -0.213722 -0.62879 0.496346 -0.559095 
3916 2 -643.526 3120.25 -646.065 -0.267697 0.196126 -0.698364 0.634161 
3917 2 -637.915 3112.15 -646.246 -0.501431 -0.418049 -0.719468 0.236997 
3918 2 -631.727 3104.8 -649.141 -0.467632 -0.839699 -0.0932848 -0.259853 
3947 2 -538.042 3006.47 -578.825 -0.841883 0.410965 0.214813 0.276035 
3915 2 -648.328 3128.77 -646.334 0.387188 0.602539 -0.329774 0.615046 
3911 3 -663.562 3100.75 -648.913 -0.00124722 0.174562 -0.970872 0.164114 
3954 2 -558.394 3046.66 -527.216 -0.783069 0.337598 0.428931 0.298075 
3955 2 -563.367 3054.21 -523.041 -0.770778 0.502793 0.148406 -0.362045 
3956 2 -568.8 3061.7 -519.353 -0.150186 0.436213 -0.291956 -0.837809 
3953 2 -554.249 3040.42 -533.748 -0.371712 -0.00469743 0.429843 0.822826 
3952 2 -549.68 3035.19 -540.766 0.404303 -0.353602 0.185594 0.822836 
3951 2 -546.888 3030.44 -549.025 0.930745 -0.303104 -0.166863 0.118316 
3950 2 -545.822 3026.06 -557.823 0.712079 -0.162179 -0.273558 -0.625945 
3949 2 -542.74 3019.73 -564.849 0.0081636 0.126469 -0.311059 -0.941903 
3948 2 -539.976 3013.51 -572.222 -0.70964 0.39041 -0.115377 -0.575047 
3970 2 -529.304 3132.1 -520.102 0.57745 0.614781 0.491908 -0.215923 
3914 2 -652.753 3137.66 -646.964 0.723379 0.648414 0.213633 0.103167 
3969 2 -533.536 3140.78 -517.532 0.204743 -0.103093 0.764652 -0.602295 
3972 2 -522.772 3113.75 -523.36 0.0763739 0.262234 -0.624305 0.731877 
3971 2 -526.688 3122.76 -522.159 0.597269 0.688186 -0.169417 0.375457 
3973 2 -520.672 3104.03 -522.892 -0.677707 -0.148025 -0.574067 0.435028 
3974 2 -514.121 3097.15 -520.202 -0.730336 -0.573964 -0.246156 -0.276734 
3957 2 -574.94 3068.12 -515.082 0.547259 0.151156 -0.536676 -0.624211 
3975 2 -507.579 3090.44 -517.115 -0.305897 -0.426891 0.23855 -0.816875 
3913 2 -658.391 3145.94 -646.362 0.500495 0.0784593 0.688398 -0.519092 
3912 2 -665.492 3152.23 -643.496 0.0739705 -0.568603 0.597003 -0.561076 
3968 2 -538.66 3148.71 -514.398 -0.215864 -0.657105 0.495267 -0.525667 
2211 2 -182.47 185.643 -381.339 0.613144 -0.349937 -0.310025 -0.636776 
2212 2 -181.74 193.789 -375.745 0.810876 -0.582037 0.0609287 0.000802973 
2213 2 -179.994 203.096 -372.64 0.548023 -0.309645 0.403719 0.663929 
2214 2 -180.41 211.361 -367.035 -0.368011 -0.0963611 0.542654 0.748872 
2215 2 -186.082 218.051 -362.565 -0.879599 0.271151 0.172348 0.350827 
2235 2 -77.7817 328.952 -371.419 -0.195352 0.854773 0.297092 0.37807 
2234 2 -83.0178 323.393 -365.185 0.225468 0.198428 0.876418 0.376408 
2794 2 -384.403 1085.97 -512.076 -0.605972 0.464597 0.146912 -0.628779 
2799 2 -426.412 1086.75 -489.245 -0.747361 -0.383144 0.467732 0.275462 
2798 2 -417.898 1088.32 -494.176 -0.211681 -0.546079 0.0437563 0.809366 
2795 2 -391.921 1089.96 -507.228 0.182872 0.513827 -0.135855 -0.827093 
2796 2 -400.593 1091.53 -502.854 0.849584 0.227828 -0.415865 -0.230991 
2797 2 -408.67 1089.59 -497.316 0.521404 -0.385719 -0.432569 0.626293 
2802 2 -452.784 1076.31 -484.142 0.441282 0.571897 -0.137284 -0.677759 
2801 2 -444.128 1079.45 -487.667 -0.164551 0.460584 0.333408 -0.805993 
2800 2 -435.55 1084.17 -486.474 -0.620314 0.00730244 0.713799 -0.325035 
2804 3 -418.561 1092.46 -448.713 -0.392622 -0.320292 -0.698487 -0.505348 
2803 1 -450.166 1082.91 -437.441 -0.424881 -0.343265 -0.684872 -0.482282 
2807 2 -409.09 1094.88 -403.951 -0.0808245 -0.866709 0.102914 -0.481344 
2806 2 -418.58 1094.06 -401.769 -0.526356 -0.40292 -0.671181 -0.331846 
2805 2 -427.6 1094.39 -397.59 -0.496168 0.311203 -0.801217 0.122565 
2811 2 -377.782 1092.97 -424.348 -0.457537 0.6151 -0.451756 0.456321 
2808 2 -401.077 1091.69 -408.843 0.225398 -0.389976 0.859793 -0.240563 
2809 2 -395.529 1089.1 -416.67 0.428484 0.358104 0.782088 0.276589 
2810 2 -387.069 1090.7 -421.569 0.0986685 0.734275 0.325176 0.587678 
2812 2 -368.432 1095.09 -426.12 -0.716511 0.0223787 -0.695943 -0.0421303 
2813 2 -358.525 1096.34 -426.064 -0.472872 -0.367514 -0.494452 -0.629954 
2814 2 -349.181 1098.73 -424.354 0.288171 -0.686854 0.0572598 -0.664764 
2815 2 -339.592 1101 -423.89 0.709185 -0.364099 0.54204 -0.265857 
2816 2 -330.178 1103.06 -421.899 0.671807 0.487784 0.488112 0.269235 
2826 2 -237.23 1085.58 -438.368 -0.748152 -0.190932 -0.605637 -0.192399 
2827 2 -227.749 1085.11 -435.253 -0.356245 -0.546376 -0.337187 -0.678872 
2825 2 -247.165 1085.32 -439 -0.596458 0.41242 -0.574874 0.379035 
2819 2 -303.393 1090.79 -422.871 -0.557582 -0.264162 -0.785964 -0.0397638 
2818 2 -312.171 1095.26 -421.125 -0.423491 0.328467 -0.673069 0.50965 
2817 2 -321.149 1099.22 -421.879 0.193609 0.667277 -0.0627522 0.716463 
2831 3 -244.52 1122.01 -415.528 0.541611 0.340319 -0.758626 -0.123806 
2824 2 -256.782 1085.57 -436.549 -0.00242842 0.80224 0.0243682 0.596499 
2823 2 -266.324 1085.39 -433.852 0.45437 0.506692 0.603725 0.415124 
2820 2 -294.251 1088.69 -425.723 -0.275103 -0.786937 -0.189129 -0.518921 
2821 2 -285.429 1086.06 -429.334 0.20476 -0.711899 0.336373 -0.581487 
2822 2 -275.775 1084.91 -431.073 0.5556 -0.303977 0.759833 -0.146838 
2835 2 -263.932 1155.04 -370.387 -0.177025 -0.44754 -0.0694987 0.873807 
2828 2 -218.209 1086.41 -432.567 0.261894 -0.62525 0.0982211 -0.728578 
2834 2 -255.733 1157.44 -375.498 0.565033 -0.314944 -0.443141 0.620623 
2833 2 -246.826 1158.54 -379.744 0.816095 0.120974 -0.553688 -0.113064 
2832 2 -236.817 1159.07 -380.023 0.391286 0.60181 -0.339998 -0.607553 
2830 1 -213.125 1123.78 -400.508 0.580226 0.352874 -0.687478 -0.257278 
2836 2 -271.303 1152.79 -364.059 -0.830318 -0.225205 0.302183 0.410537 
2829 2 -208.61 1087.91 -430.799 0.737267 -0.331159 0.51858 -0.27901 
2759 2 -206.04 1050.19 -504.984 0.0505042 -0.756815 0.640957 0.117705 
2758 2 -201.329 1049.32 -496.197 0.114985 -0.902865 -0.320607 0.262343 
2750 3 -152.523 1045.49 -443.044 0.551683 -0.281532 -0.551903 0.558381 
2751 2 -137.208 1057.49 -490.965 0.313771 -0.492135 -0.250532 0.772389 
2752 2 -146.623 1057.77 -487.267 -0.447149 -0.588738 0.314322 0.595522 
2757 2 -194.256 1050.31 -489.443 0.376786 -0.307354 -0.863699 0.132623 
2748 2 -122.669 1049.83 -400.584 -0.658471 -0.256727 -0.647236 -0.285644 
2749 1 -119.659 1056.66 -447.215 0.547102 -0.22092 -0.60851 0.53065 
2753 2 -156.249 1056.31 -486.031 -0.776117 0.0413652 0.62784 -0.0418189 
2754 2 -165.884 1055.87 -483.909 -0.38434 0.500897 0.491413 -0.599916 
2755 2 -175.448 1053.64 -484.371 0.242948 0.767134 -0.139515 -0.577076 
2747 2 -132.716 1050 -400.943 -0.644293 0.274073 -0.654529 0.285241 
2746 2 -142.395 1048.64 -401.989 -0.332018 0.668912 -0.183567 0.639236 
2745 2 -150.505 1049.56 -396.461 0.215101 0.777779 0.3891 0.444289 
2744 2 -158.104 1051.64 -390.521 0.388266 0.204223 0.89847 -0.0171189 
2743 2 -165.314 1052.79 -383.803 0.305642 -0.595408 0.673965 -0.312799 
2742 2 -173.091 1054.26 -377.828 -0.129871 -0.893178 -0.136169 -0.408442 
2756 2 -184.836 1052.52 -487.105 0.604738 0.366009 -0.690164 -0.154928 
2741 2 -178.335 1056.04 -369.513 -0.317771 -0.479972 -0.816572 -0.0431159 
2740 2 -181.569 1061.42 -361.838 -0.00849798 0.487846 -0.811087 0.3226 
2999 2 -357.173 1465.19 -427.565 0.105031 -0.314387 0.464627 -0.821128 
3014 2 -245.05 1407.86 -386.388 0.832254 -0.0613916 0.406739 -0.371682 
3013 2 -252.47 1410.2 -392.443 0.240459 -0.354396 0.270958 -0.86207 
3012 2 -260.486 1411.14 -398.086 -0.475555 -0.413671 -0.209029 -0.747684 
3011 2 -269.293 1409.98 -402.562 -0.804357 -0.0290075 -0.526126 -0.274518 
3010 2 -278.915 1408.4 -403.474 -0.652415 0.417029 -0.540666 0.32882 
3009 2 -286.991 1407.97 -409.126 -0.144582 0.476755 -0.0935689 0.862001 
3008 2 -295.762 1409.68 -413.462 0.63994 0.42744 0.27774 0.575007 
3007 2 -303.995 1411.06 -418.949 0.86956 0.0577758 0.490295 -0.011798 
3006 2 -311.32 1416.02 -423.409 0.264238 -0.273208 0.456939 -0.804203 
3005 2 -318.683 1422.31 -425.066 -0.443907 -0.688304 0.0209339 -0.573364 
3004 2 -323.901 1430.06 -428.53 -0.804133 -0.442561 -0.382468 0.105961 
3003 2 -330.292 1437.61 -426.865 -0.388385 -0.0444841 -0.764023 0.513271 
3002 2 -337.36 1443.81 -423.535 -0.0552916 0.561626 -0.592234 0.575133 
3001 2 -344.52 1450.61 -423.523 0.522522 0.740063 0.107917 0.409429 
3000 2 -351.037 1458 -424.547 0.686955 0.24237 0.615241 -0.301377 
3015 2 -238.046 1405.05 -379.886 0.868486 0.12837 0.330364 0.346572 
3016 2 -231.333 1405.21 -372.694 0.336312 0.364484 -0.030063 0.867837 
3017 2 -224.574 1402.89 -365.788 -0.478007 0.2679 -0.261363 0.794625 
3032 2 -344.941 1467.54 -363.305 0.30932 0.567471 -0.451451 -0.615216 
3031 2 -335.308 1464.89 -362.538 -0.24838 0.728603 0.200128 -0.60613 
3055 2 -413.373 1595.1 -390.622 -0.561581 -0.330877 -0.746129 0.13579 
3056 2 -406.54 1588.99 -393.985 -0.546208 -0.705373 -0.0835478 -0.443989 
3057 2 -399.01 1582.62 -394.594 0.0629334 -0.52834 0.297878 -0.792569 
2994 2 -369.292 1508.23 -446.741 0.879069 0.40772 0.00271957 0.24697 
2995 2 -367.887 1500.37 -440.755 0.302001 0.345613 -0.402348 0.792125 
3058 2 -390.285 1579.37 -391.272 0.746432 -0.339511 0.469848 -0.326823 
3059 2 -381.153 1581.19 -387.838 0.79315 0.00361363 0.474948 0.381213 
3054 2 -419.055 1602.96 -388.137 -0.123917 0.275871 -0.733527 0.608669 
3060 2 -373.801 1584.97 -382.397 0.0743121 0.490936 0.387619 0.776667 
2996 2 -365.464 1491.94 -436.215 -0.420051 -0.210489 -0.485736 0.737097 
3061 2 -365.288 1589.82 -380.465 -0.468821 0.65237 -0.303507 0.512351 
2997 2 -364.192 1483.28 -431.514 -0.753926 -0.539791 -0.341684 0.153212 
3053 2 -426.209 1608.22 -383.838 0.183777 0.810553 -0.240256 0.501505 
3051 2 -438.702 1614.81 -369.863 0.319245 0.0414986 0.936451 -0.139353 
3052 2 -432.775 1612.06 -377.446 0.39583 0.708418 0.566194 0.144523 
3047 3 -438.507 1569.94 -362.575 -0.301919 0.0967011 -0.944873 0.0819087 
3034 2 -362.209 1475.81 -362.58 0.694332 -0.559421 -0.356126 0.279509 
2998 2 -361.529 1473.79 -429.717 -0.535679 -0.627283 0.181613 -0.535333 
3038 2 -397.595 1492.51 -363.086 -0.435774 0.64436 0.0501153 -0.62641 
3037 2 -388.264 1489.12 -364.057 -0.70625 0.401484 0.553448 -0.183622 
3036 2 -378.997 1485.8 -362.887 -0.507209 -0.242723 0.708815 0.425918 
3035 2 -369.93 1481.89 -361.565 0.0838912 -0.741631 0.187111 0.638699 
3033 2 -354.489 1469.83 -364.035 0.725866 -0.174237 -0.604284 -0.27857 
2992 1 -327.27 1526.31 -435.094 -0.511591 -0.447388 0.413924 -0.605629 
2993 3 -324.769 1492.71 -425.401 -0.51923 -0.432922 0.426457 -0.600927 
2986 2 -297.162 1500.27 -377.571 0.141005 0.106266 0.973026 0.148477 
2987 2 -293.07 1502.39 -386.492 -0.0892796 0.762094 0.589723 0.25193 
2988 2 -290.271 1507.06 -394.833 -0.267924 0.895039 -0.35158 0.0592833 
2991 2 -283.327 1523.46 -418.311 0.393396 -0.91614 0.020553 -0.0741866 
2990 2 -284.895 1517.04 -410.993 0.178142 -0.578706 -0.707138 -0.36513 
2989 2 -287.536 1511.18 -403.367 -0.22201 0.221945 -0.90258 -0.294621 
3062 2 -356.132 1593.6 -381.596 -0.591669 0.396486 -0.698715 0.0672613 
3063 2 -347.242 1596.95 -384.308 -0.368296 -0.205865 -0.807249 -0.412706 
3064 2 -339.395 1601.7 -388.149 0.276589 -0.758679 -0.35954 -0.467585 
2985 2 -301.655 1495.18 -370.407 0.389152 -0.767804 0.505545 -0.0588449 
3065 2 -333.819 1608.67 -392.288 0.430667 -0.771795 0.467594 0.0146576 
3066 2 -328.656 1615.23 -397.816 0.241639 -0.167481 0.895777 0.333383 
2984 2 -308.622 1492.27 -364.133 -0.0126535 -0.869166 -0.27143 -0.413178 
3072 2 -313.667 1618.68 -447.809 -0.0824624 -0.774061 0.566332 -0.270737 
3127 1 -451.543 1736.39 -510.189 0.743927 0.103096 0.2142 -0.62455 
3129 2 -406.724 1749.13 -502.708 -0.958958 0.0700637 0.10362 0.254466 
3124 2 -487.297 1720.06 -482.402 -0.159972 -0.340601 0.901704 -0.21291 
3125 2 -488.11 1715.87 -491.281 0.0117067 0.615261 0.747473 -0.250201 
3126 2 -490.648 1712.05 -500.09 0.208125 0.963715 -0.118314 -0.118061 
3123 2 -486.952 1723.69 -473.349 -0.216469 -0.895173 0.379196 -0.0895354 
3117 2 -468.359 1727.11 -418.748 -0.215615 -0.320428 0.893508 0.229084 
3116 2 -462.972 1726.07 -410.491 0.0229211 -0.938362 0.238564 0.249075 