ITEM: TIMESTEP
100000000
ITEM: NUMBER OF ATOMS
4067
ITEM: BOX BOUNDS pp pp pp
-4.6310929470000001e+03 4.6704658980000004e+03
-4.6310929470000001e+03 4.6704658980000004e+03
-4.6310929470000001e+03 4.6704658980000004e+03
ITEM: ATOMS id type x y z c_q[1] c_q[2] c_q[3] c_q[4] 
3180 2 -418.487 1722.34 -515.801 0.00833435 0.771093 0.581852 -0.258447 
3181 1 -433.9 1677.71 -514.997 0.284681 0.0638487 0.113083 0.949785 
3480 2 -544.814 2320.57 -516.311 0.836914 -0.361317 -0.0968239 -0.399562 
3557 2 -515.147 2473.57 -521.651 -0.371098 -0.588009 -0.678951 0.235705 
3556 2 -515.026 2481.18 -515.202 0.0112134 0.0189672 -0.926642 0.375298 
3558 2 -512.92 2466.08 -527.687 -0.409137 -0.905619 -0.0478147 -0.100872 
3559 1 -476.867 2482.84 -553.133 -0.734186 0.182265 0.0962158 0.64691 
3561 2 -436.25 2506.34 -558.342 0.998639 0.00424121 0.0491819 0.0168115 
3562 2 -435.27 2505.82 -548.588 0.533889 0.107784 0.0707036 0.835671 
3563 2 -432.79 2506.9 -539.144 -0.282947 0.107374 -0.0527719 0.951644 
3564 2 -430.423 2506.71 -529.503 -0.887465 -0.0856099 -0.169289 0.420023 
3560 3 -472.357 2497.85 -521.969 -0.740579 0.21635 0.0538297 0.633907 
3565 2 -427.376 2503.81 -520.617 -0.919627 -0.165859 0.0225361 -0.355343 
3655 2 -520.753 2645.17 -517.415 0.783102 0.235103 -0.526897 0.232073 
3656 2 -528.27 2639.62 -514.298 0.199371 -0.426711 -0.645071 0.601708 
3666 2 -576.022 2555.91 -520.644 -0.402545 -0.192368 0.693836 -0.565281 
3665 2 -573.16 2565.39 -520.691 -0.678799 -0.662789 0.300975 -0.0967282 
3664 2 -568.792 2574.15 -520.202 -0.469629 -0.638974 -0.323874 0.51601 
3663 2 -564.006 2582.49 -518.988 0.20606 -0.221087 -0.727383 0.616096 
3662 2 -561.189 2591.98 -518.23 0.566193 0.425755 -0.562062 0.4269 
3657 2 -535.628 2633.23 -515.269 -0.394975 -0.7221 -0.181923 0.538023 
3658 2 -542.624 2626.2 -515.877 -0.767019 -0.466422 0.43381 -0.0770822 
3661 2 -558.027 2601.16 -516.123 0.59365 0.784477 -0.0160109 -0.178658 
3659 2 -548.878 2618.77 -514.291 -0.32085 0.00636247 0.744255 -0.585747 
3660 2 -553.602 2610 -515.156 0.252702 0.593412 0.460016 -0.610238 
3654 2 -513.198 2649.43 -522.137 0.612688 0.494961 -0.168159 -0.592747 
3615 2 -482.812 2559.74 -517.385 -0.702389 0.108816 -0.0104339 0.703349 
3613 1 -442.145 2583.41 -521.08 0.610808 -0.133681 -0.0217358 0.780109 
3652 2 -506.213 2667.6 -526.57 -0.428009 -0.101685 0.627866 -0.642069 
3651 2 -501.385 2675.54 -529.904 -0.799956 -0.52414 0.284022 0.0684003 
3650 2 -497.144 2684.37 -529.678 -0.314184 -0.538478 -0.463409 0.629748 
3653 2 -509.827 2658.5 -524.528 0.268536 0.3781 0.512635 -0.722589 
3885 2 -631.171 2693.27 -580.488 0.900132 -0.433002 -0.0473314 -0.00564306 
3923 2 -639.832 2817.7 -547.271 0.663321 0.320543 -0.172029 0.653961 
3924 2 -638.865 2811.35 -539.627 -0.0113269 -0.0689829 -0.259604 0.963182 
3922 2 -641.385 2824.1 -554.647 0.909574 0.357139 0.152811 -0.147566 
3925 2 -639.621 2805.93 -531.51 -0.76228 -0.130672 -0.0781327 0.629087 
3887 2 -633.019 2710.02 -570.09 0.0511217 0.0335381 0.548627 0.833828 
3886 2 -632.749 2701.48 -575.249 0.624578 -0.411006 0.328973 0.576847 
3888 2 -632.466 2719.26 -566.499 -0.659479 0.391184 0.301739 0.566584 
3890 2 -627.96 2736.44 -558.874 -0.558775 0.187357 -0.583178 -0.559081 
3889 2 -631.782 2727.85 -561.702 -0.805925 0.542226 -0.237574 0.00581986 
3883 1 -586.108 2694.95 -594.463 -0.717102 0.215633 -0.311406 -0.585058 
3891 2 -624.384 2745.39 -556.549 0.0488609 -0.485956 -0.444577 -0.750873 
3892 2 -618.036 2752.77 -554.858 0.610637 -0.737384 -0.0661429 -0.281091 
3893 2 -614.066 2761.71 -555.369 0.703044 -0.39262 0.493745 0.328321 
3884 3 -587.443 2718.76 -568.938 -0.733012 0.259246 -0.281425 -0.562392 
3881 2 -542.679 2716.2 -583.981 -0.288501 -0.617425 -0.701351 0.208949 
3882 2 -541.455 2709.86 -591.513 -0.34702 -0.935342 -0.0153327 -0.0669099 
3880 2 -543.145 2721.05 -575.354 0.0379256 0.0635492 -0.959284 0.272577 
3879 2 -545.649 2728.84 -569.855 0.283823 0.748668 -0.493101 0.340283 
3894 2 -609.306 2770.17 -553.414 0.311234 0.120619 0.371375 0.866409 
3895 2 -605.268 2775.74 -546.343 -0.508243 0.349982 0.380839 0.688595 
3896 2 -603.765 2784.78 -542.446 -0.605156 0.756739 -0.227101 0.0977662 
3878 2 -547.909 2734.5 -562.054 0.334658 0.899828 0.279657 -0.0102724 
3877 2 -550.189 2740.12 -554.297 0.176271 0.29638 0.917554 -0.197943 
3897 2 -598.87 2793.36 -543.689 -0.407069 0.424106 -0.560364 -0.583456 
3898 2 -599.039 2803.24 -544.18 0.0892334 -0.27886 -0.741521 -0.603673 
3900 2 -594.83 2822.31 -543.5 0.716895 -0.522 0.356365 0.294249 
3899 2 -597.512 2812.9 -545.382 0.6664 -0.58386 -0.176022 -0.428993 
3876 2 -551.35 2745.04 -545.821 -0.132044 -0.513137 0.774249 -0.346112 
3875 2 -548.882 2750.75 -538.055 -0.304903 -0.904418 0.298397 0.00462046 
3874 2 -546.406 2756.36 -530.452 -0.197544 -0.802705 -0.462352 0.320735 
3873 2 -544.955 2762.09 -522.562 0.00151604 -0.22028 -0.904376 0.365485 
3901 2 -592.537 2831.58 -541.121 0.141616 -0.0322575 0.702964 0.696237 
3921 2 -641.329 2830.4 -562.36 0.35581 0.150209 0.323083 -0.863976 
3926 2 -639.987 2802.47 -522.196 -0.960083 -0.0484607 0.173014 -0.214381 
3920 2 -643.171 2838.07 -568.383 -0.23303 -0.196575 0.38653 -0.870431 
3872 2 -538.996 2766.5 -515.886 0.40688 0.443405 -0.798469 -0.0169822 
3649 2 -491.497 2692.58 -528.367 0.397767 0.0947152 -0.750252 0.519551 
3648 2 -483.579 2698.4 -527.266 0.659524 0.573957 -0.480559 -0.0682994 
3647 2 -476.119 2703.71 -523.524 0.164221 0.818374 0.246251 -0.4926 
3646 2 -469.073 2709.69 -520.116 -0.215833 0.40014 0.684808 -0.56951 
3645 2 -461.955 2715.77 -517.133 -0.583133 -0.211971 0.751557 -0.224022 
4020 2 -885.649 2918.77 -570.487 -0.602804 0.421246 -0.526862 -0.426141 
4021 2 -883.029 2928.22 -568.918 -0.26106 -0.194639 -0.562959 -0.759632 
4022 2 -877.059 2935.56 -565.918 0.578431 -0.541473 -0.174522 -0.584608 
4023 2 -872.566 2943.54 -562.057 0.831104 -0.422762 0.359856 0.0322922 
4024 2 -866.361 2950.5 -558.717 0.530238 -0.0473556 0.564591 0.630747 
4018 1 -874.568 2922.84 -616.125 -0.430877 -0.0331208 -0.501837 -0.749271 
4019 3 -854.167 2946.92 -600.852 -0.427903 -0.0487222 -0.49184 -0.756716 
4025 2 -861.394 2958.16 -555.035 -0.215142 0.182753 0.468729 0.837023 
4017 2 -850.278 2940.99 -652.247 0.0894427 0.837806 0.203151 -0.49881 
4026 2 -860.354 2966.71 -550.27 -0.799569 0.495644 0.146326 0.305965 
4016 2 -842.552 2945.34 -647.8 -0.297258 0.380458 0.756813 -0.440595 
4015 2 -836.767 2949.59 -641.054 -0.36313 -0.452673 0.812538 -0.0548275 
4027 2 -859.494 2975.34 -545.388 -0.733867 0.443462 -0.376654 -0.35059 
4028 2 -857.128 2984.4 -542.096 -0.0477724 -0.0193063 -0.648245 -0.759686 
4014 2 -832.997 2957.66 -636.95 -0.512172 -0.822143 0.0623196 0.240574 
4013 2 -826.615 2962.42 -631.131 -0.0158712 -0.723568 -0.542787 0.426122 
4012 2 -820.927 2967.65 -624.776 0.335902 0.0115011 -0.898832 0.281315 
4008 2 -803.92 2988.58 -596.736 -0.268594 -0.465728 0.843089 -0.0124896 
4011 2 -815.942 2972.23 -617.408 0.418701 0.682476 -0.596224 -0.0585891 
4010 2 -812.782 2979.01 -610.863 0.324461 0.8682 0.278806 -0.251438 
4009 2 -808.136 2985.63 -605.139 -0.140926 0.366409 0.821683 -0.413184 
3975 2 -733.453 2981.18 -541.724 -0.841643 -0.479692 0.203032 0.142519 
3976 2 -738.402 2973.65 -537.488 -0.628729 -0.145512 0.631693 -0.429524 
3977 2 -744.954 2966.37 -535.626 -0.0360406 0.325573 0.315087 -0.890743 
3978 2 -750.841 2961.13 -529.755 0.673516 0.442386 -0.188468 -0.561382 
3950 2 -692.536 2897.65 -524.11 0.633344 -0.739042 0.0771236 -0.216204 
3951 2 -689.054 2906.94 -524.507 0.581262 -0.427049 0.622137 0.304482 
3979 2 -758.648 2958.72 -524.035 0.916246 0.0609268 -0.374787 0.127735 
3949 2 -694.962 2888.22 -522.388 0.297792 -0.509486 -0.533602 -0.605815 
3948 2 -698.991 2879.36 -520.888 -0.240566 0.00532938 -0.756744 -0.607814 
3947 2 -702.293 2870.1 -518.978 -0.653744 0.603999 -0.441967 -0.111668 
3952 2 -684.22 2915.69 -525.546 0.304917 0.164561 0.651269 0.675125 
3953 2 -677.608 2923.12 -524.505 -0.359743 0.65196 0.336719 0.576328 
3954 2 -672.333 2931.49 -524.612 -0.725643 0.62584 -0.258258 -0.122755 
3955 2 -669.475 2940.96 -523.972 -0.290296 0.0822886 -0.838826 -0.453132 
3980 2 -765.497 2956.18 -517.287 0.502365 -0.348328 -0.248027 0.751518 
3946 2 -706.146 2860.95 -517.84 -0.498801 0.714638 0.194603 0.450133 
4007 2 -801.623 2991.44 -587.477 -0.092295 -0.971161 -0.0886755 0.201156 
3945 2 -711.249 2852.54 -516.822 0.0507805 0.347813 0.642841 0.68059 
3974 2 -727.925 2987.04 -547.507 -0.41826 -0.431842 -0.169178 0.780993 
3956 2 -665.172 2949.43 -526.358 0.29497 -0.60057 -0.50358 -0.546548 
3957 2 -661.796 2958.5 -528.502 0.724834 -0.67096 0.064047 -0.142572 
3958 2 -659.009 2967.94 -527.418 0.67268 -0.287998 0.442717 0.518228 
3902 2 -591.077 2841.52 -540.807 -0.376857 0.503239 0.554931 0.544777 
3915 2 -658.766 2882.93 -581 0.775175 0.596562 0.0241141 0.206485 
3914 2 -657.825 2892.71 -581.983 0.463642 0.476308 0.460363 -0.588415 
3916 2 -656.048 2873.7 -578.058 0.307199 0.389573 -0.411657 0.764461 
3917 2 -652.541 2865.04 -575.232 -0.364848 -0.111292 -0.622779 0.683116 
3919 2 -645.102 2846.97 -571.879 -0.701715 -0.584178 0.118695 -0.390184 
3918 2 -648.827 2856.14 -573.136 -0.771364 -0.544465 -0.303221 0.128887 
3912 2 -656.637 2911.11 -587.676 -0.78176 -0.422552 0.275401 -0.366681 
3913 2 -656.911 2902.58 -582.63 -0.0808608 -0.07198 0.664651 -0.739269 
3908 2 -572.653 2894.47 -555.917 0.204492 0.0264075 0.780316 0.590418 
3910 1 -612.268 2918.23 -573.25 0.488407 0.548722 -0.473177 0.486279 
3911 3 -614.509 2883.38 -575.404 0.527476 0.583266 -0.434993 0.438579 
3907 2 -575.075 2885.01 -553.521 0.595343 -0.711459 0.335647 0.163503 
3906 2 -577.776 2875.5 -552.14 0.589094 -0.682179 -0.248481 -0.354765 
3909 2 -570.048 2903.91 -557.854 -0.364837 0.66536 0.4213 0.496685 
3905 2 -581.939 2867.89 -547.204 -0.0951055 -0.295209 -0.824625 -0.473076 
3904 2 -588.037 2860.19 -545.856 -0.587672 0.419441 -0.663046 -0.197687 
3903 2 -590.215 2851.33 -542.249 -0.564051 0.821279 -0.0575114 0.0635618 
3959 2 -656.295 2976.59 -523.344 0.170453 0.307092 0.579962 0.735041 
3960 2 -649.822 2984.06 -522.446 -0.558957 0.627612 0.037127 0.54064 
3961 2 -643.617 2991.6 -521.375 -0.766268 0.436638 -0.43058 -0.191785 
4029 2 -856.245 2994.2 -540.339 0.635259 -0.425415 -0.424682 -0.484884 
4053 2 -823.768 3134.86 -525.23 -0.603351 -0.0784982 0.107172 -0.786333 
4054 2 -823.701 3132.75 -515.532 0.306841 -0.0926538 -0.0265727 -0.946867 
4052 2 -821.924 3134.71 -535.027 -0.988371 -0.00784119 0.10482 0.109885 
4030 2 -856.518 3003.75 -537.693 0.877097 -0.441464 0.161927 0.0979271 
4031 2 -854.984 3012.39 -532.77 0.47112 -0.18677 0.499451 0.702646 
4032 2 -853.254 3021.62 -529.807 -0.395617 0.231726 0.350281 0.816758 
4033 2 -851.923 3028.84 -523.32 -0.891688 0.354834 -0.0767267 0.270368 
4034 2 -848.822 3034.97 -516.16 -0.786737 0.116816 -0.419501 -0.437513 
4006 2 -802.928 2995.04 -578.479 -0.13747 -0.470564 -0.854154 0.173472 
4051 2 -815.994 3133.44 -542.858 -0.50632 -0.199756 0.264989 0.795939 
4005 2 -804.371 2997.22 -568.977 -0.044751 0.32162 -0.935239 0.141021 
4004 2 -806.091 3001.82 -560.38 0.151032 0.925956 -0.312968 0.147806 
3973 2 -726.648 2994.4 -554.025 0.399562 0.0953798 -0.389443 0.824371 
4003 2 -810.198 3005.55 -552.102 0.221872 0.813719 0.516839 0.146667 
3972 2 -723.402 3002.87 -558.091 0.851419 0.445573 -0.23572 0.144865 
4002 2 -811.669 3011.93 -544.628 0.129159 0.143368 0.926733 -0.322381 
4001 2 -813.335 3014.46 -535.247 -0.0577535 -0.714523 0.679109 -0.157901 
4000 2 -814.466 3019.97 -527.165 -0.278451 -0.951614 -0.117923 -0.0546787 
3971 2 -716.885 3008.04 -563.438 0.613364 0.470546 -0.0673132 -0.630746 
3965 3 -674.343 3003.15 -552.003 0.517827 0.168523 -0.670087 0.50442 
4050 2 -810.649 3129.92 -550.428 0.380425 -0.328424 0.0530973 0.862899 
4045 1 -764.157 3095.62 -535.05 0.847849 -0.172902 -0.482842 0.134615 
4047 2 -787.232 3122.16 -566.476 -0.168575 0.462412 0.0517154 -0.868955 
4049 2 -802.937 3125.97 -555.107 0.867134 -0.301501 -0.356066 0.174334 
4048 2 -794.527 3123.05 -559.593 0.546912 0.216612 -0.432493 -0.683312 
3969 2 -705.691 3015.85 -577.395 -0.833648 -0.0118815 0.428105 -0.348734 
3970 2 -712.305 3011.98 -571.226 -0.172262 0.214735 0.283177 -0.918709 
3968 2 -700.45 3024.06 -579.473 -0.714217 -0.629223 0.156847 0.263384 
3967 2 -695.262 3031.35 -583.387 -0.262982 -0.442739 -0.318538 0.795837 
4046 3 -795.583 3100.01 -520.261 0.838987 -0.203306 -0.485849 0.136816 
3966 2 -690.112 3039.33 -585.852 0.413809 -0.0230711 -0.594547 0.689017 
3999 2 -815.342 3020.99 -517.318 -0.0576277 -0.440607 -0.89465 0.0463309 
3962 2 -639.405 3000.46 -519.526 -0.231008 -0.0613587 -0.654998 -0.716832 
3964 1 -656.738 3033.35 -553.086 0.542176 0.187612 -0.665597 0.477313 
3963 2 -635.158 3009.34 -518.691 0.355683 -0.536433 -0.391276 -0.657748 
2484 2 -80.0452 761.614 -372.209 0.945874 -0.181555 -0.218178 -0.15735 
2483 2 -74.6168 759.396 -380.186 0.574569 0.133031 -0.262264 -0.7638 
2485 2 -83.1525 765.266 -363.43 0.672952 -0.18926 0.0615838 0.712408 
2482 2 -66.9058 758.232 -386.234 -0.234921 0.471004 0.0444779 -0.849111 
2481 2 -60.0264 754.251 -392.181 -0.79805 0.381728 0.315874 -0.342964 
2535 2 -3.47053 801.815 -384.139 0.348479 -0.498945 0.0721094 0.7902 
2536 2 -10.7161 806.356 -379.135 -0.279286 -0.230793 0.515873 0.776279 
2537 2 -17.534 812.148 -374.789 -0.862012 0.243725 0.391165 0.211004 
2538 2 -23.7443 817.688 -369.292 -0.741213 0.367202 -0.0311344 -0.561068 
2539 2 -26.2301 823.466 -361.678 0.129039 0.28512 -0.227124 -0.92221 
2748 2 -152.065 1136.63 -401.511 -0.242009 -0.356048 -0.857597 0.281406 
2747 2 -154.591 1142.72 -394.088 0.0951481 0.562189 -0.739301 0.358224 
2749 1 -169.406 1096.8 -383.104 -0.315243 0.126703 -0.368253 -0.865423 
2692 2 -72.4993 1069.77 -365.36 0.12691 -0.830229 0.0166874 -0.542526 
2746 2 -154.468 1148.32 -386.061 0.311273 0.936749 0.151239 -0.0523229 
2693 2 -63.883 1072 -369.667 0.227724 -0.524901 0.737516 -0.358735 
2745 2 -155.688 1153.47 -377.568 0.144713 0.416849 0.872598 -0.209447 
2694 2 -56.6072 1069.92 -375.937 0.403762 0.259978 0.87705 0.0131008 
2744 2 -157.825 1159.83 -370.286 -0.0929996 -0.482292 0.802554 -0.338605 
2775 2 -256.28 1253.61 -364.051 -0.126383 0.856028 -0.432816 -0.25281 
2994 2 -418.302 1447.76 -447.427 -0.16414 -0.353684 -0.398913 -0.82996 
2995 2 -411.472 1453.42 -442.974 0.524467 -0.55102 0.158818 -0.629355 
2992 1 -427.433 1418.12 -411.814 0.763545 -0.515159 0.133092 -0.36592 
2996 2 -402.951 1456.75 -439.211 0.779665 -0.0839356 0.620522 -0.00537304 
2997 2 -393.357 1458.44 -437.326 0.469135 0.384071 0.357343 0.710428 
2993 3 -406.438 1442.04 -397.093 0.706975 -0.544153 0.151348 -0.425651 
2991 2 -424.44 1403.91 -366.913 -0.0656501 0.246633 0.796392 -0.54829 
2990 2 -421.412 1412.38 -362.748 -0.401198 -0.378259 0.734797 -0.39501 
2998 2 -384.513 1459.54 -432.811 -0.203745 0.403067 0.0124947 0.892115 
2999 2 -377.685 1462.1 -426.317 -0.718577 0.135239 -0.418074 0.539047 
3000 2 -370.815 1459.44 -419.634 -0.873266 -0.210228 -0.421561 -0.124484 
3001 2 -362.559 1457.71 -414.603 -0.445178 -0.479268 -0.105926 -0.748932 
3002 2 -354.922 1455.02 -408.929 0.159025 -0.459703 0.125612 -0.864642 
3008 2 -316.201 1443.58 -370.518 -0.567836 -0.0866946 -0.370793 -0.729766 
3007 2 -320.481 1442.7 -379.546 -0.941882 0.111476 -0.204933 0.24173 
3006 2 -323.895 1444.94 -388.626 -0.389785 0.1376 -0.194902 0.889464 
3005 2 -331.11 1448.45 -394.465 0.271143 0.45759 -0.0203759 0.846568 
3004 2 -337.049 1452.31 -401.378 0.897737 0.26676 0.232047 0.262796 
3003 2 -346.361 1454.33 -403.904 0.691042 -0.143101 0.589495 -0.393037 
3009 2 -310.733 1447.22 -363.244 0.347084 -0.165776 -0.0548055 -0.921438 
3204 2 -492.336 1598.11 -364.994 -0.330462 -0.0722132 0.641921 -0.688126 
3048 2 -417.342 1602.36 -395.867 0.896755 -0.240824 0.0836824 -0.361705 
3049 2 -413.672 1605.53 -387.114 0.697571 -0.0887435 0.376749 0.602975 
3047 3 -365.668 1605.43 -397.386 -0.762367 -0.317204 -0.0466314 -0.562142 
3203 2 -495.071 1607.28 -367.332 -0.722711 -0.619555 0.0723971 -0.297656 
3050 2 -409.825 1610.66 -379.606 0.0190847 0.394626 0.159371 0.904714 
3202 2 -499.254 1615.63 -370.72 -0.773625 -0.433008 -0.37611 0.269352 
3051 2 -402.558 1613.3 -373.394 -0.822658 0.198549 -0.266364 0.46137 
3046 1 -383.572 1618.09 -424.731 -0.769901 -0.318347 -0.0653123 -0.54922 
3205 2 -495.363 1588.78 -363.443 0.347547 0.2387 0.487124 -0.764816 
3052 2 -396.01 1613.73 -366.098 -0.779305 -0.117053 -0.451091 -0.418927 
3021 2 -243.074 1494.68 -393.793 -0.236137 0.681339 0.228969 -0.653903 
3022 2 -252.908 1495.21 -394.323 0.230724 0.576837 -0.474784 -0.623382 
3023 2 -262.305 1498.1 -394.945 0.70408 0.0972622 -0.669147 -0.216918 
3024 2 -271.891 1500.36 -394.638 0.639327 -0.469925 -0.492927 0.357008 
3025 2 -281.589 1502.23 -393.808 -0.00573428 -0.621204 -0.150511 0.769038 
3026 2 -291.051 1499.69 -392.105 -0.676588 -0.407443 0.398069 0.466647 
3027 2 -300.151 1497.98 -388.965 -0.788793 0.161715 0.502703 -0.314554 
3028 2 -308.755 1497.27 -384.263 -0.257421 0.544093 0.133247 -0.787365 
3033 2 -342.122 1527.51 -381.783 -0.35056 0.0387783 0.87005 0.344408 
3034 2 -347.002 1534.94 -386.493 -0.429608 0.7164 0.543425 0.0830482 
3035 2 -350.073 1542.45 -392.2 -0.425677 0.775858 -0.297121 -0.358557 
3040 2 -354.518 1585.75 -413.848 -0.0323759 0.349418 0.811535 0.467193 
3038 2 -353.77 1567.88 -405.958 0.54995 -0.818024 0.0464602 0.161966 
3039 2 -355.937 1576.62 -410.115 0.328412 -0.374636 0.758773 0.419591 
3037 2 -354.681 1559.34 -401.18 0.313508 -0.614401 -0.623125 -0.3687 
3036 2 -353.599 1551.07 -395.689 -0.0427241 0.180524 -0.857331 -0.480177 
3032 2 -338.105 1519.2 -378.277 0.186735 -0.565467 0.583627 0.552047 
3031 2 -331.996 1511.63 -376.704 0.587142 -0.737472 -0.0997121 0.318522 
3030 2 -325.286 1504.58 -378.598 0.724299 -0.346277 -0.560676 -0.202794 
3029 2 -317.877 1498.41 -380.627 0.283558 0.298399 -0.57037 -0.710796 
3041 2 -352.355 1593.36 -419.954 -0.353827 0.845684 0.155322 0.368103 
3042 2 -347.725 1600.6 -424.743 -0.496475 0.531118 -0.659146 -0.192234 
3043 2 -343.626 1608.45 -429.163 -0.0209313 0.0344968 -0.854508 -0.517869 
3044 2 -343.417 1617.49 -433.342 0.2055 -0.705632 -0.479115 -0.479898 
3266 2 -650.316 1770.18 -427.108 0.925994 -0.0365971 0.320548 0.196072 
3265 2 -659.098 1770.74 -431.598 0.619649 -0.342986 0.35675 -0.6092 
3267 2 -645.103 1772.14 -418.908 0.474901 0.130964 0.174727 0.852519 
3201 2 -502.374 1623.89 -375.192 -0.310467 -0.0118445 -0.52825 0.790204 
3198 2 -498.784 1645.24 -394.298 0.58312 0.366681 0.125736 -0.713937 
3197 2 -495.26 1652.44 -399.959 -0.291888 -0.0247406 0.47129 -0.83191 
3199 2 -502.141 1639.31 -387.085 0.932083 0.348348 0.0205751 0.0972202 
3200 2 -501.71 1632.63 -379.698 0.539513 0.296772 -0.41578 0.669312 
3196 2 -488.466 1658.56 -403.61 -0.78013 -0.292682 0.507036 -0.220567 
3195 2 -482.274 1664.44 -408.834 -0.703342 -0.457811 0.0797777 0.537917 
3183 2 -442.579 1636.65 -493.45 -0.576625 0.00510042 -0.281315 -0.767033 
3184 2 -440.06 1642.14 -485.75 0.0161901 -0.174714 -0.397092 -0.90085 
3185 2 -436.979 1648.59 -478.983 0.728254 -0.309187 -0.0965407 -0.603929 
3186 2 -434.749 1654.75 -471.59 0.957249 -0.167098 0.00257801 0.236107 
3194 2 -476.614 1670.23 -414.376 -0.116037 -0.358617 -0.293187 0.878618 
3193 2 -470.071 1673.12 -421.121 0.702226 -0.0630711 -0.369189 0.605475 
3192 2 -463.425 1675.35 -428.13 0.855722 0.247362 -0.288915 -0.350828 
3187 2 -435.343 1658.93 -462.644 0.323499 -0.26186 0.174798 0.892313 
3191 2 -456.393 1675.88 -435.184 0.297833 0.364405 -0.0449445 -0.881183 
3188 2 -438.802 1663.41 -454.569 -0.604757 0.00676272 0.430459 0.670021 
3189 2 -444.293 1669.33 -448.904 -0.924712 0.259477 0.271006 0.064308 
3190 2 -449.073 1674.2 -441.667 -0.53205 0.410035 0.120931 -0.730869 
3182 3 -428.92 1685.17 -481.168 0.380973 0.0307834 0.163687 0.909461 
3176 2 -403.327 1739.42 -484.347 -0.00951067 -0.502633 -0.797099 0.334518 
3179 2 -413.987 1724.99 -507.424 -0.238736 0.0272935 0.956269 -0.166761 
3178 2 -409.16 1728.26 -499.515 -0.304178 -0.689252 0.652363 0.0826447 
3177 2 -407.155 1734.63 -492.193 -0.360369 -0.89216 -0.21952 0.161234 
3175 2 -401.113 1742.82 -475.186 0.125946 0.178408 -0.969795 0.108655 
3174 2 -398.316 1742.44 -465.71 0.0600037 0.896216 -0.42131 -0.125275 
3173 2 -393.987 1740.97 -457.058 -0.21331 0.856301 0.418094 -0.215511 
3172 2 -389.566 1740.95 -448.218 -0.189638 0.1614 0.967845 -0.0355485 
3171 2 -385.896 1739.64 -439.046 -0.102305 -0.66897 0.720605 0.150805 
3170 2 -378.983 1739.3 -431.983 0.00717517 -0.938665 -0.0198571 0.344185 
3169 2 -370.295 1741.31 -427.829 0.304088 -0.507712 -0.65754 0.466262 
3168 2 -362.114 1741.15 -422.381 0.485875 0.1273 -0.855862 -0.123372 
3045 2 -338.801 1625.3 -437.531 0.544078 -0.778456 0.294702 -0.105524 
3167 2 -354.084 1741.92 -416.837 0.214187 0.781231 -0.429364 -0.39931 
3166 2 -345.986 1743.33 -411.364 -0.211668 0.719845 0.49862 -0.434049 
3126 2 -324.066 1770.23 -476.691 -0.104439 -0.417133 0.747408 0.506433 
3165 2 -337.835 1743.16 -405.894 -0.465611 0.0593014 0.880954 -0.0600776 
3164 2 -329.473 1743.35 -400.609 -0.317643 -0.65167 0.622172 0.295521 
3125 2 -319.036 1763.32 -471.973 0.404494 -0.852174 0.013824 0.331652 
3124 2 -315.075 1754.85 -468.735 0.546824 -0.607305 -0.54693 -0.181744 
3156 2 -283.424 1686.15 -400.056 0.40017 -0.386237 0.449848 0.6988 
3157 2 -285.095 1695.6 -397.622 -0.381303 0.0251851 0.565369 0.73098 
3158 2 -288.833 1704.21 -394.514 -0.665695 0.538262 0.507633 0.097127 
3118 2 -264.133 1737 -465.397 0.535121 -0.488167 -0.288783 0.626054 
3121 2 -291.725 1743.82 -457.023 -0.505118 0.552917 0.546311 -0.375078 
3119 2 -273.218 1739.51 -462.33 -0.0708775 -0.583399 0.122691 0.79973 
3120 2 -282.925 1740.09 -459.866 -0.682058 -0.0543656 0.601748 0.411995 
3113 2 -219.813 1720.52 -459.472 -0.592523 -0.026748 0.802697 0.0622752 
3112 2 -211.87 1715.88 -455.796 -0.17229 -0.603337 0.57888 0.520767 
3114 2 -229.009 1721.68 -462.902 -0.543761 0.622048 0.505231 -0.249242 
3116 2 -245.675 1730.8 -468.259 0.436343 0.377875 -0.619954 -0.531481 
3115 2 -237.165 1726.15 -465.97 -0.218647 0.768354 -0.144811 -0.583828 
3117 2 -254.95 1734.2 -468.069 0.790343 -0.16567 -0.589606 -0.0166484 
3122 2 -301.541 1745.12 -458.879 -0.118021 0.792689 -0.188949 -0.567462 
3123 2 -309.581 1749.76 -462.225 0.222534 0.301093 -0.815601 -0.441155 
3128 3 -305.579 1764.53 -428.721 -0.755517 -0.480293 -0.391068 -0.213492 
3159 2 -294.404 1712.38 -394.946 -0.494898 0.737317 -0.0551909 -0.456501 
3163 2 -320.384 1740.8 -397.676 0.0669492 -0.821373 0.0748483 0.561482 
3160 2 -301.085 1719.47 -395.875 -0.0714591 0.316363 -0.630311 -0.705348 
3162 2 -311.819 1735.8 -396.897 0.547354 -0.670237 -0.366077 0.342306 
3161 2 -305.198 1728.45 -396.028 0.573881 -0.216206 -0.717571 -0.330163 
3155 3 -245.555 1702.96 -369.105 -0.696027 0.672677 -0.251007 0.0068653 
3141 2 -238.666 1769.23 -371.901 -0.342805 -0.298943 0.0789325 -0.887067 
3154 1 -254.623 1669.44 -366.611 -0.709458 0.668741 -0.222379 -0.00184502 
3142 2 -233.727 1765.49 -364.137 0.591911 -0.149004 0.270425 -0.74452 
3111 2 -205.094 1709.98 -451.715 0.459595 -0.80649 -0.148828 0.340877 
3110 2 -199.938 1701.96 -449.125 0.560041 -0.472478 -0.644573 -0.218277 
3109 2 -194.082 1694.74 -446.105 0.0998234 0.363699 -0.724629 -0.576776 
3108 2 -187.52 1687.29 -446.575 -0.373429 0.665299 -0.157867 -0.626902 
3107 2 -181.979 1679.19 -448.185 -0.761794 0.566346 0.299558 -0.0958427 
3106 2 -174.146 1673.35 -448.054 -0.605303 0.0806723 0.707996 0.354742 
3105 2 -165.205 1670.21 -450.327 -0.228281 -0.509636 0.364586 0.745141 
3104 2 -155.522 1668.2 -450.733 0.41241 -0.592377 -0.270027 0.637254 
3103 2 -146.968 1664.89 -454.565 0.818469 -0.131496 -0.547095 -0.116207 
3101 3 -150.07 1711.34 -448.746 0.238554 -0.549337 0.0234636 0.800481 
3102 2 -138.251 1661.67 -458.029 0.392874 0.342975 -0.471636 -0.711039 
3100 1 -119.228 1704.41 -463.623 0.174774 -0.59115 -0.0503733 0.785786 
3093 2 -159.779 1746.7 -422.703 0.202906 0.228116 0.859787 0.409339 
3094 2 -154.57 1752.36 -429.086 -0.0888487 0.879876 0.239034 0.400982 
3095 2 -148.168 1756.15 -435.488 -0.225337 0.748387 -0.546533 0.300736 
3099 2 -120.266 1751.58 -462.51 0.266001 -0.600153 0.719293 -0.227329 
3098 2 -126.715 1752.1 -454.998 -0.0421929 -0.931735 -0.0403988 -0.358411 
3096 2 -141.099 1755.51 -442.442 -0.467653 0.00831378 -0.866831 0.172733 
3097 2 -133.34 1752.19 -447.658 -0.243954 -0.578769 -0.74533 -0.223598 
3092 2 -166.242 1741.17 -417.7 0.46885 -0.551074 0.686109 0.075835 
3091 2 -169.733 1736.7 -409.58 0.249715 -0.943506 -0.0249937 -0.216366 
3090 2 -171.675 1730.86 -401.667 0.0109834 -0.377748 -0.85736 -0.349457 
3089 2 -174.68 1723.65 -395.88 -0.316144 0.385593 -0.821504 -0.276592 
3088 2 -178.789 1718.07 -388.863 -0.351383 0.882729 -0.265554 0.163708 
3087 2 -182.912 1715.17 -380.212 -0.0425215 0.85522 0.44942 0.254585 
3086 2 -184.609 1709.04 -372.524 0.0348713 0.152259 0.930268 0.331968 
3085 2 -186.711 1701.49 -366.588 0.373762 -0.554244 0.705912 0.234102 
3264 2 -667.161 1773.53 -436.641 -0.202178 -0.476471 0.105215 -0.849134 
3268 2 -641.754 1773.49 -409.638 -0.377444 0.141289 -0.0642726 0.912931 
3269 2 -639.042 1774.26 -400.11 -0.911795 0.224593 -0.0290315 0.342557 
3270 2 -636.83 1777.62 -391.112 -0.795661 0.0548388 -0.217086 -0.56284 
3271 2 -634.435 1780.27 -382 -0.0349897 -0.107842 -0.223089 -0.968182 
3272 2 -632.675 1784.68 -373.27 0.716242 -0.136321 -0.0328536 -0.683618 
3262 1 -656.128 1819.34 -438.656 -0.275395 -0.409683 0.0345003 -0.868981 
3263 3 -636.388 1807.49 -412.353 -0.284253 -0.385559 0.0283635 -0.877348 
3252 2 -574.556 1801.86 -398.812 0.324107 -0.872919 -0.252156 0.263408 
3258 2 -608.24 1842.41 -423.154 0.689989 -0.442503 -0.569133 -0.06476 
3259 2 -615.733 1848.89 -423.619 0.348815 -0.641982 -0.0439189 0.681365 
3261 2 -633.011 1857.87 -424.198 -0.600356 0.22613 0.74838 0.168421 
3257 2 -601.676 1835.42 -420.487 0.295644 0.174282 -0.776369 -0.528651 
3255 2 -591.605 1819.46 -415.129 -0.574705 0.721285 0.383334 -0.0501599 
3253 2 -580.623 1806.92 -404.868 -0.0221731 -0.648888 0.571247 0.502125 
3256 2 -597.263 1826.77 -418.575 -0.420584 0.707638 -0.250628 -0.509454 
3260 2 -624.736 1852.92 -422.097 -0.249739 -0.475967 0.606298 0.586079 
3254 2 -587.323 1812.52 -409.63 -0.294356 0.149254 0.879133 0.343808 
3251 2 -568.749 1798.27 -391.644 0.306489 -0.233765 -0.915376 -0.116216 
3250 2 -563.268 1792.93 -385.408 0.140224 0.560555 -0.690898 -0.434483 
3249 2 -558.128 1788.85 -377.98 -0.246313 0.92397 -0.0780349 -0.281994 
3248 2 -554.998 1789.83 -368.684 -0.084221 0.546086 0.822271 -0.13626 
3273 2 -630.587 1787.11 -363.905 0.985998 -0.0741303 -0.0212717 0.147854 
3140 2 -241.978 1774.22 -379.817 -0.909786 -0.340373 -0.118517 -0.205886 
3139 2 -246.367 1777.89 -387.902 -0.811459 -0.052676 -0.264424 0.518498 
3138 2 -252.917 1780.97 -394.613 -0.138078 0.324781 -0.2251 0.908175 
3137 2 -259.364 1782.32 -402.012 0.676197 0.277981 0.221916 0.645165 
3136 2 -268.996 1784.07 -403.722 0.766789 -0.0395051 0.618949 -0.165457 
3131 2 -313.693 1782.73 -395.118 -0.053052 0.769586 0.373103 0.515477 
3133 2 -297.831 1789.25 -403.655 -0.66886 0.059646 -0.729802 0.128291 
3132 2 -306.821 1787.25 -400.285 -0.372728 0.735662 -0.362918 0.43378 
3130 2 -322.217 1780.07 -390.591 0.354236 0.344875 0.802174 0.334805 
3134 2 -287.954 1788.4 -404.313 -0.489035 -0.586748 -0.226575 -0.604347 
3135 2 -278.836 1785.33 -402.186 0.142578 -0.707887 0.225434 -0.654024 
3127 1 -336.891 1779.66 -432.254 -0.690147 -0.516224 -0.435566 -0.259794 
3129 2 -330.643 1779.06 -385.553 0.500726 -0.409098 0.741194 -0.180397 
3481 2 -542.602 2327.75 -509.839 0.846832 -0.190831 0.324534 0.375682 
3482 2 -539.294 2333.8 -502.864 0.363312 0.0368674 0.320956 0.873861 
3483 2 -537.05 2339.74 -495.19 -0.500941 0.227366 0.181575 0.815103 
3464 2 -552.579 2305.44 -381.81 0.0591332 -0.634203 0.709677 -0.301079 
3463 2 -556.096 2309.23 -373.339 -0.199653 -0.953694 -0.17586 -0.140287 
3462 2 -560.442 2314.32 -366.002 -0.348358 -0.479917 -0.80049 0.0868468 
3465 2 -548.171 2302.55 -390.231 0.424248 0.189868 0.873366 -0.145586 
3466 2 -541.403 2298.62 -396.425 0.191675 0.838425 0.403378 0.312394 
3484 2 -534.884 2344.37 -486.664 -0.963213 0.12221 -0.157151 0.180526 
3485 2 -532.045 2346.45 -477.331 -0.777567 -0.100319 -0.347277 -0.514513 
3467 2 -534.129 2297.94 -403.263 -0.128425 0.817199 -0.316078 0.46453 
3468 2 -525.875 2297.23 -408.552 -0.289421 0.191776 -0.872324 0.34425 
3486 2 -525.974 2348.45 -469.781 -0.0953079 -0.460528 -0.153923 -0.868987 
3487 2 -518.09 2351.44 -464.645 0.613423 -0.363512 0.158198 -0.683041 
3469 2 -519.769 2293.37 -415.303 -0.387633 -0.579381 -0.716227 -0.03282 
3479 3 -517.205 2303.89 -475.718 -0.937132 0.231422 -0.052869 -0.255796 
3478 1 -513.658 2286.69 -505.994 -0.928887 0.295154 -0.0263601 -0.222166 
3470 2 -513.769 2288.78 -421.777 -0.0696068 -0.950098 -0.0753856 -0.294593 
3488 2 -510.833 2352.82 -458.174 0.914198 0.0537541 0.400494 -0.0309221 
3489 2 -504.084 2351.84 -450.856 0.672064 0.238723 0.231316 0.66169 
3471 2 -508.076 2287.61 -429.859 0.181883 -0.527233 0.795504 -0.236892 
3472 2 -502.311 2285.44 -437.482 0.340703 0.354502 0.843173 -0.217507 
3473 2 -497.166 2279.22 -443.115 0.355026 0.885764 0.29272 0.0607808 
3493 2 -476.548 2354.93 -423.919 -0.399601 -0.45504 -0.299635 -0.737209 
3477 2 -485.219 2262.91 -476.821 -0.162224 -0.908718 0.283807 -0.259553 
3476 2 -489.277 2266.82 -468.551 -0.298563 -0.765405 -0.568973 -0.0358492 
3475 2 -490.949 2269.82 -459.147 -0.0454463 -0.0194876 -0.99108 0.123753 
3474 2 -494.812 2273.36 -450.755 -0.00665093 0.704707 -0.635369 0.315675 
3496 2 -448.69 2360.44 -416.191 0.667707 0.443494 0.514235 0.305029 
3497 2 -439.187 2357.89 -414.425 0.0264755 0.748349 -0.141352 0.647528 
3498 2 -429.662 2355.43 -415.486 -0.497943 0.219416 -0.603268 0.583076 
3506 3 -373.901 2343.78 -438.129 -0.672903 0.498171 0.25795 0.482171 
3499 2 -420.788 2351.11 -414.499 -0.711701 -0.509679 -0.46469 0.133313 