ITEM: TIMESTEP
100000000
ITEM: NUMBER OF ATOMS
4067
ITEM: BOX BOUNDS pp pp pp
-4.6310929470000001e+03 4.6704658980000004e+03
-4.6310929470000001e+03 4.6704658980000004e+03
-4.6310929470000001e+03 4.6704658980000004e+03
ITEM: ATOMS id type x y z c_q[1] c_q[2] c_q[3] c_q[4] 
3370 1 -540.084 1910.09 -541.458 0.343734 -0.438128 -0.438068 -0.705682 
3372 2 -493.429 1904.01 -537.565 -0.934881 0.277917 -0.0477731 0.215588 
3373 2 -491.106 1909 -529.275 -0.69109 0.128867 -0.312004 -0.639094 
3374 2 -488.532 1915.69 -522.441 0.162927 0.05145 -0.328571 -0.928896 
3375 2 -490.342 1921.31 -514.422 0.715881 -0.424158 -0.400757 -0.383403 
3369 2 -579.638 1935.64 -538.843 0.59098 0.677525 -0.432832 -0.0660195 
3368 2 -574.348 1943.68 -536.62 0.35858 0.732051 0.283859 -0.504921 
3468 2 -641.492 2063.05 -544.408 -0.511279 0.228199 0.667285 0.491172 
3467 2 -635.984 2055.09 -542.721 0.0771405 -0.476832 0.578114 0.65762 
3367 2 -569.7 1951.98 -534.184 -0.161253 0.160739 0.797423 -0.558817 
3466 2 -631.321 2046.44 -541.436 0.538319 -0.753587 0.017305 0.376855 
3465 2 -625.57 2038.47 -542.056 0.732524 -0.424602 -0.504838 -0.168107 
3366 2 -565.843 1960.64 -531.979 -0.559329 -0.521771 0.583019 -0.273851 
3464 2 -623.456 2028.87 -543.432 0.252835 -0.159923 -0.668077 -0.681302 
3365 2 -562.629 1970.05 -532.103 -0.693416 -0.685626 -0.00862486 0.2214 
3463 2 -622.342 2021.12 -549.498 -0.517661 0.298739 -0.337796 -0.727101 
3462 2 -622.348 2014.38 -556.667 -0.908204 0.373043 -0.0757288 -0.17398 
3453 2 -579.075 1964.19 -599.703 0.0399604 -0.488547 0.170294 0.854825 
3454 2 -587.065 1967.72 -594.95 -0.564063 -0.120605 0.597549 0.556977 
3455 2 -595.468 1972.23 -592.096 -0.753486 0.303186 0.569026 -0.12863 
3456 2 -604.715 1975.7 -590.807 -0.393247 0.55888 -0.138622 -0.716795 
3457 2 -612.012 1981.56 -587.933 0.249166 0.297068 -0.492614 -0.779101 
3458 2 -618.932 1987.88 -584.903 0.798842 -0.2746 -0.408415 -0.345895 
3459 2 -623.047 1994.25 -578.471 0.865085 -0.265136 0.0842337 0.417416 
3460 2 -623.297 2000.61 -570.829 0.0978563 0.0302414 0.394941 0.912979 
3461 2 -622.733 2007.82 -564.151 -0.693491 0.293895 0.242765 0.61136 
3452 3 -585.18 2015.45 -593.144 -0.212956 0.578533 -0.0398254 -0.786361 
3451 1 -555.845 2004.33 -608.286 -0.245273 0.520808 -0.0290471 -0.817164 
3449 2 -556.703 2051.91 -598.733 -0.199804 0.730233 -0.561306 0.334325 
3450 2 -549.583 2051 -605.563 -0.364622 -0.112784 -0.92408 0.0201472 
3364 2 -556.029 1976.62 -528.698 -0.0650709 -0.679381 -0.491915 0.54058 
3363 2 -547.227 1981.24 -528.436 0.588462 -0.0773355 -0.713308 0.372724 
3448 2 -561.426 2057.55 -591.949 0.298607 0.905306 0.183543 0.23993 
3447 2 -563.553 2064.71 -585.432 0.262772 0.457839 0.803709 -0.274565 
3446 2 -566.356 2073.7 -582.272 0.0197282 -0.203609 0.760081 -0.616791 
3371 3 -528.623 1941.67 -531.854 0.357478 -0.451711 -0.418268 -0.702295 
3362 2 -539.51 1987.19 -527.245 0.652872 0.585681 -0.475694 -0.0667139 
3361 2 -531.612 1992.83 -525.528 0.340951 0.780869 0.00635942 -0.523409 
3360 2 -525.489 1998.7 -520.578 -0.00957317 0.660776 0.608144 -0.439823 
3469 2 -646.834 2071.33 -545.09 -0.643661 0.710345 0.284747 -0.00547372 
3359 2 -520.292 2005 -515.054 -0.370931 -0.268186 0.854172 -0.246731 
3384 2 -477.326 2000.29 -520.972 -0.0587323 0.234314 0.681321 0.690977 
3385 2 -475.352 2010.04 -520.891 -0.646147 0.594888 0.406682 0.251421 
3386 2 -476.731 2019.79 -521.294 -0.718162 0.601815 -0.122962 -0.327021 
3387 2 -479.428 2029.15 -520.039 -0.156486 0.278981 -0.703663 -0.634461 
3388 2 -481.334 2038.72 -520.807 0.530563 -0.376006 -0.450154 -0.611951 
3389 2 -481.262 2048.12 -517.825 0.742664 -0.64823 0.10484 0.131366 
3383 2 -477.968 1990.99 -517.643 0.491607 -0.593123 0.544687 0.331427 
3390 2 -481.759 2057.9 -516.164 0.540391 -0.131298 0.36487 0.746732 
3478 1 -714.376 2162.6 -535.384 0.914046 0.324841 0.157179 0.185186 
3476 2 -675.721 2131.66 -549.645 -0.502048 0.71156 0.434228 0.230383 
3477 2 -676.87 2140.55 -553.604 -0.434087 0.716383 -0.4177 -0.351982 
3475 2 -668.53 2124.67 -549.276 -0.455064 -0.100109 0.700664 0.540337 
3470 2 -651.138 2080.05 -546.96 -0.341629 0.784043 -0.371996 -0.360814 
3445 2 -569.741 2080.94 -576.281 -0.314056 -0.82621 0.335913 -0.325434 
3474 2 -665.271 2115.57 -551.696 0.354754 -0.365565 0.51169 0.69187 
3473 2 -663.03 2105.95 -551.15 0.662593 -0.720183 -0.0172826 0.204959 
3472 2 -658.527 2097.1 -551.728 0.682538 -0.423838 -0.516635 -0.295959 
3471 2 -654.157 2088.11 -551.812 0.269661 0.0599022 -0.704895 -0.653313 
3444 2 -573.347 2089.49 -572.527 -0.534746 -0.730519 -0.41842 0.0728863 
3443 2 -574.944 2098.89 -569.72 -0.193683 -0.172318 -0.807638 0.529637 
3434 2 -564.777 2183.84 -566.053 0.709493 0.66309 0.137896 -0.19472 
3435 2 -566.145 2174.23 -564.605 0.624377 0.579024 -0.418216 0.316196 
3436 2 -567.887 2164.5 -564.763 0.033484 0.150227 -0.535777 0.830213 
3437 2 -565.686 2155.77 -560.854 -0.497177 -0.61216 -0.392892 0.472981 
3438 2 -567.435 2146.05 -560.959 -0.694463 -0.684873 0.201966 -0.0887654 
3431 2 -557.451 2212.37 -564.877 -0.646881 -0.756593 0.0722492 0.0623951 
3432 2 -559.07 2202.57 -565.895 -0.488862 -0.224124 0.655169 -0.530599 
3433 2 -562.083 2193.22 -566.622 0.104037 0.264623 0.642895 -0.711223 
3440 2 -569.445 2126.54 -562.095 0.24144 0.473498 0.705284 -0.469128 
3439 2 -567.817 2136.19 -560.745 -0.334533 -0.194504 0.713957 -0.583541 
3441 2 -570.86 2117.29 -565.321 0.616623 0.763163 -0.102958 -0.16358 
3442 2 -575.008 2108.45 -567.013 0.374676 0.511032 -0.61608 0.467879 
3430 2 -552.046 2220.57 -564.246 -0.329142 -0.618107 -0.37397 0.608075 
3425 3 -541.414 2214.8 -524.144 0.0286838 0.0575902 0.774677 -0.629076 
3429 2 -546.236 2228.39 -565.447 0.319454 -0.166969 -0.619697 0.69717 
3399 2 -398.872 2106.14 -526.075 -0.408333 0.811649 -0.0747338 -0.41098 
3400 2 -405.226 2112.86 -529.487 0.297709 0.348403 -0.70925 -0.535677 
3402 2 -419.718 2125.69 -532.982 0.437218 -0.78123 -0.228551 0.382472 
3401 2 -412.79 2118.6 -532.381 0.699778 -0.408793 -0.573241 -0.120809 
3403 2 -427.237 2131.57 -535.54 -0.0436392 -0.636194 0.470251 0.610095 
3404 2 -435.765 2136.31 -536.959 -0.613621 -0.22056 0.707436 0.272684 
3405 2 -445.476 2137.58 -537.955 -0.775835 0.373269 0.489083 -0.139815 
3406 2 -453.324 2142.78 -534.994 -0.274938 0.588408 -0.0126522 -0.760279 
3407 2 -461.933 2146.48 -532.121 0.521048 0.167713 -0.640914 -0.538156 
3408 2 -470.385 2151.37 -530.813 0.81791 -0.235344 -0.501571 0.155121 
3409 2 -479.249 2153.13 -526.843 0.308278 -0.538043 -0.0760692 0.780825 
3410 2 -488.173 2154.43 -522.982 -0.424566 -0.514831 0.37525 0.643335 
3411 2 -497.79 2155.37 -520.768 -0.847907 0.0617551 0.519365 0.086605 
3412 2 -506.067 2155.97 -515.379 -0.601715 0.371482 0.246658 -0.662646 
3428 2 -538.593 2234.52 -564.034 0.646275 0.388837 -0.655983 0.0286406 
3427 2 -531.171 2240.57 -561.553 0.413347 0.770548 -0.016875 -0.484887 
3426 2 -524.015 2247.31 -560.718 -0.0312455 0.466642 0.537105 -0.701989 
3424 1 -538.711 2248.65 -515.936 -0.0307427 0.0318383 0.770795 -0.635544 
3721 1 -614.998 2517.08 -606.383 0.42189 -0.513972 0.102524 -0.739818 
3724 2 -578.122 2510.89 -635.012 -0.38611 0.214993 -0.357224 -0.822854 
3723 2 -583.464 2503.19 -638.549 -0.827671 0.4508 -0.334183 0.00794401 
3725 2 -578.232 2518.28 -628.439 0.279868 -0.398403 -0.418719 -0.766566 
3726 2 -576.016 2526.8 -623.924 0.869417 -0.476925 0.0212781 -0.127297 
3722 3 -584.525 2527.08 -592.511 0.459032 -0.486788 0.150302 -0.72783 
3716 2 -603.475 2532.43 -536.461 -0.054302 0.954598 0.0743896 -0.283301 
3717 2 -608.643 2532.96 -544.931 0.136175 0.591836 -0.736762 -0.297269 
3715 2 -598.748 2532.34 -527.779 -0.219508 0.627822 0.739821 -0.101586 
3714 2 -596.783 2533.22 -518.145 -0.129714 -0.187638 0.972549 -0.0459819 
3727 2 -574.754 2535.03 -618.599 0.591052 -0.230274 0.427297 0.644243 
3775 1 -724.431 2570.19 -540.387 -0.419775 -0.0385756 -0.459387 -0.781834 
3776 3 -708.92 2597.11 -524.444 -0.462388 0.0148011 -0.499542 -0.732418 
3774 2 -709.033 2596.6 -576.242 0.117245 -0.463476 -0.781052 0.401747 
3773 2 -702.75 2600.9 -569.925 0.401708 0.247049 -0.863057 0.180914 
3772 2 -695.976 2607.4 -567.017 0.54519 0.735139 -0.336656 -0.221361 
3771 2 -687.594 2611 -563.306 0.0138488 0.757891 0.314815 -0.571228 
3770 2 -680.251 2616.5 -559.809 -0.26671 0.229561 0.801966 -0.48272 
3769 2 -673.218 2622.09 -555.772 -0.549184 -0.405732 0.729737 -0.035524 
3720 2 -627.913 2538.23 -566.244 -0.0438241 -0.885377 0.160207 0.434189 
3719 2 -620.263 2537.41 -559.936 0.295219 -0.720311 -0.530873 0.33492 
3718 2 -613.653 2536.43 -552.707 0.325983 -0.145763 -0.933543 -0.0313877 
3728 2 -572.467 2542.08 -611.935 -0.273034 0.170706 0.371823 0.870666 
3729 2 -571.935 2549.46 -605.345 -0.856552 0.402683 0.122002 0.298798 
3768 2 -664.246 2625.62 -553.722 -0.322602 -0.763626 0.174666 0.531315 
3767 2 -654.531 2626.93 -551.826 0.329888 -0.623083 -0.444183 0.552851 
3766 2 -644.633 2628.1 -551.815 0.734438 0.155118 -0.654738 -0.0886366 
3765 2 -635.224 2629.43 -548.685 0.267492 0.780708 -0.176203 -0.536559 
3730 2 -571.249 2557.61 -599.84 -0.861909 0.266804 -0.135752 -0.409268 
3731 2 -571.098 2563.24 -591.643 -0.125435 0.0611648 -0.289103 -0.947071 
3732 2 -571.63 2568.73 -583.248 0.689993 0.0327178 -0.0337412 -0.722289 
3733 2 -572.029 2569.36 -573.351 0.968865 0.0368267 -0.0982834 0.224243 
3734 2 -573.962 2569.37 -563.587 0.433428 0.0225401 -0.0136559 0.900803 
3735 2 -574.925 2568.72 -553.695 -0.361933 -0.104672 -0.0639049 0.924102 
3736 2 -576.008 2566.22 -544.214 -0.957992 -0.203118 0.0244009 0.200995 
3737 2 -576.833 2561.69 -535.519 -0.735212 -0.274415 0.0220072 -0.619416 
3738 2 -573.721 2557.31 -527.153 0.0419218 -0.276229 -0.0453698 -0.959105 
3739 2 -568.88 2557.97 -518.646 0.825533 -0.288735 0.146082 -0.462372 
3764 2 -626.031 2628.04 -545.662 -0.36241 0.710107 0.313476 -0.515888 
3763 2 -616.704 2628.4 -542.237 -0.56758 0.0898511 0.813877 -0.0859301 
3762 2 -609.37 2630.26 -535.816 -0.347096 -0.701884 0.578319 0.228976 
3761 2 -601.001 2631.71 -530.774 -0.0618186 -0.873605 -0.0572899 0.479282 
3760 2 -597.451 2632.47 -521.548 0.0924021 -0.572687 -0.804744 0.126005 
3838 2 -827.593 2765.24 -515.283 -0.373188 0.431505 -0.795133 0.205663 
3839 2 -819.599 2765.04 -521.064 -0.504326 -0.290063 -0.779564 -0.231947 
3850 2 -730.138 2770.07 -577.953 0.515378 0.0434811 0.855775 0.0119753 
3851 2 -721.441 2770.25 -582.499 0.454039 0.572581 0.451629 0.511889 
3852 2 -711.607 2770.26 -583.752 -0.229597 0.67109 -0.132378 0.692387 
3853 2 -701.828 2771.77 -584.652 -0.701011 0.342421 -0.570614 0.256378 
3854 2 -692.358 2773.99 -582.979 -0.706903 -0.152514 -0.514731 -0.460521 
3855 2 -683.807 2776.59 -578.756 -0.0956283 -0.507099 -0.179212 -0.837609 
3857 3 -720.588 2805.2 -556.014 0.766471 0.362297 -0.520504 -0.101679 
3849 2 -736.341 2771.44 -570.394 0.1621 -0.60894 0.723866 -0.28095 
3848 2 -743.4 2769.25 -563.834 0.07983 -0.91582 -0.102837 -0.379903 
3847 2 -750.559 2769.07 -556.949 -0.276781 -0.650579 -0.645757 -0.288333 
3846 2 -759.147 2768.13 -552.293 -0.510074 0.159173 -0.839857 0.095541 
3845 2 -767.359 2766.36 -547.257 -0.338969 0.73122 -0.445075 0.390288 
3844 2 -776.298 2766.7 -543.109 0.164743 0.823648 0.277266 0.466462 
3843 2 -785.493 2767.29 -539.9 0.561465 0.363365 0.709911 0.220792 
3842 2 -794.278 2764.24 -536.376 0.56287 -0.392298 0.726986 -0.0277681 
3856 1 -691.672 2821.68 -567.123 0.769382 0.424146 -0.47137 -0.0772151 
3841 2 -803.062 2764.03 -531.648 0.197939 -0.777049 0.383557 -0.458148 
3840 2 -810.702 2764.88 -525.482 -0.248208 -0.797159 -0.400189 -0.377863 
3862 2 -730.685 2834.88 -521.033 -0.0635307 0.180423 0.0965887 -0.976771 
3861 2 -723.931 2839.21 -526.734 -0.81595 -0.0433498 0.439773 -0.372754 
3860 2 -718.408 2844.87 -532.757 -0.741419 -0.426752 0.113826 0.505198 
3859 2 -717.345 2851.48 -540.23 -0.334892 -0.153953 -0.341412 0.864629 
3858 2 -717.352 2856.57 -548.707 0.387464 0.12069 -0.259591 0.87631 
3967 2 -577.691 2957.57 -554.262 0.495957 -0.325648 -0.0070865 -0.804941 
3966 2 -582.549 2954.21 -562.235 -0.298126 -0.180392 -0.278955 -0.894854 
3968 2 -572.996 2961.34 -546.309 0.847112 -0.271049 0.442564 -0.114327 
3969 2 -565.513 2965.79 -541.608 0.41128 0.0378372 0.550116 0.725803 
3970 2 -560.093 2972.6 -537.26 -0.33055 0.49015 0.239181 0.770248 
3971 2 -553.646 2979.18 -533.24 -0.904979 0.336541 -0.0924041 0.24334 
3964 1 -574.377 2983.32 -598.48 0.388771 0.353732 0.231958 0.81849 
3972 2 -550.333 2984.75 -525.884 -0.856229 0.197128 -0.193749 -0.436432 
3965 3 -549.783 2992.48 -575.403 0.382063 0.321979 0.275731 0.821176 
3973 2 -548.439 2989.8 -517.625 -0.0729015 -0.093866 -0.530355 -0.839403 
3949 2 -461.476 2967.97 -542.278 -0.496976 0.332926 0.764172 0.24128 
3948 2 -456.655 2960.64 -537.714 -0.127239 -0.291349 0.779015 0.540427 
3947 2 -452.834 2951.9 -534.579 0.366492 -0.771201 0.302868 0.423324 
3946 2 -447.081 2943.9 -534.983 0.738837 -0.593462 -0.308354 0.0827023 
3945 2 -441.305 2935.87 -535.542 0.442084 -0.0242379 -0.692177 -0.56997 
3944 2 -435.716 2928.66 -539.174 -0.311091 0.484424 -0.280724 -0.767952 
3943 2 -431.081 2919.87 -538.695 -0.685298 0.654717 0.273698 -0.163714 
3942 2 -428.562 2910.46 -537.149 -0.469385 0.358916 0.641892 0.488704 
3941 2 -424.889 2901.26 -536.361 0.0510454 -0.320266 0.676722 0.660962 
3940 2 -418.844 2893.37 -535.898 0.478512 -0.710795 0.134366 0.497737 
3939 2 -413.917 2885.44 -532.795 0.575188 -0.561663 -0.591503 -0.0617951 
3950 2 -466.769 2975.1 -546.446 -0.488607 0.826055 0.16342 -0.228451 
3951 2 -472.354 2982.21 -550.492 -0.11747 0.731977 -0.481208 -0.467813 
3952 2 -477.703 2988.87 -555.338 0.340417 0.100554 -0.841523 -0.407239 
3963 2 -552.481 3019.49 -619.45 -0.382048 0.177844 0.865945 -0.269351 
3962 2 -545.418 3022.53 -613.321 -0.388663 -0.475641 0.785771 0.0726036 
3961 2 -538.529 3024.33 -606.437 -0.180939 -0.912233 0.149598 0.335726 
3960 2 -532.56 3023.99 -598.587 0.226426 -0.710241 -0.623361 0.236029 
3959 2 -524.426 3021.99 -593.299 0.427329 -0.0159996 -0.902698 -0.0476541 
3958 2 -516.653 3019.37 -587.686 0.182231 0.700361 -0.543818 -0.424911 
3953 2 -484.638 2994.36 -559.802 0.511507 -0.635707 -0.560764 0.14064 
3957 2 -509.723 3014.05 -583.026 -0.43693 0.830951 0.118503 -0.323373 
3955 2 -497.92 3004.2 -570.568 -0.209925 -0.410134 0.775887 0.430953 
3956 2 -503.594 3009.56 -576.774 -0.416346 0.386966 0.816733 0.0993047 
3954 2 -491.551 2999.43 -564.752 0.218694 -0.888439 0.177646 0.362341 
2425 1 32.9526 498.261 -406.781 -0.290112 0.0924424 -0.227503 -0.92495 
2426 3 28.3641 512.929 -375.331 -0.32343 0.127792 -0.17693 -0.920738 
2424 2 39.2398 544.273 -415.192 0.165996 0.324388 -0.904889 0.219986 
2427 2 20.4668 461.775 -379.68 -0.209251 -0.275385 0.438896 0.829306 
2428 2 14.403 468.62 -376.177 -0.771086 0.162304 0.45091 0.419242 
2429 2 9.00621 474.363 -370.142 -0.895467 0.321245 0.1011 -0.291065 
2423 2 40.3641 548.896 -406.302 0.238564 0.969979 -0.0150684 -0.0447416 
2422 2 45.6528 550.329 -398.026 -0.0407826 0.784733 0.566182 -0.248936 
2421 2 50.6935 549.176 -389.561 -0.275748 -0.0419061 0.95564 0.0946474 
2420 2 53.7452 548.529 -380.21 -0.0604605 -0.777671 0.615534 0.11265 
2419 2 55.3024 549.402 -370.283 -0.0454319 -0.941757 -0.299722 0.145591 
2430 2 5.47268 479.48 -362.383 -0.191487 0.365969 -0.207148 -0.886842 
2478 2 -157.675 601.8 -409.448 -0.569107 0.0244585 0.808825 -0.14602 
2477 2 -148.286 603.394 -406.607 -0.489665 -0.56369 0.582016 0.322087 
2476 2 -139.282 606.606 -403.713 -0.274877 -0.81853 0.064629 0.500274 
2475 2 -130.338 607.217 -399.622 0.410119 -0.588305 -0.601696 0.351656 
2474 2 -123.703 611.964 -394.13 0.487813 0.209707 -0.82296 0.201989 
2473 2 -117.126 616.006 -387.904 0.350447 0.830608 -0.376747 -0.212929 
2472 2 -110.279 621.408 -382.953 0.167566 0.830252 0.259086 -0.464195 
2471 2 -101.982 623.281 -377.959 -0.373607 0.421637 0.763413 -0.315976 
2470 2 -93.0465 626.322 -374.898 -0.575525 -0.397267 0.705143 0.117144 
2469 2 -85.7042 632.042 -371.754 -0.311257 -0.828205 0.0156315 0.46578 
2468 2 -78.1811 638.36 -370.977 0.162615 -0.443302 -0.564407 0.677115 
2467 2 -68.4969 639.57 -372.645 0.771551 0.019229 -0.631562 0.0739519 
2479 1 -175.195 594.549 -366.265 -0.447457 -0.125106 -0.663551 -0.586371 
2466 2 -59.2126 638.177 -376.051 0.613263 0.278035 -0.495789 -0.548451 
2465 2 -49.8633 640.788 -378.122 0.104167 0.575521 0.0288711 -0.810612 
2459 2 3.78513 658.945 -390.337 0.577831 0.589907 -0.235305 -0.512593 
2458 2 11.7196 665.062 -389.654 0.123883 0.674131 0.308043 -0.65978 
2457 2 17.8711 672.654 -388.101 -0.318522 0.123716 0.747819 -0.569214 
2456 2 21.7583 679.289 -381.91 -0.409983 -0.698691 0.576653 -0.105902 
2455 2 25.823 685.442 -375.423 -0.295953 -0.898522 -0.195992 0.258179 
2454 2 29.6959 692.482 -369.493 0.0577403 -0.317888 -0.857368 0.400667 
2460 2 -5.04546 654.581 -389.58 0.746971 0.196847 -0.632227 0.0597855 
2461 2 -13.9392 650.673 -387.955 0.264358 -0.280426 -0.422294 0.820453 
2462 2 -21.4096 646.028 -383.615 -0.348464 -0.633635 0.211831 0.657425 
2464 2 -40.457 643.831 -378.694 -0.501151 0.320699 0.621615 -0.509505 
2463 2 -30.9388 644.117 -381.279 -0.786957 -0.121308 0.58773 0.143376 
2508 2 -217.137 795.648 -379.332 -0.153844 0.0544343 -0.232456 -0.958819 
2509 2 -217.418 799.671 -370.138 0.589701 -0.101198 -0.151865 -0.786733 
2506 1 -170.452 793.152 -386.212 0.868563 0.0818448 -0.146867 0.466187 
2505 2 -125.822 788.818 -371.426 0.00613743 0.242521 0.940097 0.239506 
2504 2 -127.499 784.421 -362.678 0.192785 -0.634989 0.7416 0.0982503 
3292 2 -564.425 1856.34 -416.431 -0.746804 -0.217225 -0.529994 -0.33794 
3291 2 -574.23 1856.26 -417.896 -0.671066 0.327738 -0.58242 0.321006 
3293 2 -555.243 1856.59 -413.005 -0.229168 -0.667498 -0.19765 -0.68034 
3294 2 -545.348 1856.23 -413.104 0.390026 -0.59505 0.455659 -0.534949 
3290 3 -547.952 1898.78 -403.836 -0.0733144 0.79638 -0.0185719 0.600049 
3289 1 -580.058 1894.29 -390.673 -0.124677 0.793939 -0.00975734 0.594996 
3295 2 -535.432 1856.2 -413.445 0.547302 -0.233123 0.791058 0.142623 
3296 2 -527.924 1861.12 -417.552 0.0180313 0.519422 0.628703 0.578454 
3297 2 -521.71 1867.71 -421.383 -0.414467 0.785913 -0.0834581 0.451213 
3283 2 -521.506 1918.7 -367.288 0.359545 -0.579241 -0.643639 0.347759 
3284 2 -530.197 1918.4 -372.037 0.0133977 -0.791384 0.117292 0.599813 
3285 2 -539.419 1920.62 -375.011 -0.463015 -0.275212 0.692735 0.479576 
3298 2 -514.149 1873.69 -423.64 -0.689695 0.425326 -0.585502 0.024595 
3286 2 -548.548 1924.61 -376.165 -0.791965 0.31129 0.52203 -0.0580814 
3282 2 -512.201 1920.92 -364.889 0.616948 0.112503 -0.777184 0.051993 
3299 2 -505.566 1878.82 -424.644 -0.477458 -0.100644 -0.671105 -0.558142 
3300 2 -498.944 1886.17 -423.361 0.169708 -0.540989 -0.394131 -0.723319 
3301 2 -492.644 1893.85 -423.323 0.694344 -0.578639 0.301933 -0.303151 
3302 2 -485.516 1900.61 -421.617 0.624482 -0.280977 0.651338 0.326852 
3303 2 -479.22 1908.3 -421.42 0.103659 0.268908 0.511104 0.809763 
3304 2 -473.262 1915.56 -418.239 -0.551163 0.630374 -0.0593147 0.543441 
3305 2 -465.753 1921.6 -416.372 -0.698578 0.471687 -0.526179 -0.112413 
3281 2 -502.72 1921.44 -361.762 0.349543 0.665506 -0.502185 -0.427472 
3261 2 -419.928 1856.03 -370.302 -0.223648 -0.27429 -0.934972 -0.023969 
3260 2 -424.48 1857.39 -361.619 -0.179599 0.531897 -0.805858 0.188208 
3358 2 -514.047 2008.36 -508.067 -0.271092 -0.871599 0.27026 0.306242 
3287 2 -556.864 1929.39 -373.319 -0.468776 0.533927 0.0463224 -0.702158 
3338 2 -555.734 2046.59 -373.273 0.554227 0.637751 -0.510286 -0.160357 
3339 2 -563.823 2041.76 -376.439 0.361452 0.0113508 -0.900435 0.241745 
3340 2 -570.858 2036.78 -381.51 0.153838 -0.71698 -0.458346 0.502187 
3344 3 -552.041 2061.78 -414.603 -0.674897 0.366472 -0.485239 0.418037 
3337 2 -546.213 2048 -371.091 -0.0451267 0.758179 0.277209 -0.588458 
3341 2 -579.53 2034 -385.636 -0.280805 -0.884424 0.144111 0.343764 
3336 2 -536.543 2048.67 -369.879 -0.619565 0.14558 0.757474 -0.145529 
3342 2 -586.492 2030.47 -391.55 -0.431078 -0.43336 0.791302 0.0145434 
3349 2 -530.396 2069.96 -458.688 -0.185535 0.401594 -0.745855 0.497995 
3335 2 -527.122 2046.19 -371.194 -0.51934 -0.348805 0.54492 0.558287 
3348 2 -537.596 2075.71 -455.193 0.279781 0.826602 -0.181394 0.453373 
3343 1 -584.297 2060.03 -428.242 -0.691696 0.358152 -0.424289 0.461804 
3350 2 -524.263 2063.62 -463.237 -0.389371 -0.391913 -0.806722 0.209748 
3334 2 -519.017 2044.61 -376.591 0.217742 -0.440739 0.00246064 0.870822 
3288 2 -564.916 1933.67 -369.449 0.233064 0.366947 -0.37433 -0.81909 
3351 2 -519.175 2057.4 -469.079 -0.367725 -0.872123 -0.262866 -0.187299 
3352 2 -514.173 2052.47 -476.195 -0.135906 -0.630829 0.63764 -0.420713 
3376 2 -493.077 1930.03 -510.766 0.75103 -0.558834 0.024058 0.350827 
3306 2 -459.609 1929.32 -415.803 -0.328149 -0.149372 -0.641496 -0.677118 
3378 2 -492.407 1947.51 -503.891 -0.295236 0.499044 0.49686 0.645694 
3379 2 -488.752 1956.76 -502.894 -0.576384 0.815004 -0.059529 -0.0025636 
3377 2 -495.829 1938.96 -507.216 0.396397 -0.0457347 0.593302 0.699121 
3382 2 -478.701 1982.42 -512.596 0.495678 -0.860269 -0.0663253 -0.0992088 
3307 2 -453.215 1936.86 -414.648 0.39874 -0.605048 -0.209166 -0.656638 
3357 2 -509.189 2013.42 -501.064 0.00823942 -0.607016 -0.646141 0.462564 
3356 2 -506.064 2021.36 -496.049 0.282869 0.180075 -0.84147 0.423658 
3381 2 -483.54 1974.82 -508.648 0.0225541 -0.456149 -0.700426 -0.548474 
3380 2 -487.914 1966.36 -505.556 -0.487389 0.33876 -0.7356 -0.326475 
3355 2 -503.891 2030.56 -492.972 0.542877 0.74868 -0.35657 0.132743 
3353 2 -509.999 2046.02 -482.611 0.19538 0.0730652 0.899131 -0.384775 
3354 2 -506.2 2038.91 -488.431 0.491471 0.720595 0.471408 -0.130283 
3308 2 -447.085 1944.53 -413.563 0.721856 -0.602492 0.325599 -0.0995608 
3333 2 -509.926 2045 -380.35 0.764714 -0.200521 -0.527138 0.311655 
3309 2 -441.345 1952.55 -413.189 0.578961 0.126585 0.621885 0.511897 
3310 2 -433.255 1958.18 -412.258 0.0552013 0.717718 0.420942 0.551943 
3332 2 -501.323 2047.81 -384.383 0.720252 0.434622 -0.318134 -0.437185 
3311 2 -424.82 1961.52 -416.079 -0.424792 0.779279 -0.340943 0.309893 
3331 2 -492.407 2051.11 -386.417 0.174385 0.662337 0.126549 -0.717555 
3312 2 -417.3 1966.17 -420.509 -0.432516 0.132338 -0.888258 -0.0800837 
3313 2 -409.485 1969.48 -425.345 -0.450975 -0.543867 -0.501133 -0.499695 
3314 2 -399.7 1970.9 -425.937 -0.0172907 -0.658746 0.0354583 -0.75133 
3317 3 -400.415 2020.71 -420.414 0.50261 0.11551 -0.816822 -0.258538 
3330 2 -482.822 2053.62 -387.176 -0.576599 0.288679 0.587653 -0.488735 
3329 2 -473.453 2055.12 -389.998 -0.755872 -0.230032 0.582414 0.191145 
3328 2 -464.346 2056.04 -393.676 -0.272233 -0.503374 0.174271 0.801332 
3327 2 -455.438 2053.4 -397.459 0.556055 -0.489316 -0.211053 0.637832 
3326 2 -446.161 2054.32 -400.846 0.780576 -0.0838628 -0.593189 0.17831 
3325 2 -436.426 2052.16 -401.339 0.476476 0.468175 -0.539828 -0.512219 
3324 2 -426.516 2052.38 -401.88 -0.054938 0.716937 0.0194305 -0.694698 
3323 2 -416.84 2052.23 -399.784 -0.532498 0.376152 0.687527 -0.319785 
3322 2 -407.322 2051.33 -397.309 -0.518519 -0.338351 0.750555 0.230918 
3391 2 -479.836 2064.29 -508.816 -0.158499 0.0667337 0.0866977 0.981279 
3321 2 -397.788 2053.51 -397.838 -0.416799 -0.624979 0.215213 0.62399 
3320 2 -388.036 2055.18 -398.164 0.363255 -0.489888 -0.43255 0.664045 
3319 2 -378.159 2056.52 -398.162 0.717859 0.0475476 -0.687323 0.100023 
3315 2 -389.911 1969.98 -424.452 0.53372 -0.398642 0.513774 -0.540615 
3392 2 -479.089 2066.54 -499.115 -0.856438 0.177377 -0.0823972 0.477768 
3318 2 -368.476 2055.85 -399.647 0.375889 0.493488 -0.380832 -0.685671 
3316 1 -370.054 2009.31 -407.478 0.518437 0.0912087 -0.803447 -0.278168 
3393 2 -476.21 2068.83 -489.82 -0.902152 0.0522566 -0.222835 -0.3657 
3394 2 -472.277 2070.98 -481.222 -0.109114 -0.18088 -0.276813 -0.937417 
3395 2 -469.029 2076.33 -473.588 0.705432 -0.379252 -0.0159196 -0.598565 
3479 3 -700.612 2145.97 -507.69 0.881785 0.376703 0.20492 0.196363 
3480 2 -742.606 2175.79 -499.928 -0.853279 0.0472678 -0.506401 0.115055 
3481 2 -733.809 2175.47 -495.449 -0.695787 -0.291511 -0.282666 -0.592455 
3482 2 -726.132 2174.23 -489.16 0.0981928 -0.344202 -0.147853 -0.921967 
3483 2 -720.525 2177 -481.514 0.753883 -0.336171 0.272953 -0.494112 
3484 2 -713.359 2179.63 -475.331 0.919476 0.0510133 0.311904 0.233833 
3485 2 -708.214 2179.28 -466.992 0.507543 0.205131 0.0299495 0.836316 
3486 2 -705.186 2177.43 -457.708 -0.325567 0.171307 -0.177464 0.91278 
3487 2 -700.639 2174.06 -449.426 -0.927273 -0.2009 -0.0812097 0.305302 
3488 2 -699.594 2169.93 -440.438 -0.849219 -0.2176 0.125299 -0.464519 
3489 2 -699.789 2165.77 -431.473 -0.144921 0.0212263 0.185189 -0.971726 
3490 2 -699.442 2161.86 -422.37 0.749136 -0.0589567 0.206052 -0.626787 
3491 2 -695.126 2160.62 -413.619 0.946955 0.128032 0.292658 0.0351475 
3492 2 -688.991 2159.4 -406.015 0.536107 0.423484 0.281594 0.673762 
3493 2 -680.341 2158.68 -401.524 -0.261354 0.439095 -0.25816 0.819904 
3494 2 -671.588 2157.8 -396.788 -0.743558 0.233109 -0.597971 0.187651 
3347 2 -544.511 2082.77 -454.801 0.686548 0.576856 0.435639 0.0781539 
3346 2 -553.27 2087.19 -453.796 0.567612 -0.0444956 0.750695 -0.335102 
3345 2 -562.178 2090.35 -456.811 0.20462 -0.521213 0.344852 -0.753356 
3417 2 -527.541 2181.32 -486.658 -0.515304 0.0244465 0.598249 0.613158 
3502 2 -595.992 2152.04 -388.361 -0.776487 -0.28186 -0.561819 0.0445275 
3501 2 -604.158 2156.29 -392.17 -0.396918 0.317485 -0.474807 0.718483 
3500 2 -613.529 2159.1 -393.847 0.0296552 0.614497 -0.178744 0.767831 
3497 2 -642.814 2159.15 -390.275 0.392268 -0.571926 0.408332 -0.593541 
3499 2 -623.134 2160.31 -392.084 0.430607 0.611481 0.437918 0.498895 
3495 2 -661.905 2159.28 -395.355 -0.679138 -0.355697 -0.491401 -0.413251 
3496 2 -652.502 2158.75 -392.507 -0.183182 -0.589376 -0.203745 -0.759979 
3498 2 -632.945 2159.11 -390.348 0.651255 0.0462153 0.745851 0.132054 
3503 2 -588.147 2146.72 -385.75 -0.550073 -0.53182 -0.140905 -0.628278 
3504 2 -579.605 2143.03 -381.947 0.0325818 -0.494461 0.277973 -0.822908 
3422 2 -553.636 2221.26 -481.736 0.867239 -0.462638 0.0348373 0.180689 
3421 2 -551.149 2211.82 -483.046 0.552285 -0.415156 -0.567889 -0.447358 
3420 2 -546.865 2202.95 -483.38 0.130861 0.202794 -0.671906 -0.700209 
3419 2 -540.519 2195.33 -482.761 -0.39658 0.697921 -0.17346 -0.570563 
3418 2 -533.104 2189.08 -484.288 -0.708556 0.531594 0.448638 -0.118661 
3416 2 -525.28 2171.79 -488.747 0.259033 -0.37315 0.543552 0.705841 
3415 2 -521.516 2164.01 -493.75 0.789099 -0.529159 -0.0539501 0.307249 
3423 2 -554.653 2229.24 -476.03 0.399544 -0.241721 0.364966 0.805441 
3414 2 -519.186 2157.71 -500.867 0.789608 -0.2316 -0.274041 -0.497776 
3398 3 -448.487 2098.7 -512.7 -0.429862 0.446305 0.780391 -0.083788 
3413 2 -513.532 2156.31 -508.876 0.191169 0.249365 -0.137494 -0.939344 
3396 2 -464.166 2081.37 -466.468 0.925866 -0.252411 0.275469 0.0563663 
3397 1 -423.893 2090.77 -489.067 -0.446065 0.430716 0.77215 -0.138905 
3690 2 -706.382 2517.25 -419.697 -0.611836 0.0840644 0.708561 0.341368 
3689 2 -698.349 2512.08 -417.197 -0.058869 -0.58651 0.546391 0.594977 
3688 2 -690.643 2506.31 -414.959 0.461264 -0.767424 -0.142022 0.422049 
3691 2 -714.368 2522.93 -420.658 -0.778966 0.468761 0.354811 -0.218137 
3687 2 -683.265 2501.29 -410.892 0.559059 -0.395283 -0.728558 -0.0202057 
3686 2 -674.867 2500.72 -405.715 0.463031 0.261636 -0.822404 -0.201992 
3692 2 -721.608 2528.99 -417.686 -0.321491 0.358724 -0.163175 -0.861008 
3685 2 -666.531 2498.37 -400.832 0.101951 0.775462 -0.383842 -0.490845 
3693 2 -726.809 2533.93 -410.811 0.639861 0.0104007 -0.375028 -0.670689 
3713 2 -597.165 2532.72 -508.272 0.082388 -0.913462 0.398496 6.28988e-05 
3684 2 -658.939 2494.28 -395.891 -0.348506 0.807386 0.280165 -0.384939 
3683 2 -652.08 2490.13 -390.212 -0.468555 0.349229 0.811469 -0.00356963 
3681 2 -641.39 2478.64 -378.687 0.191131 -0.884356 0.139459 0.402411 
3682 2 -648.233 2483.01 -384.474 -0.0559023 -0.363218 0.78636 0.496574 
3646 2 -548.977 2495.4 -443.424 -0.269233 -0.425373 0.416422 0.757076 
3647 2 -557.301 2499.94 -440.366 -0.870567 0.121646 0.423512 0.21898 
3645 2 -541.083 2489.43 -444.493 0.430998 -0.671492 0.0170155 0.602536 
3648 2 -563.646 2505.09 -434.985 -0.792816 0.393625 0.0864789 -0.457191 
3649 2 -569.27 2509.82 -428.489 -0.0936555 0.385526 -0.151679 -0.905313 
3644 2 -532.175 2485.62 -446.928 0.790244 -0.328174 -0.503924 0.117801 
3643 2 -523.888 2481.35 -450.298 0.679339 0.0799628 -0.575838 -0.447788 
3650 2 -575.681 2513.28 -421.779 0.618605 0.151683 -0.498063 -0.588433 
3651 2 -583.721 2517.72 -418.381 0.811332 -0.355887 -0.463478 -0.0165155 
3652 2 -591.472 2523.02 -415.028 0.362914 -0.541807 0.0254216 0.757689 
3653 2 -599.624 2526.75 -410.653 -0.516012 -0.443263 0.266387 0.682852 
3654 2 -608.044 2525.24 -405.61 -0.967045 0.0178197 0.246485 -0.0612515 
3655 2 -612.971 2524.65 -397.137 -0.544485 0.194964 0.240592 -0.779513 
3641 3 -536.749 2478.41 -406.016 -0.606794 0.32611 0.561939 -0.457907 
3656 2 -618.595 2524.06 -389.117 0.0952537 0.431327 -0.0871549 -0.89291 
3680 2 -637.074 2474.64 -370.658 0.281953 -0.767685 -0.565828 0.10488 
3657 2 -626.356 2525.11 -383.056 0.625591 0.179506 -0.584841 -0.484123 
3658 2 -635.237 2528.2 -380.033 0.820621 -0.322285 -0.415354 0.224041 
3679 2 -633.073 2469.21 -363.386 0.242189 -0.0610093 -0.936204 -0.247273 
3659 2 -643.19 2531.35 -374.972 0.400217 -0.416113 0.0076293 0.816467 
3660 2 -649.359 2534.31 -367.987 -0.42197 -0.425963 0.136967 0.788503 
3712 2 -599.678 2535.56 -499.092 -0.19131 -0.851056 -0.486076 -0.0532306 
3642 2 -517.732 2474.68 -454.235 -0.158353 0.496263 -0.306256 -0.796778 
3637 2 -521.4 2475.45 -362.726 0.426839 -0.756348 -0.156934 -0.470232 
3636 2 -528.642 2469.02 -364.199 -0.161299 -0.414078 -0.499687 -0.743529 
3661 2 -656.977 2532.68 -361.876 -0.862512 0.023399 0.425324 0.273176 
3635 2 -537.046 2464.07 -362.306 -0.585802 0.190849 -0.764358 -0.190182 
3638 2 -515.303 2482.98 -364.783 0.707468 -0.523765 0.471879 -0.0499 