ITEM: TIMESTEP
100000000
ITEM: NUMBER OF ATOMS
4067
ITEM: BOX BOUNDS pp pp pp
-4.6310929470000001e+03 4.6704658980000004e+03
-4.6310929470000001e+03 4.6704658980000004e+03
-4.6310929470000001e+03 4.6704658980000004e+03
ITEM: ATOMS id type x y z c_q[1] c_q[2] c_q[3] c_q[4] 
3855 2 -671.821 2760.68 -840.15 -0.0266896 -0.451324 -0.506545 0.734171 
3854 2 -665.642 2768.47 -840.963 0.592843 0.170002 -0.652287 0.440634 
3853 2 -658.322 2774.97 -841.883 0.687328 0.592522 -0.342555 -0.243214 
3852 2 -651.625 2780.77 -846.168 0.232163 0.482477 0.212529 -0.817403 
3857 3 -621.564 2763.5 -826.872 -0.228919 0.392899 0.493548 0.741375 
3856 1 -635.026 2731.92 -833.658 -0.267108 0.423051 0.513952 0.696803 
3848 2 -629.894 2811.1 -843.35 0.146003 -0.378451 -0.712344 0.572734 
3847 2 -625.239 2819.74 -843.087 0.645237 0.403839 -0.52782 0.376815 
3851 2 -645.992 2788.39 -848.859 -0.433693 0.044913 0.621599 -0.650775 
3850 2 -642 2797.28 -850.349 -0.755825 -0.552677 0.342185 -0.0786484 
3849 2 -635.399 2803.49 -846.405 -0.390266 -0.818366 -0.0728936 0.415518 
3846 2 -618.125 2826.71 -842.797 0.531502 0.730302 -0.113665 -0.413817 
3845 2 -613.07 2835.26 -842.046 0.157462 0.553779 0.491537 -0.653396 
3858 2 -590.191 2722.57 -822.271 0.422681 -0.110209 0.496868 0.749878 
3844 2 -607.005 2841.09 -837.051 -0.328968 0.0635344 0.866429 -0.370196 
3841 2 -592.807 2864.52 -826.088 0.103662 -0.278161 -0.824176 0.4823 
3840 2 -586.024 2871.09 -823.135 0.600966 0.496362 -0.617325 0.106654 
3839 2 -578.489 2876.98 -820.14 0.36263 0.797146 -0.0271085 -0.481999 
3837 2 -560.747 2885.55 -819.859 -0.66148 0.0141515 0.684699 -0.305664 
3836 2 -552.372 2889.64 -823.499 -0.734922 -0.436578 0.341704 0.390548 
3835 2 -544.217 2894.75 -825.877 -0.273092 -0.590748 -0.166059 0.740852 
3834 2 -537.44 2901.78 -826.923 0.374217 -0.157046 -0.64576 0.646754 
3842 2 -597.471 2857.16 -830.605 -0.32696 -0.825185 -0.21861 0.405434 
3833 2 -532.108 2909.93 -828.489 0.68569 0.441844 -0.503292 0.285133 
3843 2 -602.432 2849.27 -833.781 -0.554488 -0.642681 0.522744 -0.0790097 
3832 2 -526.374 2917.67 -830.915 0.541605 0.623698 0.0813957 -0.55771 
3831 2 -519.413 2923.91 -834.12 -0.218055 0.337096 0.458144 -0.793047 
3875 2 -697.886 2779.57 -746.692 -0.763483 0.101322 0.453329 -0.448688 
3876 2 -705.746 2777.45 -741.056 -0.263782 0.427092 0.299587 -0.811332 
3877 2 -713.715 2774.34 -736.33 0.418172 0.62812 -0.0340898 -0.655313 
3879 2 -728.517 2762.57 -730.53 0.569091 -0.100588 -0.580051 0.574072 
3874 2 -688.782 2780.09 -750.806 -0.727242 -0.294706 0.450745 0.425553 
3878 2 -721.774 2769.56 -732.801 0.798007 0.446917 -0.401871 -0.0441569 
3880 2 -735.694 2756.69 -727.002 -0.262183 -0.481679 -0.347373 0.760643 
3884 3 -714.856 2774.41 -699.391 -0.065208 0.148643 0.808584 0.565548 
3881 2 -740.394 2748.6 -723.908 -0.692074 -0.692225 0.193871 0.0653609 
3882 2 -744.188 2739.44 -724.113 -0.501343 -0.354181 0.637857 -0.465135 
3883 1 -716.128 2742 -686.23 -0.0579272 0.0724474 0.815805 0.57084 
3892 2 -703.56 2818.63 -691.904 0.275633 -0.140393 -0.914829 -0.259621 
3891 2 -701.349 2814.21 -683.321 -0.0330051 0.678475 -0.670463 -0.298432 
3873 2 -681.248 2776.53 -756.284 -0.0238669 -0.450135 0.224625 0.863917 
3893 2 -707.635 2824.55 -698.658 0.360886 -0.779969 -0.489365 0.148093 
3894 2 -712.674 2829.57 -705.481 0.269074 -0.71625 0.441207 0.468958 
3872 2 -672.374 2773.64 -759.331 0.594761 -0.543661 -0.276382 0.523741 
3895 2 -717.31 2837.09 -709.844 -0.271587 -0.0506202 0.913821 0.297673 
3890 2 -701.345 2807.06 -676.619 -0.354957 0.911103 0.204425 0.045904 
3889 2 -697.961 2800.51 -669.918 -0.345368 0.353063 0.845326 0.203694 
3859 2 -586.923 2730.95 -817.963 -0.325742 0.156113 0.382513 0.850414 
3860 2 -587.337 2738.46 -811.53 -0.899255 0.123617 0.122002 0.401465 
3861 2 -587.853 2742.09 -802.501 -0.799754 0.36376 0.0315016 -0.476529 
3862 2 -591.466 2747.05 -794.836 -0.0472374 0.244338 -0.182308 -0.951226 
3863 2 -595.783 2751.68 -787.249 0.602743 -0.0424109 -0.463773 -0.647933 
3864 2 -601.736 2757.5 -781.761 0.811574 -0.461161 -0.345978 0.0947514 
3871 2 -663.49 2773.29 -763.936 0.858794 -0.116172 -0.491347 0.0869222 
3865 2 -608.636 2763.32 -777.758 0.223739 -0.630255 -0.117905 0.734042 
3870 2 -655.201 2773.43 -769.184 0.662956 0.301506 -0.319385 -0.606281 
3869 2 -646.244 2771.19 -772.899 0.0732431 0.526463 -0.168669 -0.830074 
3868 2 -636.483 2772.23 -773.923 -0.404511 0.521736 0.451904 -0.599954 
3867 2 -627.192 2769.23 -775.121 -0.727051 0.139097 0.671464 0.0344198 
3866 2 -618.222 2765 -775.874 -0.365468 -0.391884 0.543838 0.645833 
3816 2 -515.421 2800.26 -751.048 -0.625874 0.663943 -0.139592 -0.384676 
3818 2 -520.97 2818.26 -753.207 0.235953 -0.346496 -0.701664 -0.576137 
3817 2 -518.024 2809.62 -749.651 -0.136634 0.439993 -0.706994 -0.536559 
3819 2 -521.222 2827.91 -755.428 0.613815 -0.748932 -0.217924 -0.121824 
3820 2 -522.115 2837.55 -758.006 0.361462 -0.683036 0.458299 0.439055 
3815 2 -510.078 2792.35 -753.543 -0.775641 0.450917 0.417164 0.145015 
3814 2 -504.413 2784.27 -752.822 -0.508682 0.0428369 0.683156 0.522212 
3813 2 -501.027 2775.26 -750.562 0.282735 -0.600007 0.505477 0.551856 
3804 2 -493.624 2690.86 -745.601 0.514665 -0.491814 -0.614752 -0.339586 
3812 2 -495.933 2766.86 -750.288 0.693034 -0.680043 -0.228763 0.0700942 
3811 2 -493.035 2757.39 -749.506 0.387443 -0.257447 -0.707615 -0.531874 
3810 2 -494.11 2747.67 -750.233 -0.197466 0.151395 -0.658163 -0.710569 
3809 2 -493.773 2737.94 -752.08 -0.5704 0.518419 -0.33803 -0.540021 
3807 2 -495.33 2718.32 -753.206 -0.38018 0.386772 0.569625 0.617575 
3808 2 -495.447 2728.29 -752.442 -0.691916 0.697276 -0.0147343 0.18666 
3806 2 -496.772 2708.64 -752.519 0.295847 -0.216352 0.722174 0.586627 
3805 2 -495.953 2700.2 -747.636 0.493008 -0.822267 0.217517 0.183046 
3802 1 -468.924 2694.69 -705.605 -0.668504 0.732367 0.0172967 -0.128229 
3803 3 -476.436 2727.92 -713.537 -0.634069 0.748489 -0.124266 -0.149259 
3796 2 -469.956 2756.55 -674.576 0.486952 0.242997 0.827172 -0.140059 
3798 2 -456.518 2744.1 -681.37 0.271495 0.378844 -0.38653 0.79584 
3797 2 -462.193 2751.53 -678.387 0.535737 0.780678 0.26064 0.188666 
3799 2 -452.479 2736.22 -677.255 -0.419875 -0.166333 -0.552617 0.700466 
3795 2 -477.47 2761.72 -670.566 0.231653 -0.418149 0.740147 -0.472939 
3800 2 -450.635 2726.93 -674.111 -0.800607 -0.484167 -0.12782 0.329048 
3801 2 -451.155 2718.46 -669.077 -0.735555 -0.373472 0.282034 -0.489831 
3910 1 -825.649 2937.04 -759.112 -0.677138 0.0103558 -0.700656 0.224627 
3909 2 -820.102 2890.17 -758.069 -0.523015 0.244623 0.805822 -0.131396 
3966 2 -896.855 2841.28 -669.106 0.791868 0.346417 0.441674 0.240552 
3908 2 -811.049 2890.44 -753.978 -0.426112 -0.54049 0.629962 0.359787 
3896 2 -722.709 2842.63 -716.076 -0.354206 0.766769 0.535229 -0.0115684 
3897 2 -726.269 2848.64 -723.089 -0.297329 0.871768 -0.149932 -0.359355 
3898 2 -731.964 2854.81 -728.498 0.191678 0.47718 -0.79833 -0.313415 
3907 2 -801.356 2890.27 -751.838 0.140404 -0.769055 -0.196414 0.59183 
3899 2 -738.353 2858.29 -735.237 0.488285 -0.22931 -0.834763 -0.110295 
3900 2 -746.209 2862.73 -739.533 0.416053 -0.704092 -0.144551 0.557009 
3911 3 -790.915 2933.13 -761.955 -0.720228 0.0445842 -0.65873 0.212976 
3906 2 -791.748 2889.27 -749.776 0.636912 -0.305794 -0.689048 0.161391 
3905 2 -782.614 2892.04 -747.242 0.513765 0.520725 -0.605875 -0.312741 
3904 2 -773.343 2889.51 -744.655 -0.0582425 0.782043 -0.1064 -0.611307 
3903 2 -767.223 2881.79 -743.259 -0.68458 0.600615 0.405542 -0.0784073 
3902 2 -762.609 2873.25 -741.964 -0.39871 0.177202 0.734143 0.520254 
3901 2 -755.085 2867.29 -739.926 -0.0822145 -0.580311 0.540677 0.603447 
3914 2 -792.375 2985.22 -752.316 0.846696 -0.236689 0.448466 -0.161131 
3913 2 -801.7 2982.62 -754.761 0.460365 -0.583924 0.240696 -0.623829 
3912 2 -809.717 2981.45 -760.483 -0.19161 -0.47013 -0.152138 -0.848008 
3915 2 -784.156 2987.56 -747.506 0.698679 0.0872435 0.291503 0.647504 
3924 2 -748.494 2983.5 -670.056 -0.546588 -0.164986 -0.244194 0.783831 
3916 2 -778.455 2990.85 -740.036 -0.0658048 0.364604 -0.0176065 0.928668 
3923 2 -749.317 2986.23 -679.488 0.18417 0.128382 -0.13004 0.965758 
3918 2 -766.801 2990.04 -724.498 -0.910804 -0.062251 -0.23401 -0.334366 
3917 2 -771.692 2991.35 -733.034 -0.799741 0.0529603 -0.24157 0.547041 
3919 2 -761.929 2990.37 -716.016 -0.422287 -0.159912 -0.10636 -0.885884 
3921 2 -756.748 2989.36 -697.116 0.918266 -0.103319 0.147426 -0.352673 
3922 2 -753.062 2989.67 -688.001 0.832056 0.271345 0.0420134 0.481965 
3920 2 -758.485 2990.66 -706.753 0.332153 -0.0919745 0.0699255 -0.936122 
3838 2 -569.525 2880.98 -818.899 -0.150991 0.554292 0.461128 -0.676257 
3821 2 -524.439 2845.98 -762.575 0.00412678 -0.129461 0.798087 0.588456 
3822 2 -525.865 2855.39 -765.455 -0.353179 0.530494 0.543949 0.545858 
3830 3 -520.692 2891.43 -793.561 0.380467 0.000280978 -0.766646 0.517203 
3823 2 -524.113 2864.95 -766.849 -0.77294 0.605215 -0.0282161 0.188368 
3824 2 -520.58 2873.89 -764.218 -0.685895 0.297502 -0.432269 -0.504167 
3825 2 -516.616 2881.45 -759.127 -0.131402 -0.304295 -0.384815 -0.861426 
3826 2 -510.306 2887.74 -754.675 0.551292 -0.579996 0.0327574 -0.598839 
3827 2 -503.27 2893.71 -751.194 0.806343 -0.368136 0.453157 0.0945303 
3828 2 -496.538 2900.43 -748.301 0.454556 0.112377 0.568505 0.676426 
3829 1 -503.211 2921.54 -789.892 0.392045 -0.00512465 -0.753504 0.527737 
3396 2 -490.406 2272.47 -514.377 0.353508 -0.775878 -0.451692 -0.262717 
3975 2 -842.056 2803.23 -616.945 -0.399822 -0.00867254 -0.486501 0.776778 
3974 2 -844.444 2809.98 -623.823 0.438334 0.226291 -0.304384 0.814866 
3973 2 -850.675 2815.08 -629.409 0.888833 0.322407 0.265131 0.189037 
3972 2 -858.956 2817.91 -633.937 0.721627 -0.188182 0.465044 -0.477049 
3971 2 -865.656 2824.05 -637.695 -0.0503328 -0.442632 0.338289 -0.828918 
3970 2 -871.296 2829.6 -643.709 -0.79769 -0.44898 -0.13283 -0.380083 
3969 2 -875.837 2833.33 -651.679 -0.864453 -0.0815854 -0.308 0.388846 
3968 2 -881.003 2835.03 -659.885 -0.410642 0.217321 -0.195787 0.863604 
3967 2 -888.104 2838.34 -665.884 0.3202 0.449036 -0.0271385 0.833728 
3976 2 -838.107 2795.44 -612.264 -0.909876 -0.314902 -0.255635 0.0872486 
3977 2 -834.874 2789.11 -605.345 -0.664655 -0.388618 0.209882 -0.602627 
3978 2 -831.723 2782.51 -598.468 0.144281 -0.243226 0.180163 -0.942107 
3979 2 -827.243 2780.5 -589.823 0.826966 -0.150216 0.14386 -0.522366 
3980 2 -822.789 2782.69 -581.258 0.815073 0.0268152 0.255259 0.519403 
3981 2 -819.096 2784.16 -572.223 -0.0586851 0.107722 0.20909 0.970172 
3982 2 -817.421 2788.88 -563.687 -0.673781 0.381944 0.0701885 0.628659 
3888 2 -693.684 2792.26 -666.469 -0.127381 -0.265167 0.79154 0.535654 
3887 2 -692.554 2783.21 -662.45 0.399358 -0.741783 0.430736 0.323633 
3886 2 -690.445 2774.09 -658.987 0.562861 -0.78099 -0.268572 -0.0333161 
3983 2 -813.825 2795.17 -556.924 -0.941317 0.158838 -0.278919 -0.104388 
3984 2 -809.156 2799.06 -549.104 -0.521948 -0.172164 -0.217638 -0.806575 
3885 2 -689.605 2765.31 -654.925 0.235303 -0.317722 -0.760706 -0.514792 
3985 2 -804.694 2800.22 -540.439 0.363045 -0.323298 -0.0469175 -0.872626 
3750 2 -729.547 2729.72 -533.428 -0.689592 0.532259 -0.307036 0.383266 
3751 2 -720.773 2733.7 -531.223 -0.611489 0.269681 -0.717506 -0.196312 
3752 2 -712.923 2739.75 -532.082 -0.223349 -0.39923 -0.665905 -0.589322 
3753 2 -705.241 2745.59 -534.178 0.354622 -0.757627 0.0663629 -0.543912 
3754 2 -696.613 2750.33 -535.777 0.552502 -0.451188 0.699716 0.0396076 
3755 2 -689.247 2756.19 -538.963 0.121712 0.187271 0.799035 0.558263 
3756 2 -685.241 2764.26 -542.917 -0.329788 0.850799 0.126903 0.388942 
3986 2 -799.93 2802.78 -532.084 0.924446 -0.19325 0.0135224 -0.328436 
3987 2 -797.579 2806.36 -523.1 0.799992 -0.0286956 0.105913 0.589892 
3757 2 -679.624 2770.69 -547.812 -0.459381 0.676581 -0.575456 0.00756911 
3758 2 -674.154 2776.21 -554.132 -0.454378 -0.171317 -0.814444 -0.317605 
3759 2 -666.086 2780.55 -557.725 0.00905806 -0.694043 -0.600712 -0.396695 
3760 2 -660.424 2785.41 -564.35 0.22105 -0.932108 0.115602 -0.262579 
3761 2 -655.796 2789.81 -571.925 0.348349 -0.379141 0.857266 -0.000891969 
3762 2 -650.432 2792.92 -579.706 0.133493 0.315195 0.859973 0.378521 
3763 2 -645.4 2798.3 -586.211 0.0524079 0.812353 0.385944 0.434032 
3764 2 -638.227 2801.51 -592.114 -0.520874 0.802838 -0.283989 0.0590906 
3784 2 -527.969 2809.34 -593.337 0.234187 0.893235 -0.307551 0.229566 
3785 2 -525.898 2803.46 -601.037 -0.0734631 0.268211 -0.891652 0.357242 
3783 2 -529.441 2814.49 -584.998 0.284159 0.821096 0.489779 -0.0719105 
3786 2 -523.374 2797.29 -608.319 -0.299407 -0.639973 -0.703746 0.0743802 
3787 2 -520.82 2792.37 -616.491 -0.0605172 -0.974284 0.121874 -0.179598 
3782 2 -530.016 2822.84 -579.765 0.139704 0.232494 0.848602 -0.454208 
3765 2 -633.776 2809.55 -595.439 -0.456622 0.303641 -0.770675 -0.32459 
3766 2 -628.896 2816.78 -600.067 -0.0845053 -0.549758 -0.643939 -0.525327 
3767 2 -622.486 2823.28 -604.135 0.519132 -0.749021 -0.0502112 -0.408593 
3781 2 -529.452 2830.94 -573.899 -0.279743 -0.474987 0.753113 -0.3591 
3780 2 -528.402 2838.83 -568.154 -0.410579 -0.911653 -0.00726342 0.0161806 
3768 2 -617.826 2831.95 -604.788 0.742318 -0.423518 0.426598 0.295991 
3788 2 -516.881 2790.19 -625.347 0.178687 -0.510412 0.817264 -0.199073 
3769 2 -613.392 2840.59 -602.937 0.110305 0.0504491 0.706962 0.696773 
3789 2 -512.782 2788.8 -634.331 0.345603 0.383767 0.847626 -0.1217 
3794 2 -485.038 2764.45 -664.694 -0.119418 -0.865435 0.170318 -0.4558 
3790 2 -508.417 2784.57 -642.234 0.210612 0.916303 0.229088 0.25209 
3791 2 -501.949 2782.34 -649.406 0.0245438 0.726003 -0.573651 0.378472 
3792 2 -497.73 2777.13 -656.787 -0.26494 0.126439 -0.818378 0.494043 
3793 2 -492.162 2770 -660.771 -0.571105 -0.58434 -0.57445 -0.0489249 
3964 1 -906.036 2884.06 -651.26 0.102402 0.527753 -0.110881 0.83588 
3963 2 -895.374 2922.48 -626.126 0.559847 -0.621925 -0.340092 0.429089 
3962 2 -885.961 2919.29 -625.938 0.662343 -0.0779797 -0.726721 -0.164612 
3961 2 -876.284 2918.17 -624.396 0.317607 0.634489 -0.425034 -0.562046 
3960 2 -866.266 2919.01 -624.72 -0.192837 0.662 0.231826 -0.686168 
3959 2 -857.19 2922.67 -626.664 -0.594779 0.164541 0.613847 -0.492297 
3965 3 -875.805 2875.28 -635.916 0.0889196 0.552696 -0.156753 0.813664 
3958 2 -847.762 2925.56 -625.421 -0.666506 -0.412352 0.56656 0.254452 
3957 2 -839.427 2929.34 -621.696 -0.177965 -0.818611 -0.0994972 0.536941 
3956 2 -830.324 2932.71 -619.43 0.289797 -0.450954 -0.634195 0.557185 
4005 2 -830.456 2882.38 -530.288 0.559044 0.369954 -0.699673 -0.247107 
4006 2 -840.102 2882.53 -532.203 0.630847 -0.256751 -0.686582 0.254394 
4007 2 -849.953 2882.18 -533.332 0.136661 -0.680378 -0.0652511 0.717044 
4008 2 -859.827 2882.36 -532.704 -0.446489 -0.317603 0.379022 0.745733 
3955 2 -822.224 2935.63 -614.749 0.489209 0.323146 -0.810093 0.000236939 
4009 2 -867.601 2886.11 -528.093 -0.762682 0.227249 0.578682 0.178329 
4010 2 -874.971 2892.25 -525.76 -0.580678 0.503543 0.192451 -0.610099 
4011 2 -883.735 2895.63 -522.425 0.0936618 0.586395 -0.201936 -0.778839 
4004 2 -820.831 2883.95 -528.578 0.142903 0.764431 -0.10668 -0.61955 
4013 2 -902.114 2899.57 -516.407 0.688852 -0.26492 -0.588602 0.329923 
4012 2 -892.901 2898.07 -519.705 0.663339 0.251737 -0.472058 -0.523232 
4014 2 -911.771 2898.64 -514.577 0.226292 -0.651593 -0.0900722 0.718405 
3992 3 -774.632 2846.16 -517.016 -0.309972 0.299812 0.890239 0.146644 
4003 2 -811.158 2885.59 -528.515 -0.360905 0.561334 0.482573 -0.567253 
4002 2 -801.526 2887.85 -527.993 -0.709092 -0.214347 0.670972 0.0322576 
3954 2 -813.979 2937.44 -609.725 0.311283 0.74312 -0.449415 -0.385877 
3953 2 -806.626 2943.74 -607.881 0.163602 0.675598 0.394118 -0.601226 
3925 2 -749.053 2978.2 -661.726 -0.965133 -0.250166 -0.0743843 -0.0200418 
3952 2 -798.033 2947.57 -604.626 -0.506168 0.0829226 0.799936 -0.31148 
3926 2 -747.924 2973.26 -653.136 -0.615349 -0.316427 0.128432 -0.71044 
3951 2 -790.332 2952.04 -600.291 -0.479476 -0.643302 0.577525 0.150767 
3927 2 -744.866 2967.63 -645.661 0.149642 -0.244798 0.351696 -0.891062 
3928 2 -739.278 2962.17 -639.566 0.856356 0.0571678 0.424854 -0.2879 
3950 2 -782.527 2957.52 -597.465 -0.251524 -0.739498 -0.241289 0.575898 
3949 2 -775.51 2964.46 -597.057 0.365977 -0.146541 -0.706232 0.588068 
3948 2 -770.666 2973.14 -597.436 0.691997 0.53697 -0.429827 0.219208 
3929 2 -732.025 2958.68 -633.87 0.726397 0.484697 0.0853144 0.479728 
3930 2 -725.285 2953.37 -628.983 0.129009 0.525813 -0.268208 0.796832 
3931 2 -717.963 2947.65 -625.6 -0.497679 0.299317 -0.574366 0.576913 
3932 2 -708.822 2943.76 -624.487 -0.783123 -0.397381 -0.474075 0.0637168 
3933 2 -701.177 2938.31 -621.402 -0.465879 -0.608903 -0.199739 -0.610163 
3938 3 -710.538 2969.97 -601.717 0.512605 0.325489 -0.787747 -0.103671 
3947 2 -764.993 2981.15 -596.189 0.499146 0.75027 0.00689697 -0.433475 
3946 2 -758.057 2987.77 -598.323 -0.0474248 0.415322 0.454817 -0.786384 
3934 2 -691.964 2934.98 -620 0.344139 -0.383769 0.161419 -0.841566 
3935 2 -683.987 2934.33 -614.346 0.827296 -0.0548996 0.507102 -0.235401 
3937 1 -678.921 2974.17 -587.515 0.467779 0.420001 -0.771807 -0.0953732 
3999 2 -772.298 2891.36 -524.823 0.571145 -0.258622 -0.746779 0.221877 
4000 2 -782.003 2890.81 -527.125 0.269672 -0.65559 -0.287117 0.644238 
4001 2 -791.764 2889.72 -527.178 -0.348349 -0.691317 0.254324 0.579701 
3998 2 -762.946 2888.12 -524.66 0.566244 0.227724 -0.658983 -0.439604 
3936 2 -675.249 2932.85 -609.962 0.72596 0.33601 0.400001 0.447302 
3997 2 -753.338 2885.48 -524.697 0.0297345 0.675829 -0.269667 -0.685311 
3996 2 -745.734 2879.17 -523.113 -0.560006 0.710864 0.226497 -0.360228 
3995 2 -740.312 2871.83 -519.567 -0.5152 0.37922 0.721932 0.263772 
3994 2 -734.474 2865.86 -514.303 -0.140741 -0.441091 0.753977 0.465993 
3779 2 -528.518 2845.25 -560.727 -0.234734 -0.667303 -0.651365 0.274463 
3774 2 -595.939 2886.34 -605.42 0.525085 -0.72072 -0.187271 -0.412041 
3773 2 -599.86 2877.43 -603.924 -0.0166607 -0.278038 -0.696154 -0.661654 
3772 2 -602.928 2868.08 -603.86 -0.389104 0.194391 -0.678064 -0.592486 
3771 2 -608.264 2859.68 -603.145 -0.700502 0.618075 -0.353826 0.0456927 
3770 2 -611.196 2850.16 -603.86 -0.528632 0.549117 0.389378 0.517111 
3776 3 -566.811 2850.7 -581.125 0.484543 0.667583 0.360949 -0.435048 
3775 1 -558.835 2884.53 -576.343 0.477217 0.72996 0.298407 -0.387783 
3777 2 -526.695 2861.97 -550.148 0.508007 0.744995 -0.388795 0.189078 
3778 2 -527.271 2853.26 -555.039 0.121057 0.0684605 -0.912472 0.384778 
3945 2 -751.309 2994.92 -597.657 -0.570955 -0.113689 0.691512 -0.427664 
3944 2 -743.938 3001.02 -595.288 -0.556195 -0.673149 0.429875 0.22962 
3943 2 -737.8 3003.72 -587.982 -0.0422569 -0.877219 -0.252267 0.406279 
3942 2 -729.078 3005.73 -583.886 0.412485 -0.340298 -0.767295 0.353994 
3941 2 -720.738 3007.35 -578.842 0.489426 0.345428 -0.791162 -0.123307 
3940 2 -711.794 3008.85 -574.808 0.248909 0.790786 -0.299245 -0.472392 
3939 2 -702.933 3011.24 -570.903 -0.156449 0.702749 0.430893 -0.544058 
3233 2 -221.339 1702.31 -375.974 -0.41522 -0.106435 -0.728033 0.535007 
3232 2 -224.611 1711.44 -373.567 0.149009 0.469881 -0.648705 0.579819 
3230 2 -222.315 1729.79 -367.212 0.322086 0.64878 0.513399 -0.460181 
3231 2 -224.45 1721.04 -371.154 0.644603 0.756456 -0.099752 0.0480627 
3234 2 -216.606 1693.71 -377.186 -0.67334 -0.629317 -0.385804 0.0415724 
3343 1 -520.325 1905.22 -420.001 0.80299 -0.106944 0.535203 0.239433 
3342 2 -480.562 1883.99 -433.967 -0.421882 -0.786206 0.41154 0.185826 
3341 2 -473.802 1889.04 -428.579 -0.0389176 -0.755195 -0.46952 0.45576 
3340 2 -467.753 1893.56 -422.176 0.280121 -0.273013 -0.859452 0.329148 
3289 1 -416.031 1810.61 -383.522 -0.703962 -0.0151744 -0.328923 -0.629299 
3288 2 -373.082 1819.21 -401.021 -0.219461 0.717512 0.59307 -0.29203 
3339 2 -462.833 1897.31 -414.356 0.318989 0.499747 -0.801943 0.0733942 
3338 2 -459.064 1902.87 -407.252 0.347437 0.915716 -0.171029 -0.10724 
3337 2 -458.664 1909.93 -400.309 0.271363 0.680028 0.632423 -0.252913 
3336 2 -455.922 1913.88 -391.812 -0.159422 -0.0688535 0.969492 -0.172998 
3335 2 -453.707 1916.15 -382.36 -0.15368 -0.76071 0.628185 -0.0555578 
3334 2 -452.85 1919.83 -373.108 -0.138545 -0.984006 -0.0703358 0.087117 
3333 2 -449.191 1923.84 -364.828 0.0573839 -0.459776 -0.836629 0.292173 
3287 2 -366.253 1818.94 -393.712 -0.356802 0.156494 0.920299 -0.0353862 
3286 2 -362.395 1817.26 -384.646 -0.0880566 -0.587457 0.778997 0.200761 
3285 2 -359.081 1818.48 -375.446 -0.0547837 -0.972034 0.140674 0.17989 
3284 2 -355.378 1821.42 -366.614 -0.0207764 -0.725597 -0.638903 0.254717 
3345 2 -544.638 1939.53 -398.591 -0.621446 0.624081 -0.440373 0.174353 
3346 2 -537.601 1946.46 -400.328 -0.462073 0.164816 -0.796887 -0.352556 
3347 2 -530.603 1953 -403.003 0.0157895 -0.625494 -0.595357 -0.504041 
3348 2 -524.604 1958.91 -408.291 0.513639 -0.840919 0.155954 -0.0686216 
3349 2 -521.637 1967.7 -411.872 0.467777 -0.355073 0.739793 0.328351 
3350 2 -517.871 1975.88 -415.516 0.232663 0.34419 0.740815 0.52782 
3351 2 -512.681 1983.02 -420.112 -0.25363 0.859082 0.163775 0.413314 
3344 3 -495.196 1925.95 -407.11 0.795612 -0.173695 0.503606 0.288465 
3352 2 -507.216 1988.84 -425.982 -0.4183 0.725519 -0.54246 0.066209 
3353 2 -501.388 1994.77 -431.551 -0.394376 0.00631762 -0.907405 -0.145064 
3354 2 -494.56 1997.39 -438.122 -0.0471978 -0.537506 -0.594718 -0.595961 
3355 2 -487.558 2003.51 -441.454 0.437673 -0.624744 0.108509 -0.637467 
3356 2 -478.893 2008.06 -440.14 0.673387 -0.316766 0.650801 -0.150559 
3357 2 -469.562 2011.33 -440.447 0.461493 0.118867 0.75887 0.443859 
3358 2 -461.242 2016.67 -442.146 -0.219875 0.553668 0.360088 0.717944 
3359 2 -454.513 2023.89 -440.945 -0.623342 0.375458 -0.39529 0.560555 
3360 2 -445.392 2025.56 -437.175 -0.827487 -0.0906177 -0.510099 -0.216454 
3361 2 -436.567 2025.35 -432.67 -0.226802 -0.541177 -0.138002 -0.7979 
3362 2 -427.523 2025.64 -428.474 0.417311 -0.57534 0.396093 -0.581331 
3363 2 -417.724 2025.05 -427.819 0.616113 -0.0755952 0.783381 0.0316889 
3371 3 -410.777 2071.98 -438.35 -0.409527 -0.550295 0.722103 0.0896145 
3364 2 -408.263 2026.02 -430.265 0.383532 0.494167 0.501513 0.597651 
3365 2 -398.518 2027.82 -430.135 -0.206642 0.760454 -0.17674 0.589722 
3366 2 -389.01 2029.44 -432.261 -0.698559 0.402729 -0.577072 0.129663 
3367 2 -379.479 2032.11 -432.465 -0.34381 -0.353771 -0.644365 -0.584324 
3368 2 -371.452 2037.99 -433.153 0.338741 -0.730815 -0.329144 -0.492776 
3369 2 -366.194 2045.62 -436.557 0.545755 -0.788336 0.244767 -0.144105 
3370 1 -387.03 2081.9 -414.632 -0.435752 -0.519673 0.734714 0.0159925 
3372 2 -421.308 2113.93 -409.597 0.0370168 0.982994 0.0304468 -0.17727 
3373 2 -424.584 2112.8 -418.703 0.048735 0.660129 -0.729793 -0.171047 
3374 2 -426.514 2113.69 -428.397 0.146855 -0.0714916 -0.976378 -0.14145 
3375 2 -428.87 2115.73 -437.765 0.382484 -0.753663 -0.530623 -0.0643209 
3376 2 -431.682 2122.39 -444.293 0.463563 -0.80887 0.271467 0.239048 
3389 2 -478.663 2207.82 -509.95 0.619062 -0.515358 -0.511693 -0.298898 
3390 2 -481.435 2217.27 -511.195 0.639852 -0.706101 0.112518 0.281693 
3377 2 -432.499 2130.95 -449.069 0.022597 -0.530366 0.714368 0.455938 
3388 2 -478.091 2197.99 -509.519 -0.0203193 0.0380468 -0.717045 -0.695691 
3385 2 -469.251 2170.07 -505.262 -0.380665 0.222198 0.760497 0.47683 
3384 2 -465.271 2163.83 -498.783 0.143823 -0.609633 0.656608 0.420154 
3387 2 -476.359 2188.3 -508.954 -0.482886 0.540893 -0.466442 -0.506644 
3386 2 -472.219 2179.46 -507.231 -0.636969 0.716678 0.282295 -0.0308756 
3383 2 -460.558 2158.06 -492.332 0.428281 -0.870337 -0.167687 0.175982 
3382 2 -456.319 2153.72 -484.574 0.351473 -0.495845 -0.790753 -0.0728917 
3381 2 -451.09 2150.35 -476.898 0.254791 0.134739 -0.930125 -0.227582 
3380 2 -445.669 2148.04 -468.851 0.0648393 0.794576 -0.533941 -0.281696 
3379 2 -440.6 2143.78 -461.428 -0.266829 0.911116 0.241749 -0.200568 
3378 2 -436.323 2138.02 -454.682 -0.350724 0.367111 0.829053 0.234291 
3391 2 -484.165 2226.68 -511.517 0.126367 -0.234203 0.475878 0.838284 
3408 2 -505.937 2303.22 -371.639 -0.589264 -0.408523 -0.107839 0.688656 
3395 2 -491.079 2264.43 -508.723 0.0297739 -0.119527 -0.866067 -0.484515 
3394 2 -490.477 2254.88 -506.614 -0.46153 0.557098 -0.519181 -0.455064 
3392 2 -487.245 2235.26 -507.919 -0.329724 0.281289 0.588875 0.682191 
3393 2 -488.483 2245.07 -506.83 -0.695388 0.674842 0.230243 0.089517 
3399 2 -473.194 2330.38 -445.186 0.646701 0.0626633 -0.419595 0.63387 
3400 2 -478.231 2324.25 -439.202 -0.0832243 -0.165792 -0.233179 0.954576 
3401 2 -481.808 2320.73 -430.546 -0.763193 -0.19827 -0.110388 0.605012 
3397 1 -486.53 2309.32 -485.225 -0.831939 -0.451138 -0.259288 0.192673 
3402 2 -481.99 2316.01 -421.873 -0.897635 -0.216866 0.0182537 -0.383259 
3403 2 -481.686 2311.75 -412.907 -0.419467 0.0693274 0.281032 -0.860385 
3398 3 -472.386 2283.16 -466.782 -0.860409 -0.369344 -0.274553 0.218866 
3404 2 -485.609 2307.66 -404.781 0.273363 0.352239 0.0289594 -0.894629 
3405 2 -491.69 2305.75 -397.129 0.867636 0.061993 -0.164355 -0.465137 
3406 2 -496.367 2306.43 -388.508 0.914929 -0.0179222 -0.134328 0.380183 
3407 2 -500.164 2305.72 -379.416 0.277323 -0.196097 -0.171764 0.924735 
3409 2 -509.83 2296.76 -365.219 -0.873566 -0.279599 0.357636 -0.175511 
3667 1 -563.026 2653.87 -391.583 0.86627 -0.187313 0.229898 0.402042 
3669 2 -606.368 2672.26 -387.97 -0.690389 0.354234 0.13616 0.615907 
3670 2 -604.375 2677.92 -380.17 -0.91412 0.326959 -0.178159 -0.16044 
3671 2 -602.035 2684.86 -373.591 -0.475515 0.192902 -0.403733 -0.757413 
3668 3 -560.279 2675.26 -364.109 0.814236 -0.308071 0.180286 0.457831 
3666 2 -517.395 2651.02 -379.981 0.187175 0.680714 -0.687594 0.16973 
3664 2 -516.577 2663.87 -365.338 0.122978 0.204919 0.89824 -0.36885 
3665 2 -516.774 2656.09 -371.418 0.265201 0.917474 0.285064 -0.0815376 
4052 2 -840.979 2808.43 -419.562 -0.0600168 -0.607718 0.518297 0.598702 
4051 2 -833.068 2805.61 -414.277 0.227155 -0.851431 -0.145396 0.449806 
4050 2 -827.713 2802.45 -406.693 0.305902 -0.511159 -0.802272 0.0387344 
4053 2 -848.982 2813.59 -422.326 -0.573101 0.106811 0.716179 0.383711 
4049 2 -823.225 2796.92 -399.847 0.154869 0.297842 -0.845445 -0.415365 
4054 2 -855.539 2820.98 -422.813 -0.721143 0.587529 0.359824 -0.0727185 
4055 2 -861.574 2828.93 -422.901 -0.482915 0.567012 -0.144176 -0.651539 
4056 2 -867.643 2836.11 -420.128 0.0913989 0.157819 -0.45107 -0.873656 
4033 2 -823.235 2837.96 -480.61 -0.522939 -0.653729 -0.427606 -0.341066 
4032 2 -833.122 2838.35 -480.959 -0.703655 0.139001 -0.671127 0.18745 
4031 2 -842.987 2838.69 -478.871 -0.279545 0.686918 -0.382504 0.55108 
4030 2 -852.567 2840.35 -476.806 0.322566 0.713988 0.243174 0.571872 
3988 2 -795.892 2808.34 -513.604 0.152851 -0.0088436 -0.0918503 0.983932 
4048 2 -817.434 2791.32 -394.002 -0.188563 0.844893 -0.284902 -0.41162 
4047 2 -811.86 2787.41 -386.758 -0.3498 0.843429 0.365005 -0.181768 
4034 2 -814.354 2834.08 -481.76 -0.024787 -0.605566 0.280161 -0.744436 
4035 2 -805.158 2830.38 -481.486 0.449949 -0.119426 0.706221 -0.533419 
3989 2 -795.661 2806.86 -503.78 -0.675799 -0.056976 -0.211834 0.703688 
3749 3 -700.707 2753.21 -497.078 0.50949 -0.710785 0.348483 -0.33729 
3990 2 -793.949 2803.28 -494.798 -0.968188 -0.222874 -0.107207 -0.0380188 
3748 1 -728.368 2734.64 -486.536 0.493382 -0.736758 0.280032 -0.367891 
4046 3 -791.502 2795.23 -433.941 -0.00373557 -0.546986 0.693971 0.468185 
3744 2 -686.433 2761.93 -459.115 -0.83324 -0.228164 0.496562 -0.0841312 
3745 2 -694.111 2757 -455.185 -0.516905 0.321919 0.457987 -0.647631 
3746 2 -702.858 2754.74 -451.088 0.1735 0.499661 0.0510756 -0.847129 
3747 2 -711.067 2752.24 -446.308 0.799753 0.342419 -0.391471 -0.299825 
4040 2 -776.577 2795.65 -463.526 -0.787785 -0.451824 -0.417398 0.0320557 
4041 2 -770.555 2788.13 -460.783 -0.558623 -0.582715 -0.00977329 -0.590159 
4042 2 -764.163 2781.3 -457.362 0.223746 -0.430611 0.425749 -0.763708 
4043 2 -756.016 2776.17 -455.101 0.776496 -0.0966818 0.530164 -0.326547 
4044 2 -747.439 2773.66 -450.761 0.784679 0.339473 0.370723 0.362769 
4039 2 -781.794 2802.13 -469.022 -0.533852 -0.0115007 -0.508293 0.675653 
4045 1 -775.34 2772.67 -412.77 -0.00383383 -0.572772 0.657802 0.489096 
4038 2 -786.262 2809.1 -474.586 0.11556 0.246316 -0.374514 0.886405 
4037 2 -791.485 2816.57 -478.534 0.635837 0.572514 -0.0599547 0.514145 
4036 2 -797.184 2824.49 -480.271 0.73708 0.431774 0.499078 -0.14562 
3991 1 -754.947 2829.73 -492.977 -0.311241 0.245167 0.908155 0.13519 
3743 2 -677.506 2766.19 -459.114 -0.483325 -0.664314 0.193455 0.536339 
3742 2 -669.958 2771.19 -455.296 0.0807048 -0.63739 -0.522725 0.560339 
3732 2 -668.44 2769.79 -365.915 -0.107042 0.953482 0.248879 0.132188 
3733 2 -667.155 2772.95 -375.288 -0.275683 0.746743 -0.602291 -0.0601642 
3672 2 -600.94 2692.88 -367.963 0.227982 -0.186009 -0.341248 -0.892734 
3734 2 -665.063 2777.88 -383.559 -0.207689 -0.0639901 -0.964133 -0.152374 
3735 2 -660.366 2780.3 -392.16 -0.0730484 -0.75934 -0.646383 -0.0159746 
3741 2 -663.762 2773.07 -447.858 0.318523 0.0916154 -0.939505 0.0864913 
3736 2 -658.408 2779.19 -401.741 0.10402 -0.96902 0.223934 -0.00583409 
3740 2 -658.917 2776.38 -439.92 0.262848 0.793305 -0.531047 -0.139884 
3739 2 -657.468 2780.59 -431.2 0.209337 0.943125 0.230328 -0.116797 
3738 2 -658.302 2781.48 -421.515 0.0653284 0.430453 0.899784 -0.02883 
3737 2 -658.539 2780 -411.605 0.0627748 -0.428104 0.899273 0.0639828 
3720 2 -594.761 2768.46 -400.202 0.0917275 0.0991303 -0.979847 0.14717 
3719 2 -593.536 2771.24 -390.735 0.182595 0.818473 -0.544658 0.0103965 
3718 2 -593.72 2772.45 -380.892 0.0610394 0.931706 0.357544 -0.0189926 
3717 2 -594.096 2774.02 -371.22 0.0780985 0.322567 0.939506 -0.0847314 
3721 1 -611.803 2730.91 -377.253 0.306441 -0.222381 0.398184 0.835518 
3716 2 -593.793 2777.25 -361.867 -0.105555 -0.529549 0.832538 -0.123759 
4057 2 -870.903 2842.92 -413.872 0.706016 -0.257159 -0.177536 -0.635524 
4015 2 -921.552 2900.06 -513.234 -0.26627 -0.514482 0.300451 0.757719 