ITEM: TIMESTEP
100000000
ITEM: NUMBER OF ATOMS
4067
ITEM: BOX BOUNDS pp pp pp
-4.6310929470000001e+03 4.6704658980000004e+03
-4.6310929470000001e+03 4.6704658980000004e+03
-4.6310929470000001e+03 4.6704658980000004e+03
ITEM: ATOMS id type x y z c_q[1] c_q[2] c_q[3] c_q[4] 
3234 2 -391.869 1757.63 -614.767 -0.280318 -0.543875 0.658407 0.438317 
3233 2 -383.455 1754.96 -609.979 0.191245 -0.851834 -0.0631476 0.483546 
3232 2 -374.669 1751.86 -606.775 0.495432 -0.549988 -0.653869 0.156573 
3231 2 -364.825 1751.56 -606.091 0.654427 0.319789 -0.640751 -0.24269 
3223 2 -300.678 1720.06 -593.769 -0.0888279 0.749879 -0.428378 -0.496269 
3222 2 -296.413 1714.27 -586.86 -0.354988 0.877084 0.299369 -0.122819 
3216 2 -244.53 1716.33 -563.449 0.364051 0.757117 -0.457584 -0.291303 
3221 2 -288.09 1712.02 -582.035 -0.522564 0.184351 0.832383 -0.00894411 
3220 2 -278.478 1711.28 -579.261 -0.404646 -0.544238 0.630005 0.378365 
3219 2 -268.718 1710.58 -578.212 -0.171712 -0.735921 0.217186 0.617872 
3217 2 -251.518 1713.05 -569.645 0.442532 0.145897 -0.884118 0.0348611 
3218 2 -259.013 1710.84 -575.824 0.394702 -0.604666 -0.5437 0.427761 
3215 2 -237.673 1720.05 -557.286 0.0900439 0.834352 0.283802 -0.463903 
3214 2 -232.391 1724.48 -550.292 -0.184021 0.394572 0.824226 -0.362077 
3213 2 -228.752 1726.9 -541.429 -0.234749 -0.373132 0.897575 -0.00501021 
3224 2 -306.679 1726.48 -598.318 0.325391 0.150829 -0.817654 -0.450348 
3225 2 -312.855 1733.16 -602.087 0.500724 -0.636824 -0.573931 -0.119722 
3226 2 -317.487 1740.85 -606.429 0.285323 -0.757012 0.112475 0.576952 
3227 2 -325.706 1746.12 -607.677 -0.396869 -0.46096 0.562515 0.559989 
3228 2 -335.383 1748.27 -607.463 -0.738105 0.0259798 0.672443 -0.048446 
3229 2 -345.243 1748.36 -606.742 -0.430619 0.613599 0.345558 -0.564493 
3230 2 -355.127 1749.43 -606.365 0.0997779 0.661234 -0.294619 -0.682652 
3212 2 -222.626 1730.47 -534.482 -0.213562 -0.916291 0.0779714 0.329731 
3209 3 -257.787 1736.38 -515.508 -0.119514 -0.497035 -0.534707 0.672875 
3211 2 -214.272 1730.19 -529.186 0.356365 -0.661725 -0.565406 0.339764 
3210 2 -206.602 1733.71 -523.981 0.459336 0.0911147 -0.873267 0.134587 
3291 2 -523.968 1902.26 -534.616 -0.198823 -0.0480491 -0.950161 -0.235278 
3292 2 -519.99 1905.98 -542.919 0.043762 -0.851571 -0.40664 -0.327956 
3293 2 -515.365 1910.31 -550.513 0.476336 -0.690669 0.499067 -0.216823 
3294 2 -506.952 1913.95 -554.413 0.589297 0.0868402 0.758717 0.263698 
3295 2 -497.593 1916.4 -556.403 0.297952 0.693467 0.229844 0.61441 
3299 2 -461.587 1906.88 -547.339 0.0549996 -0.549072 0.0315985 -0.833365 
3298 2 -469.614 1910.32 -551.86 -0.655678 -0.417545 -0.191521 -0.599218 
3297 2 -478.833 1911.37 -555.169 -0.829932 0.0458356 -0.541493 0.126083 
3296 2 -487.881 1914.74 -556.696 -0.226916 0.473945 -0.44167 0.727195 
3304 2 -414.727 1906.05 -551.525 -0.620456 -0.0913176 -0.778547 0.0236684 
3305 2 -405.235 1904.32 -554.337 -0.337081 -0.602637 -0.5057 -0.517177 
3306 2 -395.711 1905.3 -557.04 0.0620355 -0.768314 0.284415 -0.570046 
3308 2 -377.218 1906.17 -561.191 0.430903 0.192808 0.731352 0.492211 
3307 2 -386.683 1903.31 -560.708 0.668983 -0.384969 0.6165 -0.155527 
3235 1 -385.055 1801.99 -629.473 0.967497 0.0352802 0.0964559 -0.231086 
3237 2 -371.972 1846.9 -623.092 0.779381 -0.180612 0.368094 -0.473762 
3300 2 -452.513 1906.7 -543.409 0.516931 -0.39253 0.685506 -0.329824 
3301 2 -442.748 1906.49 -545.195 0.471702 0.291444 0.738432 0.383764 
3302 2 -433.8 1908.89 -548.841 0.262972 0.69112 0.0400033 0.672011 
3303 2 -424.11 1906.77 -548.496 -0.283635 0.638005 -0.526593 0.484975 
3236 3 -380.311 1804.12 -594.796 0.95633 -0.0556862 0.127102 -0.257249 
3238 2 -364.988 1845.85 -616.116 0.932353 0.159413 0.208339 0.248796 
3309 2 -368.418 1910.5 -562.523 -0.0285273 0.805156 0.149001 0.573332 
3239 2 -360.142 1843.75 -607.749 0.352317 0.148155 0.0428273 0.923087 
3310 2 -358.997 1911.58 -565.648 -0.640386 0.455809 -0.560008 0.261791 
3240 2 -357.068 1842.66 -598.387 -0.502012 0.202117 -0.238494 0.806383 
3311 2 -349.622 1914.66 -566.326 -0.593399 -0.370867 -0.66237 -0.267583 
3312 2 -339.906 1914.26 -567.735 -0.190182 -0.696412 -0.126599 -0.680304 
3313 2 -330.053 1913.03 -567.062 0.398307 -0.494454 0.462925 -0.618521 
3250 2 -286.077 1842.07 -540.636 0.733797 -0.0441155 0.177286 -0.654343 
3249 2 -289.156 1839.62 -549.724 -0.111226 -0.125612 -0.118655 -0.978658 
3248 2 -293.832 1835.48 -557.432 -0.816763 0.103379 -0.328302 -0.463065 
3247 2 -302.762 1834.65 -561.743 -0.774272 0.26402 -0.47277 0.327544 
3246 2 -311.646 1834.05 -565.976 -0.0220421 0.555852 0.000751741 0.830989 
3241 2 -351.515 1840.05 -590.535 -0.934235 -0.103566 -0.335585 0.0621376 
3242 2 -345.651 1836.67 -583.295 -0.638394 -0.401435 -0.164129 -0.635896 
3243 2 -338.068 1833.44 -577.886 0.23744 -0.531916 0.226252 -0.780704 
3244 2 -328.642 1831.77 -575.176 0.751362 -0.274553 0.538804 -0.264131 
3245 2 -319.298 1832.53 -571.897 0.740718 0.183274 0.392263 0.51369 
3251 2 -282.659 1839.88 -531.706 0.915159 0.280608 0.28762 0.0319136 
3252 2 -276.811 1834.94 -525.391 0.512186 0.444045 0.254519 0.689717 
3314 2 -320.537 1911.14 -565.44 0.613723 -0.0810273 0.779104 0.0988733 
3315 2 -311.064 1913.26 -567.722 0.31424 0.561626 0.551988 0.530226 
3253 2 -268.295 1834.09 -520.378 -0.0974652 0.437472 -0.128342 0.884674 
3254 2 -260.458 1831.81 -514.659 -0.737261 0.273683 -0.307517 0.535702 
3290 3 -489.926 1941.06 -528.941 -0.237773 0.902938 -0.218066 0.283925 
3317 3 -347.824 1926.09 -533.342 0.611053 0.551754 -0.441017 -0.357332 
3316 1 -315.533 1938.61 -528.101 0.599398 0.549987 -0.494636 -0.305893 
3821 2 -698.579 2508.75 -525.779 0.199902 0.2782 0.938849 -0.0347328 
3822 2 -694.523 2506.67 -534.627 0.367643 0.843487 0.38273 0.082977 
3823 2 -690.26 2501.46 -542 -0.0489761 0.757641 -0.570179 0.31381 
3824 2 -685.408 2499.28 -550.432 -0.413889 -0.00330709 -0.908458 0.0582121 
3825 2 -677.988 2497.83 -556.691 -0.104545 -0.731016 -0.614021 -0.278683 
3826 2 -673.118 2499.1 -565.222 0.220837 -0.932449 0.237466 -0.159309 
3830 3 -713.791 2522.08 -571.462 -0.877077 0.0126941 0.19057 -0.440746 
3829 1 -703.873 2522.33 -604.938 -0.882797 0.00998027 0.156657 -0.442752 
3820 2 -702.958 2512.74 -517.642 0.0606467 -0.553051 0.773117 -0.304544 
3827 2 -669.391 2502.16 -573.977 0.217006 -0.309908 0.923913 0.0570098 
3831 2 -749.416 2534.49 -607.125 -0.607768 -0.10865 0.156063 -0.771011 
3832 2 -750.516 2530.37 -598.221 0.284918 -0.0132635 -0.103934 -0.952808 
3833 2 -750.375 2531.77 -588.415 0.90239 -0.135494 -0.114636 -0.392674 
3834 2 -752.62 2535.01 -579.357 0.825896 -0.199204 -0.0320778 0.526482 
3828 2 -665.964 2505.16 -582.717 0.0529875 0.633272 0.738177 0.226391 
3667 1 -592.755 2440.11 -547.426 -0.93848 0.229106 0.256417 -0.0318781 
3669 2 -613.543 2479.03 -564.059 0.926946 -0.0499337 -0.257664 -0.268117 
3670 2 -617.987 2480.69 -555.441 0.738014 -0.280839 -0.00297131 0.61356 
3671 2 -621.505 2484.5 -546.938 0.0440442 -0.196908 0.208939 0.956886 
3672 2 -624.823 2488.77 -538.595 -0.69927 0.0634678 0.194116 0.685063 
3673 2 -626.872 2493.05 -529.941 -0.969229 0.131552 0.0578327 -0.199862 
3668 3 -611.868 2451.21 -520.334 -0.944141 0.217149 0.247544 -0.0129109 
3674 2 -628.507 2495.8 -520.493 -0.427162 0.0233128 0.0195327 -0.903663 
3885 2 -824.748 2684.21 -528.055 -0.452075 0.570897 -0.0440442 0.683933 
3835 2 -754.786 2537.93 -570.14 0.203839 0.0487506 0.293077 0.932834 
3836 2 -753.857 2542.86 -561.616 -0.56843 0.209747 0.200613 0.769836 
3837 2 -753.18 2548.85 -553.851 -0.992819 0.106459 0.00751008 0.0540514 
3838 2 -753.047 2552.08 -544.475 -0.646502 0.13791 -0.0774565 -0.746335 
3839 2 -755.13 2554 -535.007 0.0760436 0.270651 0.0364624 -0.958977 
3840 2 -759.613 2553.36 -526.276 0.746716 -0.0487183 -0.169687 -0.641286 
3882 2 -787.213 2630.35 -592.316 -0.35365 -0.753839 0.49256 0.253067 
3879 2 -761.834 2639.32 -581.592 0.664917 0.271901 -0.692361 -0.0677646 
3878 2 -752.633 2640.47 -578.12 0.284722 0.744635 -0.336506 -0.501214 
3877 2 -743.917 2641.7 -573.604 -0.160896 0.767924 0.375213 -0.493579 
3876 2 -736.272 2639.24 -567.867 -0.472267 0.336195 0.812187 -0.0654914 
3875 2 -729.438 2634.2 -562.906 -0.248599 -0.333554 0.797518 0.436926 
3874 2 -723.326 2630.37 -556.151 0.0763894 -0.885591 0.25314 0.381856 
3873 2 -718.606 2626.23 -548.519 0.363186 -0.788031 -0.487572 0.0968359 
3884 3 -784.319 2660.3 -549.949 -0.798062 -0.0928175 -0.508019 -0.310482 
3883 1 -815.79 2655.89 -564.656 -0.782361 -0.06479 -0.523732 -0.330786 
3872 2 -715.181 2621.17 -540.779 0.230184 -0.0111164 -0.936265 -0.265141 
3881 2 -780.089 2634.04 -586.211 -0.0545896 -0.825393 -0.363119 0.428824 
3880 2 -771.302 2636.57 -582.926 0.384272 -0.362579 -0.733042 0.428392 
3871 2 -710.688 2616.5 -533.252 -0.0210196 0.725067 -0.553479 -0.409263 
3870 2 -703.199 2613.46 -527.631 -0.356276 0.789486 0.3951 -0.306064 
3869 2 -699.667 2611.31 -518.48 -0.240218 0.0634079 0.963283 0.10179 
3886 2 -816.616 2687.95 -523.869 -0.734665 0.373075 -0.49314 0.279098 
3841 2 -761.958 2556.62 -517.264 0.991909 -0.0984886 -0.00897248 0.0796022 
3940 2 -828.636 2815.15 -555.447 -0.472985 -0.436837 -0.470183 -0.603645 
3939 2 -838.019 2812.92 -557.565 -0.760137 0.206159 -0.611936 0.0722814 
3941 2 -819.201 2816.9 -552.886 0.202887 -0.558925 0.126163 -0.794054 
3887 2 -807.816 2691.89 -521.237 -0.706176 0.0353591 -0.602674 -0.369931 
3888 2 -799.781 2696.87 -518.098 -0.10157 -0.532698 -0.494388 -0.679336 
3942 2 -810.094 2816.98 -549.299 0.780687 -0.180686 0.47572 -0.362727 
3901 2 -690.712 2757 -522.408 -0.501304 0.434827 -0.745882 -0.0572669 
3902 2 -683.835 2762.43 -527.09 -0.419511 -0.194064 -0.789473 -0.403835 
3903 2 -675.352 2766.36 -530.257 -0.06862 -0.561454 -0.502252 -0.654067 
3943 2 -800.731 2816.38 -546.079 0.659578 0.161724 0.529439 0.508425 
3900 2 -700.273 2755.58 -520.369 -0.33822 0.676482 -0.308366 0.576966 
3944 2 -793.048 2819.91 -541.039 -0.0614152 0.284823 0.0886734 0.952492 
3945 2 -787.445 2822.48 -533.365 -0.819381 0.106245 -0.239028 0.51009 
3946 2 -782.372 2822.02 -524.914 -0.874092 -0.108247 -0.3349 -0.334795 
3899 2 -708.65 2750.5 -518.704 0.0388965 0.634613 0.440576 0.633756 
3898 2 -718.309 2748.92 -516.855 0.574202 0.258891 0.694469 0.347821 
3897 2 -728.111 2747.66 -515.869 0.638611 -0.410863 0.606186 -0.236446 
3947 2 -776.12 2821.99 -517.247 -0.175662 -0.237528 0.0318841 -0.954833 
3889 2 -791.928 2702.71 -518.288 0.428546 -0.655661 0.0240936 -0.62119 
3896 2 -736.518 2742.4 -516.412 0.323059 -0.682199 -0.0591432 -0.653253 
3895 2 -743.418 2735.26 -516.385 -0.197621 -0.262233 -0.649862 -0.685463 
3891 2 -775.298 2712.71 -514.263 0.434106 0.145373 0.769367 0.445526 
3904 2 -667.436 2772.04 -532.016 0.457841 -0.717909 0.10347 -0.514084 
3894 2 -750.281 2728.26 -516.843 -0.663867 0.335598 -0.645381 -0.173604 
3893 2 -758.449 2723.03 -515.182 -0.469593 0.741284 -0.11854 0.46468 
3892 2 -767.051 2718.11 -515.077 0.122148 0.506168 0.489428 0.699524 
3890 2 -783.636 2707.69 -516.118 0.778139 -0.370973 0.49084 -0.126313 
3905 2 -659.168 2777.35 -532.269 0.694216 -0.370843 0.611806 0.0789534 
3906 2 -651.358 2783.48 -531.828 0.280143 0.250502 0.749607 0.544847 
3907 2 -644.026 2789.53 -534.838 -0.140395 0.655248 0.172302 0.721977 
3908 2 -635.158 2793.96 -535.021 -0.54533 0.66433 -0.404217 0.312873 
3909 2 -626.479 2798.24 -536.853 -0.591798 0.115504 -0.768364 -0.214596 
3937 1 -849.36 2857.35 -546.487 -0.0143856 0.687574 0.0561088 0.7238 
3936 2 -839.178 2901.16 -532.228 0.0277613 0.668118 -0.0923298 -0.737782 
3935 2 -829.144 2899.92 -532.709 -0.54676 0.497032 0.435486 -0.514163 
3934 2 -819.349 2900.1 -534.761 -0.794842 -0.0181849 0.605585 -0.0340974 
3938 3 -814.419 2857.6 -546.077 -0.0167405 0.677206 0.0515239 0.733796 
3924 2 -728.414 2905.12 -519.236 0.520046 0.262995 -0.81227 -0.0245753 
3925 2 -736.191 2901.57 -523.975 0.413238 -0.45421 -0.686766 0.388947 
3926 2 -745.181 2900.05 -527.856 -0.0298221 -0.765758 0.191903 0.613106 
3927 2 -754.623 2902.44 -529.663 -0.4643 -0.308977 0.808075 0.189668 
3928 2 -763.217 2903.72 -534.248 -0.371294 0.402703 0.763475 -0.342167 
3929 2 -772.503 2902.01 -537.345 0.0847457 0.762787 0.121994 -0.629359 
3930 2 -781.7 2899.55 -539.919 0.470736 0.490105 -0.654996 -0.33043 
3931 2 -791.161 2898.32 -542.678 0.752186 -0.28276 -0.567161 0.18053 
3932 2 -800.732 2900.16 -541.429 0.262891 -0.554086 -0.151483 0.775197 
3933 2 -810.088 2900.18 -538.14 -0.433333 -0.471567 0.31378 0.700992 
3910 1 -614.218 2842.06 -524.376 -0.67277 -0.318518 0.604841 0.28301 
3911 3 -648.643 2841.49 -518.487 -0.65537 -0.33175 0.600176 0.316577 
2889 2 -552.553 1272.89 -421.161 0.397661 0.0338163 0.769602 0.498433 
2888 2 -558.06 1264.51 -420.794 0.729798 -0.545085 0.412523 0.0101057 
2887 2 -562.811 1257.46 -415.658 0.326539 -0.837842 -0.224862 -0.375274 
2890 2 -546.181 1280.13 -423.559 -0.179633 0.503845 0.57128 0.622504 
2892 2 -537.432 1297.83 -425.725 -0.733703 0.296029 -0.572473 -0.215222 
2891 2 -542.415 1289.31 -424.843 -0.590677 0.720795 0.0651779 0.3568 
2886 2 -564.912 1251.07 -408.352 0.00755367 -0.347896 -0.859792 -0.373723 
2885 3 -576.037 1300.23 -395.351 -0.298576 0.832632 0.277157 0.37518 
2884 1 -589.846 1274.51 -375.774 -0.28207 0.816027 0.341987 0.370921 
2893 2 -530.727 1304.74 -423.545 -0.138485 -0.271698 -0.705158 -0.64012 
2894 2 -525.362 1312.92 -424.593 0.427902 -0.6609 -0.16974 -0.592705 
2824 2 -409.229 1181.83 -372.821 0.111217 0.313606 0.827023 0.453117 
2825 2 -404.52 1188.1 -378.847 -0.217792 0.938553 0.134403 0.231563 
2823 2 -415.648 1177.77 -366.302 0.408577 -0.444593 0.79712 0.00113598 
2827 2 -400.83 1197.77 -395.577 -0.0295313 -0.00319263 -0.999057 0.0316722 
2829 2 -397.172 1197.29 -415.114 0.0394581 -0.977327 0.167624 -0.123196 
2832 2 -488.785 1197.23 -421.214 0.930995 -0.34055 0.123199 0.045777 
2833 2 -487.359 1203.97 -414.173 0.565946 -0.111211 0.283196 0.766249 
2826 2 -401.037 1192.87 -386.894 -0.140163 0.708563 -0.673422 -0.157468 
2834 2 -485.964 1208.91 -405.654 -0.0876329 0.113016 0.20199 0.96889 
2828 2 -399.385 1197.57 -405.364 -0.105015 -0.758924 -0.638379 -0.0740195 
2831 3 -444.708 1195.5 -394.005 0.843132 0.0183399 -0.030673 0.536518 
2835 2 -484.528 1212.37 -396.442 -0.85951 0.172579 0.0658565 0.476574 
2836 2 -483.794 1216.02 -387.209 -0.890094 0.212717 -0.200089 -0.349928 
2837 2 -482.286 1220.86 -378.652 -0.263415 -0.0567995 -0.439654 -0.856791 
2838 2 -479.661 1228.15 -372.35 0.362279 -0.495489 -0.449304 -0.649131 
2839 2 -476.532 1237.6 -371.928 0.674216 -0.673893 0.0431313 -0.299066 
2830 1 -442.225 1197.36 -428.946 0.825429 -0.0270873 -0.0152885 0.563648 
2841 2 -469.934 1256.05 -368.906 -0.138335 0.21451 0.721267 0.643912 
2840 2 -472.775 1246.54 -369.831 0.573277 -0.359263 0.521485 0.51994 
2846 2 -464.589 1303.89 -363.647 0.699999 -0.711121 -0.0195741 0.0626498 
2847 2 -466.289 1313.76 -363.417 0.227157 -0.460968 0.794926 0.322492 
2842 2 -468.356 1265.8 -368.945 -0.622927 0.659601 0.193998 0.373167 
2844 2 -464.661 1285.14 -368.203 -0.191131 -0.0507627 -0.576427 -0.792858 
2843 2 -466.119 1275.34 -368.538 -0.676836 0.617707 -0.330304 -0.226342 
2845 2 -462.642 1294.39 -365.259 0.569842 -0.341184 -0.519858 -0.537235 
2880 2 -599.618 1329.31 -378.381 -0.754037 -0.33026 0.0749084 0.562802 
2877 2 -590.196 1341.39 -402.555 0.899652 0.339001 -0.246981 -0.121266 
2878 2 -595.618 1335.59 -396.579 0.769679 0.0172246 -0.194377 0.607878 
2879 2 -597.789 1331.91 -387.735 -0.0532629 -0.090291 -0.134632 0.985335 
2869 2 -542.078 1350.92 -458.205 0.353275 0.514436 -0.161665 -0.764472 
2870 2 -551.325 1349.98 -454.846 0.817449 0.101367 -0.491157 -0.283314 
2871 2 -559.988 1351.03 -450.386 0.760031 -0.245485 -0.421275 0.429671 
2872 2 -568.089 1351.45 -444.727 0.0522162 -0.240486 -0.0831048 0.965678 
2873 2 -573.826 1350.75 -436.598 -0.683745 -0.25636 0.117357 0.673052 
2874 2 -578.968 1348.52 -428.383 -0.905574 -0.0697441 0.232309 -0.348002 
2875 2 -582.561 1345.35 -419.726 -0.36987 0.188784 0.0152842 -0.909573 
2876 2 -586.014 1345.5 -410.432 0.380287 0.284748 0.105239 -0.873628 
2912 3 -556.748 1417.68 -407.075 -0.642511 -0.404451 0.181989 -0.624883 
2917 2 -593.736 1414.16 -385.579 -0.952074 -0.0209118 -0.162948 0.258002 
2916 2 -597.05 1413.01 -394.881 -0.383045 0.132522 -0.00330847 0.914168 
2915 2 -601.266 1410.51 -403.524 0.323889 0.200997 0.161163 0.910342 
2911 1 -568.986 1440.58 -430.313 -0.659419 -0.421656 0.0840291 -0.616695 
2914 2 -603.439 1409.75 -413.289 0.882202 0.0267554 0.134925 0.450333 
2913 2 -606.222 1412.73 -422.364 0.909767 0.0898973 0.17809 -0.364042 
2918 2 -590.55 1413.34 -376.223 -0.78086 -0.0437263 -0.233412 -0.57781 
2868 2 -532.776 1347.84 -458.806 -0.412955 0.706727 0.184076 -0.54417 
2919 2 -586.33 1415.13 -367.538 -0.058303 -0.322491 -0.136832 -0.934814 
2910 2 -523.538 1452.41 -426.183 0.236984 -0.810792 0.476783 0.24317 
2903 2 -516.595 1393.95 -406.667 0.280971 -0.320363 0.536154 0.728672 
2904 2 -519.066 1403.47 -404.868 -0.299175 0.0340616 0.628207 0.717419 
2909 2 -522.405 1446.73 -418.069 0.340423 -0.90577 -0.251489 -0.0211193 
2908 2 -519.991 1440.28 -410.97 0.212558 -0.380998 -0.864494 -0.24962 
2905 2 -521.513 1412.92 -403.053 -0.703857 0.558783 0.346532 0.268817 
2907 2 -521.213 1431.98 -405.363 -0.212899 0.365092 -0.806301 -0.413837 
2906 2 -522.802 1422.8 -401.945 -0.573245 0.747932 -0.307043 -0.133086 
2867 2 -522.903 1347.38 -457.841 -0.645351 0.18424 0.732739 -0.11257 
2881 2 -603.348 1325.68 -369.939 -0.974969 -0.153515 0.0602387 -0.149131 
2895 2 -519.64 1320.97 -424.475 0.747844 -0.561627 0.338795 0.102583 
2896 2 -516.231 1330.12 -422.544 0.207659 -0.0938411 0.703948 0.672702 
2897 2 -514.469 1339.83 -422.094 -0.449037 0.533277 0.495327 0.518297 
2902 2 -513.806 1384.53 -408.415 0.691401 -0.60783 0.09545 0.378676 
2901 2 -511.288 1375.52 -411.621 0.675037 -0.378006 -0.452703 -0.443279 
2848 2 -465.529 1320.49 -370.7 -0.0724062 0.373191 0.879347 0.286767 
2866 2 -513.228 1345.64 -458.265 -0.52867 -0.390268 0.556698 0.508218 
2898 2 -513.215 1349.6 -422.773 -0.693895 0.692464 -0.0257565 0.195805 
2900 2 -508.421 1367.3 -416.66 0.117095 0.106167 -0.476367 -0.864923 
2899 2 -510.46 1359.07 -422.01 -0.731223 0.326098 -0.357551 -0.480761 
2849 2 -464.498 1326.25 -378.625 -0.24111 0.918053 0.145696 0.278956 
2859 2 -454.371 1349.17 -487.662 -0.861282 -0.163315 0.442149 0.189807 
2860 2 -462.88 1347.73 -483.07 -0.748702 0.144492 0.520915 -0.383686 
2865 2 -503.826 1342.33 -457.981 0.0379496 -0.661898 0.174682 0.727967 
2850 2 -460.548 1331.44 -386.067 -0.52283 0.614692 -0.5881 0.0542266 
2861 2 -471.841 1346.98 -478.955 -0.173133 0.409191 0.294749 -0.845997 
2862 2 -479.27 1343.52 -473.483 0.481402 0.344401 -0.231539 -0.77203 
2863 2 -486.242 1344.12 -466.57 0.856675 0.0221898 -0.512113 -0.0579231 
2864 2 -494.911 1344.7 -461.828 0.534592 -0.279829 -0.447603 0.659969 
2851 2 -454.217 1337.4 -390.669 -0.441765 -0.13498 -0.784288 -0.414146 
2852 2 -446.102 1342.68 -393.173 0.0809177 -0.763732 -0.247106 -0.59085 
2858 3 -455.097 1346.58 -435.8 0.632556 -0.286652 -0.381294 0.610179 
2853 2 -437.933 1347.67 -395.242 0.642335 -0.623325 0.277035 -0.349462 
2854 2 -430.04 1353.42 -394.961 0.453969 -0.279614 0.838361 0.113484 
2857 1 -424.631 1353.69 -451.307 0.626324 -0.240884 -0.467256 0.575643 
2855 2 -423.331 1358.41 -400.345 0.291857 0.657855 0.570792 0.395276 
2856 2 -414.766 1358.99 -405.38 -0.14884 0.84782 -0.163929 0.481846 
3090 2 -659.618 1572.35 -366.579 -0.0220337 0.9251 -0.226248 0.304163 
3091 2 -654.417 1571.93 -374.945 -0.125541 0.436102 -0.891097 0.000365251 
3092 2 -653.032 1573.08 -384.651 -0.223425 -0.279245 -0.926765 -0.114933 
3045 2 -520.491 1480.86 -366.982 0.0823883 0.76902 0.583208 0.248374 
3100 1 -572.189 1580.61 -431.723 0.449644 -0.256898 -0.810995 -0.272233 
3101 3 -590.55 1603.36 -450.87 0.45272 -0.319839 -0.799501 -0.231397 
3099 2 -613.492 1558.61 -438.095 -0.411747 -0.093577 -0.886826 0.187742 
3098 2 -620.332 1562.01 -431.69 -0.169461 0.575728 -0.693006 0.399454 
3097 2 -627.768 1564.57 -425.537 0.0981653 0.897235 -0.0896242 0.421071 
3096 2 -633.082 1565.79 -417.231 0.237069 0.66626 0.695392 0.127777 
3095 2 -637.626 1566.55 -408.514 0.18306 -0.206519 0.955452 -0.104648 
3094 2 -642.763 1569.38 -400.462 -0.0108637 -0.848173 0.402626 -0.344059 
3093 2 -648.375 1573.56 -393.41 -0.311232 -0.859305 -0.356146 -0.19465 
3102 2 -542.501 1616.94 -436.888 0.00612198 -0.37668 0.274502 0.884716 
3046 1 -513.143 1527.37 -364.059 -0.944218 -0.160318 -0.00844382 0.28754 
3183 2 -361.93 1587.01 -490.578 0.133038 0.175312 0.268682 0.937751 
3184 2 -357.712 1592.11 -483.248 -0.606914 0.417066 -0.0771561 0.67213 
3185 2 -350.989 1595.55 -476.71 -0.883324 0.287137 -0.342109 -0.142309 
3186 2 -345.115 1600.95 -470.869 -0.453978 -0.274533 -0.525809 -0.664877 
3187 2 -337.155 1606.31 -468.299 0.285621 -0.603543 -0.147102 -0.729738 
3188 2 -328.887 1611.68 -466.776 0.653627 -0.617474 0.401455 -0.174163 
3189 2 -321.487 1618.24 -466.729 0.500017 -0.178954 0.687735 0.494954 
3103 2 -549.1 1622.57 -431.992 -0.553661 0.144975 0.597892 0.56122 
3104 2 -554.793 1630.19 -429.36 -0.677204 0.714515 0.16161 0.0688929 
3105 2 -557.524 1639.73 -429.313 -0.310009 0.583815 -0.54513 -0.515643 
3106 2 -560.377 1648.93 -431.968 0.30523 -0.1652 -0.725589 -0.594192 
3107 2 -562.716 1658.39 -432.889 0.474422 -0.820799 -0.297309 -0.113224 
3108 2 -563.351 1666.87 -437.846 0.310389 -0.820573 0.418342 0.235176 
3109 2 -564.792 1673.94 -444.742 0.16891 -0.217231 0.904797 0.324995 
3110 2 -563.03 1681.32 -451.297 -0.227773 0.548191 0.723302 0.352761 
3111 2 -562.096 1689.72 -456.636 -0.663632 0.741166 0.0776726 0.0650569 
3112 2 -561.855 1699.59 -457.619 -0.419892 0.650822 -0.389074 -0.498742 
3113 2 -564.646 1708.84 -459.624 0.116416 -0.0308664 -0.659358 -0.74212 
3118 2 -573.125 1757.09 -459.178 -0.664139 0.575898 0.45812 0.131858 
3114 2 -565.928 1718.52 -458.238 0.627062 -0.54588 -0.391445 -0.394436 
3117 2 -570.783 1747.59 -457.454 -0.30516 0.188656 0.730342 0.581281 
3116 2 -568.573 1737.98 -456.878 0.349032 -0.47858 0.489932 0.639613 
3115 2 -566.078 1728.39 -457.67 0.685499 -0.691928 0.0536177 0.220117 
3119 2 -577.653 1765.74 -461.1 -0.573339 0.674428 -0.291914 -0.362236 
3137 2 -518.441 1764.77 -402.02 0.147045 0.554389 -0.419445 0.703631 
3180 2 -405.608 1667.25 -500.248 -0.138671 0.144352 0.979761 -0.000661018 
3181 1 -390.722 1622.51 -502.307 0.065925 -0.368644 -0.195648 -0.906354 
3179 2 -403.228 1667.08 -490.613 -0.0837172 -0.641712 0.757284 0.0878556 
3178 2 -403.252 1667.48 -480.809 0.000392696 -0.999641 0.0257576 0.00735039 
3177 2 -406.727 1668.4 -471.587 -0.20001 -0.596934 -0.767284 -0.122237 
3176 2 -409.823 1668.78 -462.285 -0.162845 0.28004 -0.938578 0.118874 
3175 2 -410.525 1668.47 -452.39 -0.0268894 0.910648 -0.412245 0.00710029 
3174 2 -408.73 1669.66 -442.648 0.000746081 0.906053 0.40513 -0.122217 
3173 2 -407.988 1668.03 -432.85 -0.0406625 0.421615 0.905101 0.0371457 
3145 2 -450.229 1743.88 -415.673 -0.490111 0.388283 -0.561249 0.542244 
3147 2 -430.876 1741.17 -416.552 -0.495682 -0.519028 -0.662678 -0.213935 
3148 2 -422.418 1739.26 -421.244 -0.000515067 -0.792394 -0.0561577 -0.607419 
3146 2 -440.648 1741.89 -415.558 -0.655803 -0.00288366 -0.747982 0.102161 
3149 2 -413.018 1739.18 -424.533 0.543542 -0.668158 0.453613 -0.22883 
3144 2 -460.171 1743.68 -416.285 0.0178707 0.67668 0.0180364 0.735839 
3150 2 -405.285 1743.67 -428.57 0.427692 0.143955 0.885712 0.108951 
3143 2 -468.73 1742.01 -411.58 0.250929 0.605825 0.627473 0.419866 
3142 2 -478.409 1743.3 -410.212 0.641268 -0.102048 0.735474 -0.193493 
3172 2 -405.48 1667.58 -423.404 -0.0917256 -0.452199 0.883884 0.0765021 
3151 2 -397.349 1744.56 -434.395 0.183728 0.817034 0.487251 0.247559 
3171 2 -401.029 1668.08 -414.502 -0.0237307 -0.949851 0.087047 0.299404 
3152 2 -392.162 1743.69 -442.717 -0.195453 0.890951 -0.405674 0.0586001 
3169 2 -388.36 1675.29 -401.388 0.35659 -0.17738 -0.885909 0.237793 
3170 2 -395.25 1672.45 -407.949 -0.0520733 -0.71215 -0.576589 0.397085 
3168 2 -381.11 1680.89 -397.448 0.552731 0.598731 -0.572996 -0.0876698 
3153 2 -389.299 1746.59 -451.85 -0.17369 0.163686 -0.959348 -0.150633 
3141 2 -487.677 1745.09 -407.538 0.168992 -0.685109 0.376651 -0.600168 
3140 2 -497.7 1745.69 -407.753 -0.365108 -0.638686 -0.371382 -0.566437 
3139 2 -506.341 1749.8 -405.235 -0.646412 -0.39559 -0.651278 -0.0386871 
3167 2 -374.932 1683.55 -390.2 0.144584 0.938679 0.0178951 -0.3125 
3166 2 -365.55 1683.66 -386.57 -0.431451 0.514108 0.649723 -0.356934 
3138 2 -512.74 1756.65 -401.815 -0.377861 0.102509 -0.784058 0.481629 
3182 3 -366.195 1638.23 -482.949 0.062087 -0.457853 -0.230919 -0.856266 
3155 3 -365.447 1739.98 -406.295 -0.639378 -0.411818 -0.0958699 0.642192 
3208 1 -239.306 1765.96 -513.306 -0.232421 -0.52501 -0.531822 0.622503 
3165 2 -356.513 1687.05 -384.157 -0.582624 -0.204987 0.783848 -0.0641163 
3164 2 -349.341 1693.88 -384.799 -0.581843 -0.653249 0.109487 0.471951 
3163 2 -343 1701.27 -383.861 0.0212913 -0.454752 -0.621213 0.637842 
3200 2 -288.574 1718.49 -474.516 0.203005 -0.189496 -0.833876 -0.477001 
3202 2 -291.564 1735.81 -483.67 0.491072 -0.68277 0.465446 0.27574 
3201 2 -289.109 1727.61 -478.556 0.544518 -0.784625 -0.29512 -0.0277285 
3203 2 -292.1 1745.1 -487.186 0.140287 -0.120998 0.86439 0.467449 
3205 2 -288.21 1762.38 -495.916 -0.593421 0.799951 -0.0846861 0.0275282 
3204 2 -291.382 1753.73 -492.215 -0.301341 0.645831 0.502995 0.488971 
3199 2 -290.931 1709.38 -471.528 -0.436764 0.351292 -0.676235 -0.478056 
3198 2 -292.146 1699.75 -469.714 -0.662263 0.739272 0.018642 0.120571 
3197 2 -293.479 1689.93 -468.843 -0.377838 0.487415 0.563133 0.550041 
3196 2 -296.005 1680.39 -468.362 0.2836 -0.118216 0.717434 0.625208 
3190 2 -315.691 1626.24 -467.163 -0.172809 0.402068 0.559185 0.704124 
3191 2 -311.144 1635.05 -467.372 -0.625552 0.696156 0.0800688 0.342989 
3194 2 -303 1662.02 -466.651 0.444336 -0.609605 -0.399149 -0.521179 
3195 2 -299.75 1671.25 -467.911 0.685174 -0.655661 0.315265 0.0353984 
3193 2 -306.029 1653.39 -463.005 -0.187871 -0.0222163 -0.837224 -0.513096 
3192 2 -307.576 1644.12 -466.18 -0.723305 0.523434 -0.29181 -0.343065 
3154 1 -350.886 1762.11 -429.086 -0.709563 -0.439074 -0.0383902 0.549782 
3158 2 -326.76 1746.6 -385.961 -0.580294 -0.535788 0.45305 -0.413443 
3157 2 -323.293 1755.57 -388.279 -0.666849 -0.65562 -0.0437651 0.351509 
3161 2 -333.764 1718.67 -384.367 0.703268 0.661684 -0.214657 -0.146668 
3160 2 -328.471 1726.94 -384.8 0.465277 0.63622 0.217595 -0.575669 
3159 2 -327.619 1736.76 -385.429 -0.0202228 0.0175198 0.638867 -0.768852 
3162 2 -338.207 1709.92 -384.308 0.630827 0.342603 -0.579265 0.386176 
3206 2 -287.13 1771.42 -499.532 -0.41958 0.332427 -0.746813 -0.394608 
3156 2 -322.176 1764.6 -391.735 -0.297652 -0.232267 -0.560982 0.736718 
3136 2 -522.585 1773.74 -402.232 0.669102 0.709375 0.0662198 0.211435 
3120 2 -578.627 1775.53 -461.741 -0.181168 0.29966 -0.635526 -0.688105 
3121 2 -580.058 1785.36 -462.156 0.31963 -0.285052 -0.65274 -0.62491 
3122 2 -580.624 1795.15 -462.736 0.634834 -0.749052 -0.026012 -0.187699 
3123 2 -577.795 1804.53 -464.09 0.531495 -0.559041 0.512251 0.377604 
3124 2 -576.536 1814.28 -465.493 0.107686 0.0498019 0.715159 0.688818 
3125 2 -575.059 1823.89 -467.051 -0.394123 0.717597 0.447234 0.360144 
3126 2 -573.576 1832.68 -471.129 -0.516421 0.83113 -0.20618 -0.00466972 
3128 3 -559.666 1815.65 -424.07 0.63708 0.589339 0.0787491 -0.490517 
3127 1 -546.25 1845.97 -435.067 0.678339 0.564086 0.112741 -0.457113 
3129 2 -525.579 1839.89 -393.142 0.681852 0.655515 -0.131002 -0.297014 
3132 2 -528.245 1811.66 -394.001 -0.599556 -0.616861 -0.363452 0.357656 
3131 2 -529.616 1821.5 -394.435 -0.178544 0.00477161 -0.697877 0.69359 
3130 2 -529.934 1831.12 -392.257 0.460107 0.559179 -0.526862 0.445013 
3133 2 -527.803 1801.88 -394.68 -0.508833 -0.791068 0.243502 -0.236659 
3134 2 -526.179 1792.67 -398.056 -0.0580533 -0.253027 0.785629 -0.561599 
3135 2 -524.696 1783.22 -400.904 0.479204 0.47872 0.605938 -0.417168 
3276 2 -382.727 1909.51 -498.528 0.527331 -0.666525 -0.411742 0.328839 
3277 2 -391.526 1913.94 -499.446 0.194167 -0.598332 0.283223 0.723935 
3278 2 -399.356 1919.91 -498.929 -0.486327 -0.384725 0.707697 0.338581 
3275 2 -372.927 1908.86 -498.553 0.690258 0.0306028 -0.721669 -0.0424557 
3279 2 -408.958 1920.8 -501.009 -0.664471 0.171481 0.727183 -0.0166324 
3280 2 -418.718 1922.06 -503.067 -0.390823 0.618586 0.289648 -0.617019 
3281 2 -428.17 1924.95 -502.937 0.200423 0.556814 -0.418221 -0.689115 
3274 2 -363.301 1906.51 -498.675 0.36329 0.521032 -0.487026 -0.59946 
3207 2 -283.228 1779.86 -503.137 0.210854 -0.571237 -0.578943 -0.542268 
3255 2 -252.437 1831.26 -508.867 -0.836032 0.0796779 -0.515435 -0.170377 
3273 2 -354.286 1905.83 -494.703 -0.18862 0.783616 0.239483 -0.541309 
3271 2 -335.964 1904.72 -489.149 -0.625325 -0.294998 0.696395 0.192297 
3270 2 -326.666 1907.34 -491.383 -0.269763 -0.63016 0.0497451 0.726397 
3272 2 -345.761 1903.79 -490.263 -0.50943 0.445372 0.718098 -0.162667 
3256 2 -243.488 1833.18 -505.22 -0.413798 -0.198698 -0.331884 -0.824101 
3257 2 -237.344 1835.99 -498.139 0.368732 -0.311436 -0.125181 -0.866818 
3269 2 -318.285 1911.81 -494.402 0.394342 -0.307397 -0.509023 0.70064 
3267 2 -299.339 1915.95 -496.103 0.456878 0.598115 -0.457815 -0.473209 
3268 2 -309.175 1914.87 -496.739 0.761126 0.121515 -0.599728 0.215052 
3258 2 -232.735 1840.18 -490.503 0.904544 -0.284505 0.213757 -0.234871 
3259 2 -227.489 1843.99 -483.218 0.667046 -0.031379 0.448792 0.593844 
3260 2 -221.853 1849.2 -477.124 -0.0187597 0.352934 0.198808 0.91409 
3263 3 -258.296 1872.66 -493.621 0.517187 0.317389 -0.757078 0.242105 
3262 1 -236.542 1895.15 -478.165 0.505869 0.319963 -0.792767 0.115067 
3266 2 -289.571 1915.2 -495.246 -0.0893895 0.753477 0.0154787 -0.651185 
3261 2 -216.051 1853.45 -470.311 -0.777127 0.361569 -0.181681 0.48201 
3265 2 -280.153 1917.77 -493.654 -0.502807 0.308186 0.667139 -0.455117 
3264 2 -271.69 1922.72 -493.326 -0.647839 -0.517143 0.538973 0.149588 