ITEM: TIMESTEP
100000000
ITEM: NUMBER OF ATOMS
4067
ITEM: BOX BOUNDS pp pp pp
-4.6310929470000001e+03 4.6704658980000004e+03
-4.6310929470000001e+03 4.6704658980000004e+03
-4.6310929470000001e+03 4.6704658980000004e+03
ITEM: ATOMS id type x y z c_q[1] c_q[2] c_q[3] c_q[4] 
3777 2 -655.75 2526.24 -674.652 -0.289205 0.410093 0.85191 0.149777 
3778 2 -659.162 2531.59 -682.27 -0.347864 0.892075 0.276168 -0.0832086 
3806 2 -825.098 2669.82 -738.62 -0.89562 0.154515 0.0593408 -0.412879 
3807 2 -827.182 2673.11 -729.6 -0.345841 0.195344 -0.118178 -0.910093 
3804 2 -824.701 2659.65 -755.109 -0.0929671 0.110052 0.231439 0.962124 
3805 2 -822.771 2664.43 -746.595 -0.831543 0.213824 0.262694 0.440236 
3808 2 -831.085 2676.25 -720.989 0.50968 -0.0275493 -0.45693 -0.72848 
3809 2 -835.946 2682.75 -715.416 0.83429 -0.384895 -0.34507 0.191684 
3810 2 -843.015 2687.19 -710.185 0.458304 -0.485283 0.111366 0.736244 
3792 2 -731.974 2635.92 -704.811 -0.49009 0.848038 0.201593 0.00182016 
3791 2 -727.863 2628.54 -699.629 -0.39755 0.375014 0.792587 0.270415 
3793 2 -735.149 2643.06 -710.959 -0.236653 0.772643 -0.372264 -0.45655 
3790 2 -723.805 2619.79 -697.313 -0.0664473 -0.260256 0.739262 0.61753 
3789 2 -719.298 2611.31 -699.887 0.475625 -0.593247 0.244303 0.601793 
3788 2 -717.492 2601.58 -698.482 0.641141 -0.70867 -0.282128 -0.0844286 
3787 2 -713.299 2592.68 -699.019 0.360128 -0.0312854 -0.677612 -0.640446 
3786 2 -708.379 2584.16 -699.933 -0.260334 0.468906 -0.493141 -0.684956 
3794 2 -738.748 2650.37 -716.772 0.0199932 0.0948921 -0.866123 -0.490333 
3795 2 -739.797 2658.57 -722.345 0.374429 -0.642526 -0.564463 -0.358253 
3796 2 -739.376 2667.46 -726.743 0.519056 -0.834156 0.18645 -0.00120598 
3797 2 -738.534 2676.34 -730.963 0.165333 -0.297876 0.892801 0.294689 
3785 2 -701.8 2576.89 -700.752 -0.676738 0.62691 0.174607 -0.34427 
3784 2 -696.398 2568.88 -698.289 -0.48856 0.244148 0.754518 0.363874 
3783 2 -689.007 2562.54 -700.092 -0.137232 -0.414836 0.48932 0.754748 
3782 2 -680.957 2556.91 -698.981 0.428626 -0.737217 -0.0110394 0.522177 
3781 2 -673.144 2550.97 -697.989 0.662806 -0.491401 -0.564943 0.00728548 
3802 1 -783.909 2678.53 -769.374 0.6819 -0.0571068 -0.00950156 0.729151 
3803 3 -782.812 2681.88 -734.508 0.730752 -0.0484371 -0.0426593 0.679585 
3798 2 -737.729 2682.68 -738.513 -0.0173186 0.439662 0.836585 0.326378 
3780 2 -666.496 2544.8 -694.206 0.383767 0.13265 -0.805542 -0.431543 
3779 2 -661.073 2538.7 -688.715 -0.145877 0.750689 -0.454177 -0.457066 
3812 2 -852.592 2699.87 -698.613 -0.884435 0.157355 0.271189 0.345645 
3811 2 -848.065 2693.96 -705.209 -0.193738 -0.162498 0.418575 0.87227 
3813 2 -855.629 2704.85 -690.638 -0.764185 0.330775 -0.317497 -0.453657 
3814 2 -854.437 2712.85 -684.876 -0.247544 -0.106053 -0.344324 -0.899398 
3815 2 -850.942 2717.88 -676.956 0.669345 -0.00556325 0.00978164 -0.742866 
3816 2 -849.848 2717.86 -667.116 0.98594 0.0121879 0.141888 0.0874113 
3799 2 -735.532 2688.52 -746.107 -0.250574 0.950441 0.11938 -0.140082 
3800 2 -737.97 2693.48 -754.317 -0.0884737 0.775004 -0.52422 -0.341665 
3801 2 -741.69 2698.51 -761.99 0.268299 -0.0944634 -0.936336 -0.205831 
3847 2 -776.357 2840.19 -685.546 0.0398276 -0.872915 0.470687 0.122011 
3846 2 -770.693 2836.15 -678.39 0.296895 -0.862012 -0.346333 0.221004 
3845 2 -765.18 2834.18 -670.408 0.316561 -0.26793 -0.909869 -0.0118748 
3848 2 -778.617 2842.19 -694.973 0.144095 -0.141143 0.965515 0.164606 
3849 2 -776.936 2844.74 -704.379 0.0192852 0.585101 0.743582 0.323065 
3850 2 -773.149 2849.05 -712.348 -0.23984 0.954653 0.0172707 0.175548 
3851 2 -769.34 2853.29 -720.42 -0.416656 0.517106 -0.747446 0.0180113 
3852 2 -763.097 2857.65 -726.712 -0.0358396 -0.183457 -0.923792 -0.334167 
3858 2 -696.086 2920.14 -711.07 -0.30442 0.136938 0.179966 -0.925305 
3859 2 -699.898 2916.76 -702.639 0.411744 0.347163 0.239729 -0.807759 
3853 2 -761.01 2863.37 -734.489 0.121928 -0.860819 -0.473129 -0.142384 
3854 2 -760.042 2867.48 -743.535 0.164447 -0.909096 0.361097 0.126931 
3855 2 -761.663 2871.15 -752.576 -0.0164222 -0.188717 0.956885 0.220198 
3856 1 -725.902 2899.8 -741.322 0.830417 0.186047 -0.0158583 -0.524921 
3857 3 -736.805 2887.92 -710.386 0.819226 0.184387 0.00700023 -0.542974 
3860 2 -703.589 2910.65 -695.769 0.932532 0.339334 -0.0506199 -0.112575 
3861 2 -706.053 2904.8 -688.223 0.743756 0.211274 -0.229635 0.59115 
3862 2 -707.392 2898.8 -680.51 -0.017196 -0.314361 -0.25918 0.913076 
3863 2 -712.041 2894.05 -673.129 -0.657351 -0.409604 0.117893 0.621463 
3864 2 -719.055 2890.17 -667.249 -0.867941 -0.0743789 0.45549 -0.183507 
3636 2 -758.628 2230.7 -517.015 -0.236835 0.00949634 -0.471469 0.849433 
3635 2 -763.012 2237.17 -523.268 0.491734 0.384405 -0.129388 0.770512 
3612 2 -681.045 2367.9 -583.707 0.0921824 -0.153582 -0.966306 -0.184843 
3611 2 -679.836 2363.57 -574.912 -0.0578857 0.606894 -0.763177 -0.214219 
3610 2 -681.937 2357.16 -567.605 -0.297434 0.919142 0.127076 0.224861 
3609 2 -680.126 2348.93 -562.421 -0.2349 0.267304 0.840768 0.40802 
3608 2 -681.028 2341.36 -555.943 0.303497 -0.486018 0.754667 0.319615 
3607 2 -678.437 2335.44 -548.467 0.377417 -0.91168 -0.106346 0.122826 
3614 3 -728.579 2359.74 -564.466 -0.831876 -0.365179 0.205269 -0.363993 
3620 2 -758.387 2374.33 -532.723 0.794264 0.386602 0.378478 -0.276475 
3621 2 -755.254 2365.95 -528.414 0.613338 0.703502 -0.325239 0.152059 
3622 2 -757.931 2356.33 -529.376 0.373553 0.0687206 -0.69475 0.610785 
3623 2 -762.552 2347.63 -529.195 -0.400103 -0.39589 -0.469463 0.68029 
3624 2 -764.53 2338.28 -526.737 -0.867998 -0.462194 0.130349 0.126354 
3625 2 -767.188 2329.84 -522.226 -0.528158 -0.30512 0.584072 -0.535547 
3630 2 -774.207 2282.89 -526.587 -0.553591 -0.662416 -0.479432 0.157756 
3629 2 -776.05 2291.6 -522.398 -0.180466 -0.0948289 -0.853894 0.478858 
3628 2 -774.477 2301.21 -520.598 0.524559 0.608616 -0.496324 0.328765 
3606 2 -676.887 2332.1 -539.273 0.1884 -0.439695 -0.863653 -0.158991 
3605 2 -675.921 2330.06 -529.554 0.0504675 0.398485 -0.913102 -0.0700606 
3631 2 -771.728 2274.01 -530.068 -0.501429 -0.66478 0.250804 -0.493693 
3632 2 -767.664 2265.05 -530.477 -0.12241 -0.150538 0.627884 -0.753734 
3633 2 -766.194 2255.38 -529.288 0.466604 0.312048 0.596561 -0.573605 
3634 2 -763.826 2245.83 -527.642 0.846767 0.528598 0.0551636 0.022958 
3604 2 -675.479 2331.37 -519.756 0.0532167 0.970704 -0.230797 0.0404397 
3626 2 -770.211 2320.43 -521.251 0.225647 0.359378 0.586088 -0.690241 
3627 2 -771.621 2310.78 -520.564 0.597113 0.701228 0.151075 -0.359042 
3619 2 -757.708 2382.35 -538.428 0.327422 0.149097 0.480425 -0.799848 
3559 1 -554.871 2381.03 -545.819 -0.344836 -0.108953 0.27255 0.891591 
3613 1 -724.673 2385.35 -587.983 -0.787154 -0.348312 0.235373 -0.451295 
3618 2 -760.519 2385.4 -547.353 -0.396932 -0.192964 0.0399168 -0.896447 
3617 2 -763.189 2386.26 -556.861 -0.965738 -0.06828 -0.0830445 -0.236202 
3616 2 -766.054 2386.69 -566.302 -0.755024 0.110457 -0.0765722 0.641774 
3615 2 -769.879 2389.39 -574.881 0.200981 0.20115 -0.101447 0.953338 
3750 2 -792.704 2449.71 -576.666 0.250942 -0.869067 -0.33494 -0.263754 
3751 2 -789.399 2455.39 -583.951 0.328111 -0.820189 0.468641 0.00281307 
3752 2 -787.67 2461.74 -591.52 0.175072 -0.273126 0.895619 0.304333 
3753 2 -787.261 2468.73 -598.604 -0.171308 0.62878 0.673061 0.349683 
3754 2 -784.593 2475.44 -605.578 -0.565196 0.815674 0.00845456 0.12312 
3747 2 -727.084 2494.2 -530.275 -0.857529 -0.266558 0.0152362 -0.439725 
3746 2 -728.737 2498.42 -539.049 -0.932494 -0.156826 -0.144241 0.291642 
3748 1 -762.219 2466.12 -544.641 -0.35721 0.893072 -0.273532 -0.00199258 
3749 3 -757.49 2487.54 -571.787 -0.289473 0.888597 -0.35076 -0.059739 
3744 2 -733.806 2511.18 -553.058 0.265896 0.242868 -0.355834 0.862378 
3745 2 -731.588 2504.02 -546.761 -0.479196 -0.0220675 -0.332622 0.81194 
3755 2 -782.504 2484.27 -609.355 -0.483419 0.560767 -0.628801 -0.237603 
3756 2 -779.05 2492.25 -613.992 -0.0837432 -0.103102 -0.891553 -0.433001 
3757 2 -776.829 2500.07 -619.533 0.180426 -0.82455 -0.466197 -0.264998 
3758 2 -774.124 2506.31 -626.686 0.44628 -0.825624 0.341157 -0.0528245 
3759 2 -769.895 2512.24 -633.244 0.394931 -0.229485 0.866781 0.200142 
3743 2 -737.712 2519.91 -555.74 0.748114 0.585828 0.128221 0.28406 
3760 2 -763.061 2517.42 -638.416 0.07227 0.411695 0.58175 0.697748 
3761 2 -756.776 2524.97 -639.469 -0.525286 0.721983 0.013091 0.450159 
3742 2 -741.733 2528.86 -555.2 0.61083 0.446831 0.563513 -0.331183 
3762 2 -751.067 2533.05 -639.814 -0.641497 0.600759 -0.474328 -0.0508225 
3558 2 -591.882 2404.7 -563.001 0.245457 0.132409 0.918764 -0.279448 
3557 2 -595.97 2410.7 -556.302 -0.0670074 -0.635671 0.654123 -0.40442 
3556 2 -597.177 2416.92 -548.608 -0.352743 -0.934873 0.00117051 -0.0398039 
3555 2 -597.365 2420.44 -539.282 -0.0983264 -0.564157 -0.808416 0.136095 
3554 2 -598.597 2425.8 -531.076 0.116152 0.365048 -0.875653 0.294076 
3560 3 -569.001 2395.66 -517.252 -0.393491 -0.107179 0.266078 0.87343 
3553 2 -597.017 2428.01 -521.644 0.136489 0.881963 -0.448226 -0.0510525 
3741 2 -745.377 2537.38 -551.611 0.0800433 -0.167611 0.7995 -0.571227 
3776 3 -677.337 2569.73 -656.021 0.372459 -0.80371 -0.310216 0.345094 
3763 2 -746.136 2541.66 -640.809 -0.259254 -0.0328883 -0.747439 -0.61077 
3764 2 -741.871 2550.46 -642.245 0.087661 -0.55621 -0.460714 -0.686067 
3740 2 -750.402 2545 -547.692 -0.301103 -0.771515 0.321942 -0.458753 
3739 2 -755.087 2551.95 -542.488 -0.503691 -0.734246 -0.454103 -0.0311085 
3738 2 -757.606 2558.01 -535.109 -0.160332 -0.2256 -0.920128 0.27706 
3770 2 -695.968 2581.04 -625.542 -0.533591 -0.0631439 -0.550945 -0.638555 
3769 2 -703.616 2575.34 -628.357 -0.80474 0.398055 -0.426641 0.10919 
3768 2 -711.187 2569.42 -630.905 -0.380673 0.624788 0.0454035 0.680196 
3767 2 -718.728 2565.22 -635.662 0.321917 0.366645 0.311001 0.815609 
3765 2 -735.035 2557.48 -643.14 0.631068 -0.521868 0.23469 -0.523763 
3766 2 -726.616 2561.67 -640.344 0.864314 -0.188742 0.453907 -0.106334 
3690 2 -786.576 2554.48 -525.244 -0.0961125 -0.661636 0.686913 0.284871 
3692 2 -793.108 2564.2 -539.849 -0.296868 0.753712 0.5418 0.224144 
3691 2 -792.316 2557.36 -532.742 -0.0596681 0.191595 0.923296 0.3275 
3693 2 -793.307 2570.42 -547.549 -0.350195 0.915848 -0.185772 -0.0638369 
3694 1 -751.941 2571.38 -570.334 -0.305616 -0.0541482 -0.393739 0.865238 
3696 2 -707.827 2556.74 -578.503 -0.920737 0.00178232 -0.140696 0.36393 
3695 3 -747.501 2545.86 -546.722 -0.32401 -0.0678318 -0.369677 0.868191 
3697 2 -705.85 2555.26 -568.927 -0.899761 0.0611745 0.0411582 -0.430109 
3698 2 -706.627 2556.31 -559.042 -0.225626 0.114991 -0.299717 -0.919804 
3699 2 -707.009 2560.85 -550.178 0.582591 -0.0263586 -0.124947 -0.802671 
3700 2 -707.647 2563.86 -540.74 0.987063 -0.0496905 -0.140106 -0.0600645 
3701 2 -710.611 2565.8 -531.509 0.791323 -0.057591 0.0455948 0.60697 
3771 2 -689.575 2586.98 -620.993 -0.0158455 -0.532978 -0.149712 -0.832629 
3689 2 -780.132 2550.62 -518.783 0.254329 -0.885576 -0.191672 0.338131 
3737 2 -760.087 2565.03 -528.631 0.135848 0.645071 -0.666353 0.348428 
3736 2 -760.669 2574.79 -526.562 0.634017 0.761453 0.12058 -0.0606005 
3735 2 -759.963 2584.64 -525.307 0.411718 0.457235 0.574428 -0.539867 
3772 2 -680.703 2590.04 -618.071 0.556069 -0.496437 0.422366 -0.515698 
3773 2 -671.045 2592.04 -617.062 0.820838 0.0483373 0.532396 0.201107 
3702 2 -711.149 2567.4 -521.831 -0.120204 0.0542802 0.0897646 0.987191 
3734 2 -759.35 2593.89 -521.732 -0.13261 -0.144879 0.815395 -0.54457 
3733 2 -760.759 2603.15 -518.428 -0.46066 -0.755953 0.364463 -0.288952 
3732 2 -757.689 2611.83 -514.542 -0.416171 -0.780169 -0.304781 0.353901 
3774 2 -662.427 2593.51 -612.413 0.37006 0.398419 0.310289 0.779768 
3775 1 -650.147 2556.2 -638.625 0.348734 -0.801809 -0.353261 0.332707 
3817 2 -847.443 2718.25 -657.579 0.571309 0.0814464 0.346868 0.739361 
3828 2 -831.052 2762.1 -566.964 -0.0682511 0.0953437 -0.129365 -0.98464 
3818 2 -842.367 2722.07 -649.967 -0.16303 0.311025 0.201246 0.914431 
3820 2 -832.829 2732.66 -636.174 -0.918833 0.240408 -0.237385 -0.203954 
3819 2 -837.585 2727.21 -642.96 -0.781746 0.375403 -0.0742943 0.492368 
3821 2 -829.348 2738.24 -628.837 -0.551022 -0.0505725 -0.212926 -0.805282 
3823 2 -823.445 2743.66 -610.693 0.9704 -0.203477 0.0489945 -0.1205 
3822 2 -827.012 2741.15 -619.635 0.392197 -0.208817 -0.0411422 -0.894921 
3824 2 -821.961 2748.26 -602.027 0.674236 -0.250849 0.00275026 0.694603 
3827 2 -829.898 2759.8 -576.619 -0.845728 0.167172 -0.0203138 -0.506345 
3826 2 -826.306 2753.66 -583.59 -0.879848 0.310663 0.246564 0.261844 
3825 2 -825.116 2751.28 -593.057 -0.262558 -0.0311048 0.120443 0.956864 
3843 2 -757.874 2830.67 -652.813 -0.0977864 0.984703 0.0849422 -0.116546 
3830 3 -784.019 2769.92 -587.546 0.00510485 0.587395 0.792618 0.163396 
3829 1 -785.945 2764.56 -553.072 -0.0141602 0.558852 0.81289 0.163382 
3835 2 -744.189 2794.51 -587.884 -0.117199 0.552673 0.732227 0.380343 
3834 2 -742.581 2787.27 -581.39 0.049129 -0.290153 0.875574 0.383103 
3833 2 -741.03 2779.78 -574.989 0.387526 -0.824358 0.323392 0.256271 
3832 2 -740.706 2773.61 -567.267 0.263951 -0.86133 -0.40635 -0.152707 
3831 2 -739.41 2765.79 -561.265 0.14591 -0.173531 -0.865077 -0.447481 
3836 2 -742.089 2801.45 -594.678 -0.44127 0.886786 -0.0386237 -0.131908 
3837 2 -744.66 2808.91 -600.648 -0.122335 0.54601 -0.760478 -0.329517 
3838 2 -746.383 2815.68 -607.794 0.264841 -0.150924 -0.950625 -0.0582501 
3839 2 -750.095 2818.13 -616.688 0.080559 -0.899971 -0.427837 0.0227478 
3840 2 -751.434 2819.31 -626.499 0.0912842 -0.868092 0.470037 0.130955 
3841 2 -751.707 2821.78 -636.122 -0.0984399 -0.34458 0.874965 0.325592 
3842 2 -754.868 2826.29 -644.43 -0.276456 0.569666 0.76889 0.0886612 
3844 2 -759.927 2833.09 -662.189 0.186478 0.675613 -0.672171 -0.238663 
3882 2 -855.063 2866.64 -577.453 0.849988 0.226668 -0.257204 0.399986 
3881 2 -852.539 2872.44 -584.965 0.89062 0.337291 -0.00820778 -0.304899 
3880 2 -847.219 2875.08 -592.734 0.338277 0.352555 0.0606305 -0.870401 
3879 2 -842.889 2878.41 -600.987 -0.477133 0.123981 0.222952 -0.840991 
3878 2 -837.038 2882.36 -607.94 -0.906934 -0.0634539 0.356393 -0.215472 
3877 2 -828.949 2886.53 -611.962 -0.651454 -0.45599 0.222448 0.56409 
3876 2 -820.118 2887.79 -616.157 0.0772341 -0.503957 -0.133246 0.849887 
3865 2 -726.489 2887.2 -661.462 -0.424569 0.296871 0.311427 -0.796631 
3866 2 -734.528 2885.09 -656.066 0.175119 0.545171 -0.2707 -0.77385 
3883 1 -818.064 2846.97 -555.72 -0.0685846 0.583306 0.691053 0.421304 
3867 2 -743.631 2887.32 -653.021 0.692396 0.064924 -0.706746 -0.129938 
3868 2 -753.518 2887.27 -652.859 0.6234 -0.408743 -0.366803 0.556558 
3869 2 -762.576 2888.43 -648.911 -0.0743298 -0.495131 -0.0753621 0.862346 
3875 2 -811.844 2884.37 -620.35 0.772529 -0.377527 -0.337658 0.382962 
3885 2 -772.029 2842.55 -546.534 -0.406664 0.892397 0.00913963 0.19537 
3886 2 -768.345 2849.78 -552.103 -0.366967 0.600915 -0.673401 -0.225318 
3870 2 -770.658 2886.78 -643.411 -0.614789 -0.49478 0.276898 0.548228 
3884 3 -803.218 2868.61 -578.855 -0.0710227 0.597374 0.670451 0.434277 
3874 2 -802.671 2882.3 -622.903 0.733922 0.132896 -0.586577 -0.315634 
3873 2 -793.573 2881.28 -626.817 0.139973 0.489627 -0.223076 -0.83121 
3871 2 -779.101 2883.61 -638.939 -0.897232 -0.0841472 0.399891 -0.167277 
3872 2 -785.586 2879.79 -632.354 -0.532619 0.418521 0.230689 -0.698527 
3892 2 -768.967 2897.66 -581.475 -0.465393 0.874141 0.0951472 -0.101168 
3891 2 -764.351 2890.38 -576.59 -0.432116 0.406394 0.776033 0.214225 
3890 2 -761.83 2882 -571.945 -0.0574745 -0.25548 0.790484 0.553681 
3893 2 -771.45 2905.29 -587.357 -0.328209 0.680852 -0.456446 -0.469443 
3894 2 -774.517 2913.89 -591.053 -0.028256 -0.0880501 -0.847205 -0.523156 
3895 2 -773.392 2922.96 -595.004 0.357808 -0.65743 -0.476272 -0.461438 
3896 2 -769.892 2931.7 -598.082 0.578882 -0.777932 0.244363 0.00204387 
3897 2 -767.62 2940.92 -600.951 0.426268 -0.444973 0.695271 0.369991 
3889 2 -760.376 2874.12 -566.178 0.369514 -0.796321 0.366337 0.308433 
3888 2 -761.949 2865.03 -562.81 0.532211 -0.768636 -0.22959 -0.270626 
3887 2 -766.086 2857.62 -557.674 -0.0410196 -0.333675 -0.808947 -0.482268 
3898 2 -765.13 2949.42 -605.116 -0.0418215 0.174054 0.788858 0.587928 
3899 2 -764.227 2958.45 -608.936 -0.537604 0.770695 0.27925 0.19756 
3900 2 -764.153 2967.85 -612.071 -0.48265 0.725614 -0.469115 -0.143058 
3901 2 -762.351 2975.81 -617.675 -0.190802 0.122962 -0.822972 -0.520761 
3902 2 -760.157 2984.9 -620.983 0.304818 -0.682114 -0.516683 -0.418144 
3903 2 -757.446 2993.09 -625.688 0.47816 -0.828915 0.266644 -0.114735 
3904 2 -754.077 3000.07 -631.786 0.460098 -0.309208 0.828382 0.0805155 
3909 2 -728.989 3032.06 -656.069 0.205053 -0.799784 -0.176153 -0.535974 
3908 2 -736.561 3026.49 -653.117 -0.274893 -0.293633 -0.777 -0.484236 
3910 1 -731.565 3061.93 -619.632 -0.804786 -0.562935 0.0968367 0.16139 
3911 3 -740.014 3031.17 -605.414 -0.805952 -0.56561 0.118801 0.128111 
3905 2 -747.769 3004.98 -637.623 0.0952154 0.4648 0.806918 0.351823 
3906 2 -744.199 3010.35 -645.05 -0.406473 0.874161 0.142522 0.224299 
3907 2 -740.877 3017.86 -650.784 -0.576562 0.457717 -0.632634 -0.240511 
3912 2 -743.834 3073.48 -575.549 0.752221 0.443735 -0.458238 0.165168 
3913 2 -750.339 3066.41 -572.929 0.48351 -0.12554 -0.231858 0.834685 
3914 2 -754.504 3063.57 -564.587 -0.412735 -0.198179 -0.134151 0.878851 
3915 2 -756.064 3060.02 -555.5 -0.974545 -0.00970983 -0.126269 0.184998 
3916 2 -754.941 3059.62 -545.627 -0.753471 -0.00909589 0.0764306 -0.65296 
3917 2 -755.912 3060.1 -535.903 -0.0368454 0.0027766 0.103048 -0.99399 
3918 2 -755.815 3058.38 -526.234 0.800781 0.140045 0.0799672 -0.576839 
3919 2 -757.013 3055.62 -516.787 0.900772 0.216919 -0.167645 0.336824 
2449 2 -235.16 518.572 -386.853 0.452894 0.862486 0.172815 0.145397 
2448 2 -239.242 527.311 -384.568 0.507695 0.370141 0.682128 -0.37409 
2447 2 -244.733 535.167 -382.068 0.0167324 -0.441594 0.710791 -0.547258 
2450 2 -231.613 511.061 -392.038 0.42626 0.527923 -0.584587 0.444813 
2451 2 -231.715 501.463 -394.759 -0.094151 -0.116676 -0.780201 0.607297 
2446 2 -247.083 543.556 -377.265 -0.454408 -0.865536 0.0844734 -0.192938 
2445 2 -250.159 549.72 -370.328 -0.396288 -0.682429 -0.603084 0.116346 
2444 2 -252.997 556.681 -363.96 -0.106358 -0.0210592 -0.891129 0.440605 
2478 2 -93.5878 688.436 -369.555 0.0259299 0.211529 -0.847359 -0.486381 
2477 2 -91.1764 679.976 -364.967 -0.311152 0.709371 -0.507268 -0.377698 
2751 2 -165.988 1030.57 -419.981 0.245221 -0.1962 -0.246929 -0.916732 
2750 3 -146.93 1078.37 -427.162 0.254513 -0.103704 0.291129 0.916358 
2755 2 -157.615 1055.68 -392.679 -0.690256 0.4311 0.38525 0.435066 
2756 2 -159.041 1064.48 -388.512 -0.831657 0.513194 -0.0621373 -0.202775 
2757 2 -160.048 1073.05 -383.565 -0.471389 0.224178 -0.453408 -0.722466 
2744 2 -111.631 1107.08 -438.873 0.347997 0.182113 -0.91883 -0.0385276 
2743 2 -105.572 1109.23 -431.3 0.272446 0.807099 -0.478319 -0.213482 
2742 2 -99.8535 1110.05 -423.222 -0.0897401 0.88679 0.327565 -0.31345 
2745 2 -118.124 1105.51 -446.15 0.026569 -0.431651 -0.878264 0.204021 
2746 2 -120.589 1102.67 -455.276 -0.0717033 -0.903262 -0.37053 0.204167 
2747 2 -123.537 1098.68 -463.725 -0.225669 -0.76353 0.59911 0.0846277 
2754 2 -157.246 1047.49 -398.111 -0.108856 0.018905 0.424947 0.89845 
2753 2 -158.468 1039.85 -404.25 0.706687 -0.25511 0.318969 0.577729 
2748 2 -127.591 1095.57 -472.312 -0.233658 -0.199863 0.944677 -0.114212 
2749 1 -145.812 1056.08 -454.246 0.335689 -0.114966 0.250882 0.900641 
2752 2 -162.746 1035.38 -411.954 0.817311 -0.314011 0.0778286 -0.476804 
2758 2 -159.669 1081.75 -379.04 0.146311 -0.168578 -0.408775 -0.884917 
2759 2 -158.008 1089.39 -372.874 0.854623 -0.326956 -0.203019 -0.348572 
2741 2 -95.7467 1109.34 -414.287 -0.231768 0.304544 0.923328 -0.0316406 
2740 2 -90.403 1112.02 -406.425 -0.322324 -0.504553 0.800728 0.0191876 
2739 2 -83.5892 1109.43 -399.889 -0.0161322 -0.873073 0.322515 0.365331 
2738 2 -78.0199 1104.87 -393.063 0.361867 -0.804777 -0.452471 0.129061 
2737 2 -71.0728 1101.16 -387.077 0.41685 -0.140404 -0.88742 -0.13787 
2736 2 -63.3971 1100.47 -380.888 0.192285 0.735786 -0.527222 -0.379056 
2760 2 -159.135 1096.75 -366.318 0.803329 -0.403031 0.0767315 0.431673 
2735 2 -57.3327 1097.4 -373.872 -0.238577 0.915919 0.207081 -0.24757 
2734 2 -53.9269 1095.22 -364.756 -0.219996 0.371509 0.901466 0.0306873 
2771 2 -222.009 1168.12 -367.475 -0.184973 0.684486 -0.580237 -0.400735 
2772 2 -225.417 1175.1 -373.736 -0.00103424 -0.0595729 -0.925111 -0.374994 
2773 2 -225.562 1182.05 -380.706 0.270044 -0.719091 -0.59634 -0.233158 
2774 2 -225.643 1188.7 -388.301 0.356087 -0.894652 0.263979 -0.0558186 
2777 3 -273.502 1183.61 -393.219 -0.702285 -0.254014 0.391006 -0.537946 
2775 2 -222.506 1194.52 -395.486 0.232881 -0.258191 0.900913 0.259731 
2776 1 -263.129 1210.19 -413.727 -0.725114 -0.259683 0.342688 -0.537903 
2778 2 -310.026 1210.39 -418.469 -0.521025 -0.186075 -0.200488 0.808526 
2779 2 -311.582 1205.62 -409.908 -0.975254 -0.14551 0.0372044 0.162245 
2780 2 -312.823 1202.09 -400.678 -0.58163 0.0152322 0.227178 -0.780939 
2781 2 -315.78 1198.55 -391.936 0.314645 0.183008 0.0551896 -0.929764 
2782 2 -318.95 1195.98 -382.899 0.945885 0.125306 -0.13031 -0.269481 
2783 2 -321.502 1193.46 -373.672 0.718575 0.17556 -0.231519 0.631845 
2784 2 -322.049 1188.28 -365.286 0.0259834 -0.0733981 -0.324899 0.942538 
2967 2 -262.454 1426.69 -451.531 -0.912702 -0.0537338 -0.0226794 -0.404441 
2968 2 -260.782 1425.59 -441.843 -0.35887 -0.126155 0.148368 -0.912844 
2969 2 -260.245 1421.6 -432.738 0.6091 0.149073 0.122654 -0.76924 
2972 2 -269.268 1413.92 -406 0.173908 -0.123885 0.0392527 0.976149 
2973 2 -272.009 1414.88 -396.586 -0.598827 -0.210192 0.180292 0.751479 
2971 2 -265.39 1416.54 -414.717 0.737697 0.0409545 -0.296078 0.605363 
2974 2 -277.487 1414.82 -388.285 -0.980888 0.0952332 0.162377 -0.0492323 
2975 2 -281.044 1416.13 -379.101 -0.398056 0.154115 0.360763 -0.829246 
2970 2 -261.361 1418.5 -423.572 0.949378 0.109988 -0.221763 -0.193405 
2966 3 -235.36 1399.45 -416.521 0.990994 -0.0969747 0.0098789 0.0918144 
2965 1 -235.686 1387.89 -449.528 0.982713 -0.159607 0.0315228 0.0883577 
2958 2 -215.458 1374.11 -372.621 0.31085 0.673771 -0.670139 0.0178525 
2959 2 -218.893 1369.76 -380.882 -0.00641479 0.0228054 -0.987998 0.152639 
2960 2 -217.917 1367.06 -390.306 -0.0347417 -0.815667 -0.540524 0.203259 
2961 2 -218.83 1363.04 -399.3 -0.131507 -0.940469 0.312729 0.0206118 
2962 2 -219.834 1360.44 -408.707 0.0905968 -0.345272 0.908071 -0.21906 
2963 2 -216.615 1356.94 -417.455 0.25489 0.470357 0.838503 -0.103479 
2957 2 -216.771 1379.94 -364.682 0.376976 0.923258 0.0545474 0.0500767 
2976 2 -286.001 1411.68 -372.001 0.418496 0.363354 0.0829586 -0.828223 
2964 2 -213.737 1353.26 -426.155 0.22599 0.95787 0.0836993 0.156231 
2977 2 -291.481 1407.2 -365.105 0.895229 0.28501 -0.253357 -0.23053 
3637 2 -756.509 2222.66 -511.582 -0.759215 -0.438167 -0.39646 0.272805 
3639 2 -749.115 2204.63 -509.068 -0.11302 -0.4207 0.582146 -0.686545 
3638 2 -753.065 2213.76 -509 -0.634061 -0.695836 0.0137959 -0.337028 
3640 1 -705.336 2222.14 -506.633 0.527718 -0.251049 -0.629755 -0.51176 
3641 3 -725.183 2250.81 -509.849 0.467568 -0.101589 -0.707912 -0.519538 
3649 2 -693.768 2312.89 -473.819 0.310063 0.0596265 -0.530784 -0.786495 
3650 2 -697.536 2321.15 -469.972 0.82928 -0.453612 -0.292555 -0.144713 
3651 2 -700.321 2329.4 -465.468 0.537182 -0.632534 0.267695 0.489567 
3652 2 -703.558 2338.73 -464.178 -0.0731116 -0.188449 0.631307 0.748728 
3653 2 -706.681 2348.17 -463.375 -0.623367 0.426704 0.476302 0.44997 
3654 2 -708.403 2357.67 -461.929 -0.615898 0.730425 -0.205826 -0.211624 
3655 2 -709.521 2367.46 -463.577 -0.0485295 0.433702 -0.60977 -0.66161 
3656 2 -714.052 2376.07 -464.298 0.520324 -0.2677 -0.6923 -0.42228 
3648 2 -691.325 2303.84 -476.601 -0.420692 0.463787 -0.374771 -0.683715 
3647 2 -688.979 2295.51 -481.424 -0.87105 0.488094 0.0114841 -0.0538917 
3646 2 -686.369 2288.49 -487.827 -0.505193 0.0703621 0.422012 0.74949 
3645 2 -686.615 2281.38 -494.594 0.275518 -0.0920465 0.383412 0.876705 
3644 2 -684.757 2273.04 -499.413 0.763023 -0.45673 0.182718 0.419294 
3643 2 -680.017 2264.78 -502.301 0.757299 -0.541045 -0.358762 -0.0711218 
3603 2 -671.477 2332.92 -510.842 -0.0923219 0.765032 0.613328 -0.173294 
3642 2 -673.922 2257.33 -504.765 0.507499 0.0408889 -0.629615 -0.58682 
3561 2 -525.266 2368.25 -511.329 -0.451792 0.359736 0.0177213 -0.816186 
3602 2 -664.903 2332.89 -503.353 -0.344788 0.0848078 0.933674 -0.0466987 
3601 2 -657.628 2332.79 -496.576 -0.322744 -0.656656 0.625901 0.269975 
3584 2 -644.122 2343.13 -383.618 0.901404 0.34766 -0.0741388 0.247199 
3583 2 -646.654 2348.34 -391.575 0.820613 0.166608 0.249556 -0.486372 
3585 2 -643.138 2336.55 -376.302 0.39843 0.158295 -0.309339 0.848826 
3582 2 -648.783 2355.69 -397.99 0.147862 -0.0646402 0.439845 -0.883456 
3600 2 -648.473 2331.77 -493.233 0.185612 -0.805098 -0.173037 0.536119 
3599 2 -640.319 2332.42 -487.748 0.412736 -0.338949 -0.828228 0.169707 
3598 2 -634.235 2330.45 -480.282 0.22011 0.459986 -0.81641 -0.270996 
3597 2 -628.196 2328.84 -472.697 -0.125768 0.926922 -0.0858463 -0.34297 
3596 2 -621.738 2330.91 -465.465 -0.171289 0.685043 0.634981 -0.31333 
3595 2 -613.422 2334.48 -461.426 -0.518106 -0.0642412 0.83842 -0.156497 
3594 2 -605.327 2336.87 -455.991 -0.372222 -0.671513 0.571416 0.289837 
3588 2 -561.372 2334.98 -418.054 -0.312235 0.224184 0.922183 -0.0427754 
3589 2 -567.641 2335.6 -425.722 -0.158886 0.750639 0.544135 -0.33943 
3590 2 -574.115 2334.46 -433.057 0.104593 0.828323 -0.338491 -0.434011 
3586 1 -600.383 2325.82 -393.057 0.463686 -0.627815 -0.565472 -0.266618 
3591 2 -581.766 2335.35 -439.263 0.320684 0.23217 -0.881417 -0.257609 
3592 2 -589.016 2338.3 -445.261 0.401854 -0.508632 -0.705774 0.285813 
3593 2 -597.332 2338.93 -450.611 -0.00520589 -0.885209 -0.156316 0.438114 
3587 3 -607.916 2356.21 -408.892 0.469016 -0.603411 -0.594334 -0.250373 
3581 2 -649.258 2360.59 -406.585 -0.71884 -0.225942 0.119464 -0.646489 
3580 2 -647.859 2367.41 -413.587 -0.902011 -0.382207 0.10736 0.169612 
3579 2 -645.735 2373.77 -420.921 -0.444498 -0.253405 -0.266608 0.816779 
3562 2 -531.316 2371.33 -504.246 0.490299 0.106005 -0.291094 -0.814637 
3563 2 -536.41 2374.44 -496.265 0.93328 0.0581379 -0.308738 -0.174037 
3564 2 -542.182 2374.87 -488.247 0.68148 -0.321121 -0.325454 0.571442 
3578 2 -640.946 2377.76 -428.627 0.53057 -0.111582 -0.314104 0.779348 
3565 2 -549.893 2376.04 -482.144 0.0813097 -0.376704 0.169146 0.907123 
3566 2 -556.132 2379.31 -475.136 -0.661467 -0.191247 0.405699 0.601078 
3577 2 -637.544 2382.55 -436.711 0.947777 0.236639 -0.211216 0.0333074 
3567 2 -563.814 2381.92 -469.533 -0.822566 0.326313 0.461817 -0.0602459 
3657 2 -719.215 2384.51 -464.521 0.507452 -0.791052 -0.316693 0.128194 
3658 2 -724.686 2391.66 -468.637 -0.0211064 -0.767597 0.138823 0.625362 
3659 2 -734.368 2392.67 -470.004 -0.551648 -0.393139 0.644916 0.35385 
3681 2 -726.602 2529.13 -468.211 0.391433 -0.696019 -0.588007 -0.128783 
3680 2 -721.594 2522.54 -462.965 0.26675 0.144265 -0.83598 -0.457351 
3660 2 -744.205 2392.1 -471.667 -0.650111 0.280853 0.693005 -0.134984 
3679 2 -718.578 2516.17 -455.988 -0.166437 0.752425 -0.574836 -0.27517 
3661 2 -754.095 2393.71 -471.805 -0.465202 0.571528 0.178661 -0.651938 
3662 2 -763.258 2396.46 -468.867 0.263849 0.395595 -0.294154 -0.829073 
3663 2 -770.91 2399.6 -463.64 0.843601 0.0113949 -0.412847 -0.343168 
3664 2 -777.636 2401.55 -456.784 0.800441 -0.409266 -0.327489 0.290769 
3666 2 -791.315 2410.18 -445.721 -0.491821 -0.198295 0.358622 0.768233 
3665 2 -785.086 2406.4 -452.308 0.217432 -0.355263 0.086 0.90505 
3678 2 -718.659 2506.88 -452.494 -0.549259 0.807772 0.166998 0.133908 
3677 2 -720.013 2499.05 -446.466 -0.0939835 0.343606 0.829806 0.429562 
3676 2 -722.12 2489.98 -442.721 0.428158 -0.460644 0.700429 0.337471 
3675 2 -719.439 2480.97 -439.691 0.538097 -0.825371 0.028296 0.168564 
3667 1 -755.746 2421.15 -416.82 -0.099166 -0.434228 -0.868 -0.219518 
3669 2 -712.215 2436.52 -407.22 0.28542 -0.677484 0.668651 0.111607 
3670 2 -710.949 2441.9 -415.506 -0.213771 -0.0405445 0.931829 0.290436 
3671 2 -714.93 2447 -422.883 -0.395872 0.77699 0.446702 0.200072 
3672 2 -715.007 2454.34 -429.38 -0.32316 0.882981 -0.190663 -0.282062 
3673 2 -719.164 2462 -434.055 -0.143889 0.219274 -0.787715 -0.557423 
3674 2 -719.232 2471.47 -436.803 0.453377 -0.535124 -0.56526 -0.434251 
3668 3 -744.039 2431.77 -448.142 -0.109758 -0.359164 -0.903731 -0.205489 
3682 2 -730.781 2535.36 -474.599 0.220592 -0.871205 0.120875 0.42158 
3568 2 -571.256 2387.62 -466.187 -0.462857 0.626787 0.101133 -0.618607 
3576 2 -633.382 2387.74 -443.863 0.550047 0.319805 0.131303 -0.760219 
3575 2 -626.828 2393.21 -448.879 -0.438433 0.161406 0.494458 -0.732964 
3574 2 -621.864 2399.05 -455.059 -0.851944 -0.279333 0.361573 -0.255793 
3573 2 -615.297 2403.81 -460.617 -0.655034 -0.485967 0.105564 0.568878 
3569 2 -579.576 2392.25 -463.772 0.146829 0.582888 -0.388926 -0.698154 
3552 2 -599.275 2431.02 -512.508 0.161101 0.920195 0.356735 0.00528244 
3551 2 -601.512 2432.51 -502.918 0.170025 0.243718 0.951933 -0.0742701 
3572 2 -606.552 2402.98 -465.228 0.152815 -0.541157 -0.0206594 0.826662 
3571 2 -596.778 2401.17 -464.952 0.627946 -0.401794 -0.608896 0.271091 
3570 2 -588.341 2396.72 -462.493 0.470784 0.107488 -0.796349 -0.364193 
3550 2 -601.939 2435.03 -493.424 -0.0147519 -0.546079 0.818122 -0.179601 
3549 2 -603.369 2441.96 -486.4 -0.381335 -0.920346 0.00172965 -0.0868512 
3548 2 -604.281 2449.59 -480.058 -0.314382 -0.487359 -0.742195 0.335845 
3547 2 -606.309 2456.57 -473.324 -0.0147132 0.236468 -0.882159 0.407017 
3546 2 -607.911 2463.14 -465.937 0.262423 0.863703 -0.375801 0.209583 
3545 2 -610.115 2468.96 -458.235 0.372081 0.849409 0.371283 -0.0469968 
3544 2 -611.092 2476.21 -451.818 0.196993 0.158358 0.877061 -0.408509 
3543 2 -610.737 2484.92 -447.018 -0.335694 -0.516206 0.701997 -0.357829 