ITEM: TIMESTEP
100000000
ITEM: NUMBER OF ATOMS
4067
ITEM: BOX BOUNDS pp pp pp
-4.6310929470000001e+03 4.6704658980000004e+03
-4.6310929470000001e+03 4.6704658980000004e+03
-4.6310929470000001e+03 4.6704658980000004e+03
ITEM: ATOMS id type x y z c_q[1] c_q[2] c_q[3] c_q[4] 
3910 1 -708.082 3065.82 -825.198 -0.766686 -0.509429 0.171747 -0.350967 
3906 2 -671.821 3022.99 -824.486 -0.529803 0.660884 -0.522667 -0.0967547 
3907 2 -667.895 3030.87 -828.904 -0.114152 0.0724604 -0.821549 -0.553874 
3905 2 -675.039 3015.08 -819.531 -0.460489 0.804276 0.239576 0.289298 
3908 2 -665.927 3039.86 -832.489 0.396719 -0.62931 -0.542759 -0.389866 
3909 2 -665.462 3048.94 -836.534 0.471365 -0.797661 0.332107 0.176796 
3810 2 -685.427 2762.2 -678.307 -0.567881 0.469722 0.219092 -0.639431 
3809 2 -679.216 2756.83 -683.985 -0.869777 0.2653 0.394745 0.131452 
3808 2 -675.652 2750.06 -690.293 -0.393144 0.0542168 0.399278 0.826484 
3807 2 -674.893 2743.39 -697.448 0.537075 -0.223056 0.253501 0.773003 
3806 2 -672.174 2736.01 -703.54 0.881346 -0.454601 -0.0502732 0.118491 
3805 2 -671.881 2730.72 -711.842 0.638944 -0.231343 -0.237691 -0.694071 
3811 2 -693.588 2764.75 -673.185 0.272382 0.424876 -0.356156 -0.786411 
3804 2 -669.258 2724.62 -719.143 0.059354 0.147327 -0.308317 -0.93793 
3812 2 -701.991 2767.91 -669.293 0.847927 0.102568 -0.487782 -0.180468 
3802 1 -622.885 2724.89 -710.732 0.772725 -0.267821 -0.100709 0.566592 
3803 3 -636.219 2737.66 -681.043 0.781883 -0.231328 -0.084092 0.572779 
3801 2 -584.755 2733.45 -684.269 0.202226 -0.186044 0.960521 -0.0434884 
3800 2 -589.494 2733.75 -675.689 0.109103 -0.834988 0.482162 -0.241683 
3902 2 -672.923 2987.7 -810.178 0.641923 -0.754713 -0.00601758 0.135307 
3901 2 -671.351 2977.9 -810.017 0.428188 -0.321677 -0.59596 -0.59834 
3855 2 -759.835 2920.89 -697.37 -0.370741 0.828143 0.237366 -0.346969 
3853 2 -745.592 2914.27 -685.228 -0.292625 -0.393953 0.816511 0.304109 
3854 2 -752.505 2917.01 -691.869 -0.498078 0.387598 0.775278 0.0251003 
3852 2 -741.118 2909.5 -677.68 0.200767 -0.91928 0.18897 0.280904 
3856 1 -755.876 2967.36 -704.399 0.885792 -0.012035 0.380308 -0.265693 
3851 2 -736.346 2904.24 -670.66 0.395496 -0.752909 -0.521643 0.0678142 
3857 3 -729.544 2960.42 -682.512 0.871929 -0.00953442 0.417566 -0.255516 
3862 2 -714.42 2987.09 -674.524 0.618059 0.5395 0.00895936 0.571719 
3863 2 -707.582 2980.75 -671.272 -0.0768852 0.437714 -0.559466 0.699638 
3900 2 -668.115 2968.86 -807.279 -0.0356664 0.345134 -0.739066 -0.577401 
3866 2 -683.891 2964.53 -677.63 -0.100101 -0.663671 0.0883565 -0.736012 
3864 2 -700.693 2973.44 -671.972 -0.547082 -0.0732345 -0.795236 0.250873 
3865 2 -692.506 2969.12 -675.535 -0.584904 -0.562902 -0.536346 -0.231003 
3867 2 -674.369 2962.41 -677.48 0.420044 -0.442288 0.620998 -0.492246 
3899 2 -664.058 2959.85 -807.029 -0.521788 0.736146 -0.177447 -0.39286 
3898 2 -657.628 2952.48 -808.268 -0.765068 0.513943 0.377248 -0.0906541 
3868 2 -664.902 2959.91 -678.525 0.626545 0.248276 0.71696 0.178239 
3897 2 -653.054 2943.84 -808.22 -0.42723 0.164721 0.695826 0.553325 
3869 2 -655.235 2959.59 -680.001 0.216919 0.802288 0.370604 0.414648 
3896 2 -647.583 2935.81 -805.929 0.0422478 -0.493023 0.634078 0.594212 
3895 2 -641.618 2929.94 -800.639 0.440847 -0.821013 -0.156855 0.327089 
3894 2 -634.259 2925.37 -795.904 0.524941 -0.286093 -0.795581 -0.0981786 
3893 2 -627.709 2922.11 -789.125 0.21542 0.572196 -0.711783 -0.34576 
3872 2 -629.927 2958.37 -695.188 -0.294237 -0.743451 -0.527911 -0.286382 
3892 2 -620.122 2918.6 -783.774 -0.138716 0.887682 -0.125734 -0.420679 
3891 2 -613.754 2913.32 -778.294 -0.417024 0.739117 0.514527 -0.122717 
3890 2 -606.667 2906.32 -777.555 -0.457408 -0.0762673 0.694711 0.549853 
3883 1 -544.855 2928.62 -755.727 -0.394266 0.760908 0.190928 -0.478665 
3889 2 -598.783 2900.33 -778.175 0.242785 -0.660582 0.251745 0.664312 
3888 2 -589.614 2896.95 -778.067 0.620335 -0.556614 -0.427252 0.350459 
3885 2 -561.435 2890.46 -777.961 -0.329643 0.730534 0.30101 -0.516768 
3887 2 -580.279 2895.24 -780.708 0.732197 0.0492164 -0.65421 -0.182962 
3886 2 -570.795 2892.28 -780.681 0.244223 0.611913 -0.374365 -0.652509 
3884 3 -577.341 2938.09 -765.006 -0.327787 0.795977 0.252957 -0.441576 
3882 2 -548.363 2972.34 -738.597 0.630103 0.111912 0.643991 0.419192 
3881 2 -557.497 2968.51 -738.865 0.709615 -0.418739 0.536254 -0.183129 
3880 2 -567.25 2967.06 -737.74 0.24517 -0.750634 0.143655 -0.596492 
3879 2 -576.815 2966.55 -735.302 -0.426254 -0.572554 -0.551498 -0.43167 
3878 2 -585.335 2962.68 -732.14 -0.554041 0.237328 -0.796788 -0.0429208 
3877 2 -593.029 2960.1 -726.507 -0.260276 0.864872 -0.253235 0.346592 
3876 2 -598.256 2958.02 -718.396 0.071082 0.784798 0.52702 0.31826 
3875 2 -605.382 2958.81 -711.509 0.413325 0.0484319 0.909293 0.00197308 
3874 2 -614.214 2958.1 -707.13 0.402523 -0.586842 0.624883 -0.321111 
3873 2 -622.249 2956.8 -701.371 0.128129 -0.870613 0.0487507 -0.472481 
3871 2 -638.489 2959.23 -690.304 -0.492597 0.168995 -0.845919 0.114937 
3870 2 -647.166 2958.7 -685.713 -0.177348 0.807347 -0.299283 0.476621 
3939 2 -850.178 3082.12 -684.155 -0.880727 0.239276 -0.00322826 -0.408725 
3940 2 -851.689 3085.28 -674.875 -0.204429 0.13249 -0.227578 -0.942796 
3861 2 -719.909 2993.41 -679.738 0.849495 0.32445 0.370628 -0.189012 
3904 2 -675.656 3006.03 -815.665 -0.171345 0.325644 0.79407 0.483787 
3903 2 -675.286 2997.33 -810.903 0.229025 -0.490799 0.713985 0.443722 
3860 2 -726.074 3000.22 -683.351 0.423521 -0.106054 0.556154 -0.70716 
3937 1 -812.269 3109.5 -690.672 0.612535 -0.00683988 -0.071229 0.787198 
3859 2 -730.298 3005.39 -690.624 -0.381647 -0.341272 0.187765 -0.838226 
3858 2 -736.083 3009.61 -697.517 -0.880312 -0.307878 -0.255682 -0.254734 
3912 2 -750.546 3062.68 -804.826 0.906285 0.27664 0.128666 -0.29251 
3911 3 -705.634 3036.85 -805.8 -0.832819 -0.446452 0.13196 -0.299467 
3921 2 -764.028 3053.93 -720.588 -0.0620799 -0.0233868 -0.0472515 0.996678 
3920 2 -761.873 3054.33 -730.179 0.803479 -0.067145 -0.0609623 0.588385 
3919 2 -761.023 3050.59 -739.354 0.928997 -0.175725 -0.131572 -0.297951 
3916 2 -754.641 3052.9 -768.296 -0.997639 0.0287839 0.0619657 -0.00699366 
3917 2 -757.005 3052.99 -758.615 -0.602272 0.0507663 0.0516939 -0.794996 
3913 2 -749.682 3056.73 -797.096 0.848943 -0.0485525 -0.0232476 0.525735 
3914 2 -750.402 3056.37 -787.328 0.121959 -0.142912 -0.0780522 0.979086 
3915 2 -752.639 3054.55 -777.891 -0.668603 -0.127331 -0.0189477 0.732392 
3918 2 -759.488 3051.96 -749.112 0.33411 0.113354 -0.00155941 -0.935692 
3922 2 -764.849 3052.53 -710.858 -0.786828 -0.0518184 -0.0134679 0.614846 
3923 2 -765.03 3052.31 -701.018 -0.965724 0.0763807 -0.0811158 -0.234444 
3924 2 -764.545 3054.48 -691.489 -0.284517 0.00149698 -0.208962 -0.935619 
3925 2 -763.434 3058.54 -682.505 0.465266 -0.234282 -0.252726 -0.815334 
3926 2 -761.366 3064.74 -675.105 0.921402 -0.364513 -0.0197539 -0.13326 
3936 2 -776.155 3135.88 -675.672 -0.183349 0.97638 0.107635 -0.0384652 
3927 2 -760.906 3072.03 -668.21 0.75842 -0.281594 0.229459 0.541159 
3504 2 -409.65 2016.46 -538.276 0.100612 0.24352 0.875592 -0.404863 
3503 2 -409.368 2024.02 -531.731 -0.211017 -0.431103 0.796495 -0.367718 
3502 2 -405.656 2032.3 -527.875 -0.503114 -0.809553 0.279811 0.114917 
3501 2 -404.084 2038.74 -520.6 -0.224738 -0.704892 -0.605428 0.293389 
3764 2 -738.707 2672.76 -544.652 0.303238 -0.423785 0.851244 -0.0619392 
3767 2 -727.53 2677.42 -571.732 -0.168504 0.618829 -0.763677 -0.073858 
3768 2 -726.046 2680.99 -580.829 0.0655664 -0.238246 -0.953795 -0.170927 
3766 2 -730.705 2675.01 -562.694 -0.0804342 0.97213 0.144141 0.166485 
3765 2 -734.085 2673.4 -553.486 0.0853829 0.387506 0.893192 0.211558 
3763 2 -741.963 2668.57 -536.144 0.221793 -0.951034 0.177186 -0.122259 
3762 2 -746.756 2666.22 -527.614 -0.0748273 -0.762494 -0.593465 -0.246582 
3761 2 -751.181 2662.08 -519.849 -0.284301 0.066516 -0.938086 -0.186395 
3769 2 -725.165 2684.31 -590.061 0.263719 -0.887739 -0.349765 -0.141548 
3770 2 -724.925 2690.2 -598.013 0.0100936 -0.922073 0.329501 0.202753 
3813 2 -710.156 2769.17 -663.95 0.751877 -0.328261 -0.154089 0.55062 
3771 2 -728.558 2692.14 -606.953 -0.0312792 -0.389154 0.85536 0.340501 
3772 2 -732.048 2697.69 -614.25 -0.239925 0.274538 0.923134 0.122018 
3773 2 -735.524 2701.68 -622.73 -0.366681 0.895328 0.111128 -0.227121 
3774 2 -740.366 2707.69 -628.954 -0.0522738 0.639628 -0.638865 -0.424258 
3814 2 -716.104 2771.98 -656.531 0.121897 -0.172832 0.354724 0.910736 
3816 2 -717.586 2786.84 -643.577 -0.8744 0.476767 0.0823944 -0.0364545 
3815 2 -717.726 2778.74 -649.493 -0.517059 0.276742 0.397644 0.705651 
3817 2 -718.934 2795.43 -638.681 -0.463816 0.3296 -0.34419 -0.746841 
3818 2 -720.005 2804.06 -633.848 0.274617 -0.0838732 -0.531522 -0.796891 
3819 2 -721.077 2813.23 -630.391 0.875463 -0.419432 -0.110974 -0.212896 
3776 3 -725.649 2737.69 -589.137 -0.847866 -0.256813 -0.460312 0.0572922 
3775 1 -752.615 2748.47 -608.598 -0.859443 -0.214875 -0.459562 0.0631529 
3777 2 -745.627 2784.32 -578.783 -0.371137 0.0802138 -0.607709 0.697505 
3778 2 -738.983 2777.61 -575.52 -0.829604 -0.168715 -0.521329 -0.107279 
3779 2 -730.134 2776.12 -571.221 -0.413353 -0.468894 -0.348951 -0.698219 
3780 2 -720.567 2776.59 -568.464 0.160676 -0.537855 0.337161 -0.755789 
3781 2 -711.56 2772.66 -566.954 0.682868 -0.0120653 0.628296 -0.372544 
3782 2 -702.983 2768.48 -564.39 0.586869 0.751016 0.29837 0.0503464 
3783 2 -698.038 2760.55 -567.591 0.276243 0.728475 -0.294393 0.553486 
3784 2 -691.472 2753.65 -570.381 -0.25042 0.329903 -0.693558 0.589433 
3820 2 -722.226 2820.59 -624.001 0.601214 -0.525586 0.237129 0.553237 
3785 2 -684.483 2747.38 -573.531 -0.390625 -0.388999 -0.832234 0.0589767 
3821 2 -725.603 2829.43 -620.952 -0.0770818 -0.282507 0.3537 0.888338 
3822 2 -731.427 2835.21 -615.232 -0.700814 0.112603 0.574209 0.407999 
3786 2 -677.833 2744.44 -580.235 -0.0334491 -0.93807 -0.169679 -0.30019 
3787 2 -671.197 2745.14 -587.587 0.391584 -0.6149 0.599178 -0.330977 
3799 2 -591.89 2733.19 -666.117 -0.0414219 -0.930181 -0.349238 -0.105266 
3798 2 -597.405 2735.9 -658.309 -0.310485 -0.326942 -0.892394 0.0184462 
3797 2 -603.199 2737.99 -650.548 -0.18419 0.4841 -0.807241 0.28299 
3796 2 -608.305 2740.42 -642.267 0.0704205 0.953477 -0.0859596 0.280239 
3788 2 -662.563 2746.06 -592.241 0.427867 0.123215 0.888646 0.109801 
3789 2 -654.673 2746.54 -598.309 0.12759 0.662787 0.592596 0.439618 
3795 2 -611.694 2743.24 -633.529 0.188878 0.665469 0.721865 -0.019689 
3790 2 -647.554 2749.82 -604.261 -0.324283 0.856081 -0.125846 0.382269 
3791 2 -640.425 2753.95 -609.694 -0.523313 0.0862523 -0.84003 0.114254 
3794 2 -617.574 2745.29 -625.693 0.228855 -0.220499 0.929794 -0.185712 
3793 2 -624.273 2749.1 -619.703 -0.0922874 -0.824209 0.31162 -0.463741 
3792 2 -631.74 2752.92 -614.305 -0.436254 -0.716434 -0.494909 -0.22687 
3850 2 -730.909 2897.98 -665.131 0.348164 -0.0694659 -0.884632 -0.302294 
3823 2 -738.063 2841.92 -612.66 -0.770715 0.52932 0.297441 -0.193254 
3849 2 -724.029 2893.7 -659.539 0.0556398 0.728454 -0.48052 -0.485139 
3848 2 -717.508 2889.53 -653.25 -0.30669 0.851054 0.220393 -0.364796 
3847 2 -711.223 2885.95 -646.463 -0.452505 0.4573 0.76503 -0.0290677 
3824 2 -745.431 2848.15 -610.366 -0.324835 0.644765 -0.282106 -0.631804 
3825 2 -751.422 2855.96 -610.13 0.329727 0.113857 -0.424806 -0.835378 
3846 2 -706.922 2881.88 -638.507 -0.132435 -0.301743 0.912773 0.241365 
3830 3 -725.829 2851.94 -570.18 0.459371 0.652568 0.575816 0.177679 
3834 2 -689.284 2862.27 -538.203 -0.373869 0.851907 -0.285905 0.229639 
3835 2 -683.362 2867.28 -544.202 -0.250264 0.405237 -0.879006 -0.0223282 
3833 2 -697.429 2860.64 -532.826 0.120842 0.771271 0.440541 0.443241 
3832 2 -705.169 2858.43 -527.03 0.342215 0.384356 0.81265 0.273421 
3836 2 -679.071 2870.74 -552.411 -0.0561772 -0.560241 -0.823582 -0.0684563 
3837 2 -676.631 2871.62 -561.95 0.0166466 -0.982246 -0.150949 -0.110135 
3829 1 -747.962 2869.45 -549.632 0.483651 0.617098 0.611636 0.105699 
3826 2 -756.647 2861.93 -604.299 0.893437 -0.087938 -0.312792 -0.310158 
3827 2 -762.235 2865.59 -597.009 0.555229 -0.494994 -0.0141272 0.668208 
3828 2 -768.938 2870.78 -591.852 -0.0996834 -0.332557 0.326316 0.879197 
3845 2 -699.977 2879.9 -631.726 0.0383131 -0.884431 0.242359 0.396957 
3844 2 -693.937 2878.95 -623.877 0.204359 -0.784331 -0.538384 0.230663 
3843 2 -689.108 2877.51 -615.393 0.274715 -0.147001 -0.950178 -0.00922393 
3842 2 -681.973 2876.37 -608.591 0.245756 0.61277 -0.694267 -0.286551 
3841 2 -676.377 2877.62 -600.459 0.0385022 0.950147 0.0808593 -0.298665 
3840 2 -673.933 2875.72 -590.906 -0.127383 0.473019 0.871617 -0.0176237 
3839 2 -673.822 2873.37 -581.278 0.0250074 -0.337671 0.93169 0.131554 
3838 2 -674.187 2871.44 -571.516 0.0926349 -0.854992 0.501388 0.0949611 
3831 2 -712.571 2858.32 -520.521 0.375117 -0.297806 0.864713 -0.151228 
3941 2 -852.807 3090.03 -666.265 0.60011 -0.0419114 -0.294921 -0.742383 
3942 2 -855.853 3095.77 -658.802 0.911976 -0.383502 -0.131878 0.0619169 
3943 2 -858.791 3102.99 -652.714 0.350873 -0.341688 0.288268 0.822824 
3944 2 -862.406 3110.02 -646.809 -0.495712 -0.161022 0.373078 0.767564 
3945 2 -867.799 3113.35 -639.269 -0.952345 0.0665104 0.284724 0.0868764 
3946 2 -872.649 3114.46 -630.651 -0.608195 0.335445 -0.0339185 -0.718627 
3947 2 -877.304 3119.63 -623.551 0.13986 0.368686 -0.267379 -0.879215 
3948 2 -884.606 3123.25 -617.731 0.62884 -0.0920895 -0.591941 -0.495666 
3949 2 -891.691 3129.62 -615.17 0.753408 -0.530778 -0.272455 0.276441 
3984 2 -849.912 3099.6 -538.06 -0.761543 -0.411698 0.254801 -0.430852 
3983 2 -849.832 3108.09 -543.257 -0.865376 -0.470206 -0.0530632 0.164969 
3982 2 -854.781 3115.93 -546.956 -0.454233 -0.000140165 -0.574493 0.680904 
3981 2 -858.607 3123.31 -552.498 0.414938 0.331631 -0.279146 0.799953 
3985 2 -850.502 3090.76 -533.673 -0.166812 -0.206952 0.597468 -0.756556 
3986 2 -848.931 3081.12 -531.536 0.528816 0.291564 0.620796 -0.499956 
3987 2 -845.23 3072.14 -529.731 0.792704 0.520944 0.312783 -0.0490413 
3980 2 -861.979 3132.12 -555.391 0.793382 0.585361 0.134942 0.0984317 
3988 2 -841.042 3063.53 -527.198 0.601578 0.518033 -0.24236 0.55768 
3989 2 -837.655 3054.84 -523.893 -0.163534 0.0747058 -0.605621 0.775177 
3990 2 -834.46 3045.97 -521.04 -0.769643 -0.466066 -0.356139 0.252186 
3979 2 -867.428 3140.45 -555.622 0.466406 0.13387 0.72164 -0.493741 
3950 2 -898.558 3135.5 -611.071 0.251809 -0.652733 0.219071 0.680103 
3951 2 -906.05 3141.98 -611.456 -0.438882 -0.12316 0.748603 0.481463 
3935 2 -775.524 3132.84 -666.211 -0.118057 0.506533 0.848906 0.094053 
3938 3 -815.401 3108.21 -655.88 0.574549 -0.0209976 -0.0927179 0.812931 
3928 2 -760.341 3079.7 -661.987 -0.156007 0.0266444 0.435208 0.88631 
3929 2 -761.755 3087.59 -656.007 -0.816916 0.451117 0.229472 0.276558 
3930 2 -763.539 3095.94 -651.318 -0.654857 0.556997 -0.303847 -0.410601 
3931 2 -764.225 3105.49 -648.977 0.0802264 0.199459 -0.548653 -0.807935 
3934 2 -774.964 3129.61 -656.933 0.0184418 -0.376622 0.905191 0.196072 
3933 2 -772.213 3122.87 -650.216 0.383124 -0.919789 0.0510411 0.0678137 
3932 2 -769.166 3114.06 -647.091 0.504607 -0.542834 -0.60464 -0.291744 
3966 2 -975.844 3155.33 -524.053 -0.161444 0.717342 0.358436 0.575222 
3959 2 -977.6 3171.38 -616.115 -0.709459 0.266555 0.634725 -0.150803 
3960 2 -987.457 3172.76 -616.105 -0.399731 0.420706 0.314309 -0.751287 
3961 2 -996.443 3171.27 -612.14 0.264802 0.519978 0.00922654 -0.812045 
3965 3 -975.312 3171.94 -573.336 0.302371 0.335028 0.70981 0.54083 
3962 2 -1004.71 3168.1 -607.728 0.636536 0.594265 -0.370826 -0.322736 
3963 2 -1013.56 3163.62 -607.435 0.622295 0.00469865 -0.71555 0.317356 
3964 1 -1002.78 3153.06 -562.801 0.295237 0.35813 0.724417 0.509704 
3952 2 -913.841 3147.98 -613.291 -0.651104 0.558218 0.508341 -0.077753 
3978 2 -873.619 3148.11 -554.884 -0.0312576 -0.487657 0.558551 -0.67025 
3958 2 -967.826 3169.68 -616.808 -0.600406 -0.330671 0.581817 0.437788 
3967 2 -969.032 3161.89 -527.062 -0.37167 0.762028 -0.477032 0.231549 
3968 2 -961.467 3164.73 -532.837 -0.561866 0.0471829 -0.822838 -0.0708397 
3977 2 -881.224 3154.42 -554.89 -0.453676 -0.711149 -0.0117392 -0.536943 
3976 2 -889.902 3159.1 -555.039 -0.705583 -0.447265 -0.521759 -0.172841 
3975 2 -898.382 3163.67 -553.105 -0.487859 0.157608 -0.766028 0.387755 
3969 2 -952.692 3166.01 -537.328 -0.313827 -0.536471 -0.667449 -0.410151 
3971 2 -935.25 3169.66 -545.983 0.336501 -0.625966 0.619922 -0.332612 
3970 2 -944.048 3168.13 -541.756 0.0511964 -0.836211 -0.0383908 -0.544661 
3974 2 -907.711 3167.19 -553.159 -0.0329907 0.62077 -0.309491 0.719563 
3953 2 -921.59 3153.99 -615.044 -0.199083 0.753665 -0.132867 -0.612129 
3954 2 -930.41 3158.24 -617.264 0.269975 0.442808 -0.590237 -0.618592 
3955 2 -939.158 3163.07 -617.784 0.670694 -0.278618 -0.687411 0.00269405 
3973 2 -917.265 3169.47 -553.477 0.508091 0.631815 0.361311 0.460552 
3972 2 -926.969 3170.48 -551.412 0.651223 0.0217803 0.757739 -0.0355691 
3957 2 -957.966 3168.95 -616.668 -0.142407 -0.696635 0.188574 0.677392 
3956 2 -948.362 3166.73 -618.02 0.553385 -0.57809 -0.321312 0.506297 
2964 2 -179.166 1270.6 -406.631 -0.467523 -0.858385 -0.147413 0.15122 
2963 2 -178.011 1278.94 -401.421 -0.16157 -0.427615 -0.778147 0.430731 
2965 1 -202.248 1248.61 -371.903 0.370933 -0.228083 0.505059 0.745186 
2962 2 -178.741 1288.43 -398.547 0.209846 0.296388 -0.738639 0.567918 
2961 2 -178.415 1297.61 -394.578 0.579911 0.792118 -0.162628 0.0990199 
2960 2 -176.296 1305.57 -389.188 0.246503 0.665314 0.605898 -0.359835 
2959 2 -176.121 1313.3 -383.136 -0.0309709 -0.0995712 0.90708 -0.407838 
2994 2 -200.162 1310.47 -479.032 -0.704281 0.458466 0.264064 -0.473357 
2995 2 -208.234 1314.78 -475.361 -0.241324 0.34428 -0.169986 -0.891257 
2966 3 -203.316 1282.14 -362.309 0.335266 -0.258716 0.54643 0.722549 
2997 2 -218.921 1323.55 -461.35 0.916801 -0.189871 -0.344717 0.0677843 
3001 2 -238.524 1334.76 -429.282 -0.874717 0.223364 0.0799197 -0.4226 
3000 2 -234.834 1333.45 -438.445 -0.880475 -0.015691 0.181748 0.437591 
3002 2 -242.458 1338.03 -420.807 -0.312342 0.174271 -0.160939 -0.919875 
2999 2 -230.419 1329.59 -446.525 -0.193182 -0.185738 0.263013 0.926826 
2998 2 -225.378 1326.82 -454.563 0.591797 -0.344025 -0.0367154 0.728062 
3003 2 -244.437 1341.21 -411.742 0.533373 -0.0369403 -0.139683 -0.833449 
3007 2 -246.232 1357.71 -376.906 -0.806974 0.259638 0.367182 0.382828 
3004 2 -245.728 1343.57 -402.265 0.984858 -0.127209 -0.0246142 -0.115184 
3005 2 -245.054 1346.69 -392.919 0.693197 -0.15058 0.223353 0.668519 
3006 2 -244.485 1351.48 -384.24 -0.153563 -0.0202236 0.361951 0.919239 
3008 2 -250.303 1364.34 -370.77 -0.641214 0.625734 -0.00445459 -0.444164 
3009 2 -254.956 1373.1 -369.145 -0.117215 0.327695 -0.544812 -0.762926 
3010 2 -258.16 1382.32 -367.414 0.608326 -0.212983 -0.524821 -0.556004 
3011 2 -261.627 1390.67 -363.574 0.738424 -0.650386 -0.149333 0.0970916 
3012 2 -264.383 1400.02 -361.783 0.339763 -0.540004 0.493285 0.591293 
3013 2 -267.94 1409.29 -362.416 -0.283603 -0.171603 0.714295 0.616364 
2979 2 -215.836 1345.45 -372.881 -0.220626 0.061381 -0.887283 -0.400357 
3018 2 -273.435 1454.36 -373.85 0.583077 -0.805759 0.0643588 -0.0814406 
3015 2 -276.463 1426.47 -367.318 -0.539728 0.803523 -0.0953986 -0.232255 
3014 2 -272.975 1417.6 -364.561 -0.544038 0.538871 0.590451 0.254968 
3016 2 -278.238 1435.65 -370.536 -0.3504 0.216191 -0.678014 -0.608915 
3017 2 -276.064 1445.29 -370.793 0.218439 -0.49194 -0.6353 -0.553781 
2978 2 -217.984 1338.8 -365.749 -0.364893 0.778737 -0.505462 -0.0702105 
2996 2 -213.409 1318.65 -467.866 0.5849 0.0592925 -0.400864 -0.702627 
2980 2 -211.517 1352.88 -377.709 -0.110552 -0.626441 -0.592493 -0.494269 
2958 2 -172.685 1322.11 -380.513 -0.583049 -0.566967 0.551669 -0.185105 
2981 2 -204.292 1357.66 -382.319 0.355279 -0.852654 0.250192 -0.290107 
2982 2 -197.4 1362.24 -387.82 0.351483 -0.361005 0.861899 0.0571355 
2983 2 -191.878 1366.44 -394.71 0.0907643 0.406514 0.809103 0.414561 
2957 2 -169.094 1328.79 -374.193 -0.322451 -0.913297 0.00943379 0.248647 
2992 1 -168.092 1344.87 -476.038 0.476872 -0.248192 -0.137574 0.831906 
2993 3 -187.368 1349.19 -447.117 0.466839 -0.264375 -0.137663 0.832596 
2991 2 -148.952 1383.22 -456.311 0.0712463 0.860475 0.389094 0.32111 
2990 2 -155.416 1382.04 -448.773 0.326211 0.140987 0.931508 0.0774725 
2989 2 -161.733 1382.01 -441.067 0.249138 -0.643842 0.678468 -0.251154 
2988 2 -168.296 1378.55 -434.533 0.176718 -0.928876 -0.0352628 -0.323599 
2987 2 -174.731 1376.24 -427.298 -0.203871 -0.557267 -0.766706 -0.245055 
2986 2 -180.944 1376.08 -419.564 -0.327337 0.302925 -0.889085 0.103029 
2985 2 -182.771 1373.77 -410.157 -0.189608 0.841965 -0.505107 -0.00331185 
2984 2 -187.495 1372.1 -401.636 -0.038857 0.934499 0.261786 0.238054 
2956 2 -162.588 1333.93 -368.713 0.100416 -0.549184 -0.676469 0.480316 
3043 2 -173.599 1461.06 -364.296 -0.731466 0.654647 0.119339 0.148836 
3042 2 -175.582 1451.47 -362.224 -0.268716 0.422647 0.638574 0.584281 
3045 2 -175.471 1480.02 -366.784 0.148351 0.0354564 -0.806502 -0.571217 
3044 2 -172.879 1470.93 -364.132 -0.414292 0.655977 -0.408928 -0.480452 
3211 2 -570.958 1720.05 -423.861 -0.0149522 0.442658 0.31603 0.83902 
3212 2 -563.867 1725.87 -420.361 -0.736841 0.467369 -0.106145 0.476827 
3210 2 -574.953 1713.57 -430.172 0.633894 -0.117823 0.413939 0.642613 
3213 2 -557.749 1732.4 -415.788 -0.702477 0.347295 -0.59553 -0.176794 
3208 1 -529.223 1702.35 -432.326 0.796139 -0.350291 0.221003 0.441154 
3209 3 -530.259 1726.44 -407.122 0.807316 -0.325579 0.247563 0.425385 
3214 2 -550.885 1739.38 -414.136 -0.360902 -0.250239 -0.572124 -0.692679 
3215 2 -543.08 1745.5 -413.045 0.323399 -0.513232 -0.163267 -0.778042 
3216 2 -536.002 1751.26 -409.166 0.70101 -0.559025 0.372838 -0.238887 
3217 2 -529.184 1758.29 -407.714 0.577399 -0.0716434 0.72592 0.366767 
3218 2 -521.701 1764.69 -408.419 0.12994 0.412292 0.547646 0.71639 
3199 2 -514.938 1739.68 -362.938 -0.496024 -0.425886 -0.756216 0.0268083 
3219 2 -514.16 1771.15 -408.282 -0.432073 0.694351 0.0317124 0.574616 
3207 2 -483.845 1707.24 -420.21 -0.255105 -0.884376 -0.31477 0.231776 
3206 2 -481.45 1713.37 -412.812 0.0128594 -0.346472 -0.870928 0.348249 
3205 2 -483.316 1717.14 -403.808 -0.0265614 0.42595 -0.872643 0.237391 
3204 2 -486.621 1720.61 -395.098 0.120927 0.965283 -0.148143 0.177932 
3203 2 -490.388 1724.84 -386.948 0.328705 0.544433 0.76605 -0.093341 
3202 2 -492.36 1728.37 -377.804 0.0812436 -0.0949252 0.97449 -0.186436 
3201 2 -499.623 1730.55 -371.582 0.115073 -0.793406 0.439087 -0.405546 
3200 2 -507.422 1735.14 -367.672 -0.371228 -0.822195 -0.148246 -0.405226 
3261 2 -590.079 1791.9 -434.612 0.288436 0.479013 0.31513 -0.766841 
3260 2 -584.124 1799.28 -437.309 -0.409833 0.0915654 0.585961 -0.693038 
3262 1 -596.612 1801.78 -388.976 0.328717 -0.00926392 0.815567 0.47614 
3259 2 -579.023 1807.22 -440.275 -0.815881 -0.397646 0.396726 -0.1372 
3258 2 -575.538 1816.07 -443.023 -0.591166 -0.586644 -0.203132 0.514888 
3257 2 -570.051 1824.35 -442.907 0.159692 -0.235965 -0.688393 0.667034 
3256 2 -563.282 1831.58 -443.637 0.632461 0.195618 -0.685253 0.303572 
3255 2 -554.464 1835.98 -444.533 0.631517 0.542927 -0.373794 -0.408282 
3254 2 -546.352 1841.7 -444.818 0.0911264 0.653899 0.331617 -0.673901 
3263 3 -580.964 1830.49 -400.966 0.334489 0.0250188 0.819647 0.464404 
3253 2 -537.55 1846.19 -445.136 -0.567388 0.118539 0.689778 -0.433849 
3252 2 -530.34 1852.52 -447.724 -0.825729 -0.398355 0.393797 0.0664026 
3251 2 -521.672 1857.38 -448.505 -0.40858 -0.680358 0.0990575 0.600303 
3272 2 -538.924 1880.62 -365.933 0.0747258 -0.513999 -0.426013 -0.740766 
3273 2 -532.223 1887.77 -364.794 0.666812 -0.723792 0.0447064 -0.17172 
3274 2 -528.695 1896.93 -365.438 0.596043 -0.393805 0.492694 0.496894 
3271 2 -544.984 1873.06 -363.765 -0.443288 0.101273 -0.788284 -0.414545 
3267 2 -576.066 1849.69 -362.517 0.620217 -0.502833 0.540621 -0.26499 
3275 2 -526.601 1906.4 -364.377 -0.0637584 0.0800925 0.662258 0.74225 
3276 2 -525.795 1916.18 -363.968 -0.79034 0.414465 0.298567 0.33829 
3270 2 -551.481 1865.58 -363.505 -0.693515 0.62823 -0.332983 0.116127 
3269 2 -559.289 1859.34 -362.558 -0.175074 0.689908 0.304465 0.632991 
3268 2 -567.102 1853.49 -364.077 0.533537 0.110568 0.643677 0.537394 
3250 2 -513.974 1863.05 -450.835 0.171925 -0.369524 -0.5055 0.760502 
3220 2 -507.09 1778.11 -407.472 -0.750618 0.433657 -0.493268 -0.0721206 
3249 2 -505.04 1866.75 -452.1 0.749051 0.11158 -0.637098 0.14345 
3248 2 -496.235 1869.78 -448.889 0.392398 0.792987 -0.258045 -0.388083 
3221 2 -499.954 1784.83 -406.737 -0.369317 -0.0807368 -0.720978 -0.580756 
3222 2 -494.132 1792.82 -407.464 0.19318 -0.662948 -0.118911 -0.713472 
3223 2 -485.526 1797.8 -406.662 0.73954 -0.446853 0.339738 -0.371458 
3245 2 -471.221 1869.37 -433.038 -0.405962 -0.64006 0.515679 0.399491 
3246 2 -480.307 1868.31 -437.273 -0.475038 0.119182 0.862219 -0.129279 
3247 2 -488.576 1868.57 -442.748 -0.261689 0.846283 0.330606 -0.325612 
3244 2 -462.172 1873.01 -431.263 -0.129735 -0.770315 -0.182759 0.596979 
3243 2 -452.364 1874.56 -430.269 0.473415 -0.452306 -0.593605 0.4679 
3242 2 -443.075 1877.75 -430.465 0.664246 0.289075 -0.68649 -0.062806 
3241 2 -433.561 1880.8 -431.214 0.309108 0.697174 -0.143665 -0.630683 
3240 2 -423.813 1882.82 -430.969 -0.388635 0.494681 0.496519 -0.598098 
3239 2 -414.01 1881.39 -431.474 -0.711299 0.040608 0.701314 0.0237275 
3236 3 -419.357 1852.23 -400.518 0.470156 -0.153768 -0.782575 0.378002 
3235 1 -389.567 1866.84 -389.267 0.459894 -0.136809 -0.78325 0.395347 
3238 2 -404.284 1882.93 -432.838 -0.398392 -0.574537 0.371897 0.610642 
3237 2 -394.414 1884.4 -432.841 0.0876266 -0.676726 -0.163563 0.712468 
3224 2 -477.249 1800.86 -402.265 0.699239 -0.035075 0.533714 0.474324 
3225 2 -469.366 1804.52 -397.531 0.135196 0.432521 0.135247 0.88111 
3226 2 -461.898 1805.77 -391.294 -0.658659 0.406578 -0.215749 0.595244 
3227 2 -454.069 1808.34 -385.887 -0.789827 0.0690654 -0.520857 -0.316403 
3228 2 -446.363 1812.43 -381.006 -0.383153 -0.366066 -0.450785 -0.718319 
3229 2 -437.965 1815.59 -376.941 0.450816 -0.533931 -0.00167547 -0.715318 
3230 2 -430.157 1820.06 -372.687 0.895924 -0.28238 0.319934 -0.123384 
3231 2 -423.913 1824.49 -366.194 0.666933 0.132429 0.480679 0.553725 
3531 2 -572.725 2022.1 -513.497 -0.185356 -0.558016 0.805501 0.0736907 
3530 2 -569.81 2023.15 -504.061 -0.0686106 -0.98216 -0.0309928 0.172319 
3529 2 -565.544 2022.52 -495.062 0.227674 -0.612641 -0.745731 0.129308 
3528 2 -558.95 2022.18 -487.604 0.339289 -0.00254711 -0.93971 -0.0426754 
3532 1 -607.371 1993.36 -499.538 -0.527531 -0.045345 -0.227727 -0.817187 
3534 2 -629.958 1966.83 -467.787 0.715813 -0.285554 0.0877078 -0.631172 
3535 2 -625.028 1969.61 -459.618 0.956308 -0.158209 0.218792 0.112139 
3536 2 -620.985 1971.74 -450.841 0.4413 -0.0131439 0.316814 0.839471 
3537 2 -618.804 1976.52 -442.427 -0.530238 0.262762 0.121603 0.796879 
3533 3 -590.82 2000.85 -469.745 -0.519229 -0.10235 -0.179683 -0.829241 
3538 2 -616.309 1981.38 -434.267 -0.828079 0.447964 -0.321618 0.100868 
3539 2 -609.956 1988.21 -430.556 -0.565297 -0.00475702 -0.664421 -0.488837 
3540 2 -602.487 1994.47 -428.668 0.194494 -0.441936 -0.425664 -0.765294 
3541 2 -597.534 2002.6 -425.91 0.642485 -0.673605 0.164506 -0.326201 
3526 2 -543.314 2019.99 -476.428 -0.226813 0.842949 0.0904551 -0.479386 
3525 2 -537.064 2015.31 -470.397 -0.441704 0.437809 0.781638 0.0475584 
3527 2 -551.528 2022.79 -481.144 0.291693 0.753793 -0.508525 -0.296839 
3542 2 -590.891 2009.74 -424.074 0.654769 -0.362323 0.511654 0.42215 
3543 2 -587.055 2018.58 -421.823 0.153617 0.130096 0.433349 0.878457 
3544 2 -583.262 2026.15 -416.714 -0.677749 0.362216 0.267263 0.5814 
3524 2 -529.258 2009.79 -468.083 -0.375396 -0.225635 0.748918 0.497282 
3545 2 -581.097 2033.93 -411.129 -0.772185 0.582925 -0.0990573 -0.232629 
3546 2 -580.878 2043.24 -407.725 -0.435005 0.261914 -0.643665 -0.572597 
3547 2 -578.211 2052.82 -406.972 0.250262 -0.26438 -0.585033 -0.724713 
3548 2 -577.656 2062.54 -405.117 0.684969 -0.625071 -0.168615 -0.334174 
3549 2 -576.77 2072.46 -404.824 0.537796 -0.686332 0.464006 0.156276 
3523 2 -519.668 2008.14 -467.619 -0.0212699 -0.67817 0.120179 0.7247 
3500 2 -402.62 2043.85 -512.216 0.0700364 -0.0601387 -0.938451 0.332849 
3505 1 -395.847 1983.54 -507.281 -0.076701 -0.153172 0.43187 0.885519 
3499 2 -400.192 2048.54 -503.938 0.259938 0.763593 -0.589079 0.0484059 
3506 3 -409.437 2008.58 -487.016 -0.112906 -0.154727 0.465137 0.864268 
3498 2 -398.898 2052.02 -494.694 0.0769035 0.955665 0.258631 -0.117897 
3522 2 -510.359 2005.05 -466.65 0.625486 -0.469153 -0.591447 0.197112 
3521 2 -500.434 2004.93 -465.281 0.595247 0.290988 -0.704115 -0.2554 
3520 2 -490.739 2003.04 -466.558 0.0917679 0.6007 -0.175339 -0.774593 
3507 2 -389.9 1966.48 -463.703 0.184574 0.0461435 -0.77651 -0.600696 
3508 2 -393.323 1975.72 -464.847 0.752918 -0.332826 -0.533786 -0.193425 
3509 2 -399.269 1983.46 -463.236 0.642747 -0.593295 -0.0443067 0.482612 
3510 2 -406.201 1989.95 -460.424 -0.00990372 -0.481348 0.473743 0.73741 
3511 2 -412.788 1997.3 -459.257 -0.655765 0.0780652 0.678411 0.321925 
3519 2 -481.493 2004.22 -469.304 -0.5027 0.426548 0.378814 -0.649499 
3517 2 -465.363 2014.03 -470.036 -0.467396 -0.716587 -8.66649e-05 0.51773 
3516 2 -455.896 2016.05 -469.326 0.264428 -0.60745 -0.461056 0.590348 
3515 2 -446.626 2013.27 -466.874 0.650347 -0.295516 -0.699475 0.0212759 
3514 2 -437.301 2012.46 -463.606 0.441414 0.495366 -0.658789 -0.354632 
3512 2 -421.259 2002.34 -458.759 -0.579524 0.625153 0.48971 -0.183086 
3513 2 -428.965 2007.67 -461.649 -0.193578 0.738058 -0.183491 -0.619782 
3423 2 -465.514 1972.14 -399.066 -0.0920994 -0.753947 -0.592725 0.267877 
3518 2 -472 2006.78 -470.044 -0.744164 -0.202098 0.628615 0.101089 
3424 1 -474.854 2014.69 -417.166 -0.979051 0.142035 -0.133161 0.0596138 
3422 2 -462.741 1976.36 -390.528 0.17263 -0.0189682 -0.953683 0.245617 