ITEM: TIMESTEP
100000000
ITEM: NUMBER OF ATOMS
4067
ITEM: BOX BOUNDS pp pp pp
-4.6310929470000001e+03 4.6704658980000004e+03
-4.6310929470000001e+03 4.6704658980000004e+03
-4.6310929470000001e+03 4.6704658980000004e+03
ITEM: ATOMS id type x y z c_q[1] c_q[2] c_q[3] c_q[4] 
3912 2 -887.381 2860.89 -554.338 -0.512302 0.216069 -0.415844 0.719677 
3914 2 -874.339 2860.65 -541.5 -0.648239 0.112091 -0.228874 -0.717522 
3913 2 -880.227 2857.25 -548.632 -0.939441 0.175886 -0.285582 0.0704114 
3915 2 -871.19 2865.9 -533.562 0.201109 -0.261643 -0.21801 -0.91846 
3910 1 -915.575 2851.81 -517.59 -0.326607 0.254247 -0.595252 0.688739 
3916 2 -868.161 2871.22 -525.765 0.807791 -0.201292 0.0396307 -0.552616 
3917 2 -865.155 2874.56 -516.987 0.924391 -0.302831 0.210429 0.0975408 
3967 2 -741.988 2965.42 -551.487 -0.146874 0.0952136 -0.734709 -0.655413 
3966 2 -743.504 2955.59 -551.822 -0.699444 0.640486 -0.276174 -0.155831 
3969 2 -741.433 2985.03 -551.167 0.748794 -0.643177 -0.157145 0.0306045 
3968 2 -740.799 2975.15 -551.522 0.43243 -0.437181 -0.572937 -0.541868 
3993 2 -688.96 2950.25 -561.011 0.275417 0.0209896 -0.793465 -0.542326 
3994 2 -692.991 2958.93 -563.308 0.522902 -0.654779 -0.478541 -0.262366 
3995 2 -693.734 2968.67 -564.957 0.56913 -0.743016 0.297453 0.188523 
3996 2 -692.493 2978.07 -567.909 0.16095 -0.346934 0.768875 0.512409 
3997 2 -694.145 2986.59 -572.912 -0.279682 0.315274 0.592587 0.686455 
3991 1 -643.512 2958.2 -550.93 -0.625494 0.584398 -0.208175 -0.473181 
3990 2 -607.17 2985.83 -539.024 0.136845 -0.461009 0.774235 -0.411467 
3992 3 -658.099 2989.88 -547.462 -0.602288 0.618121 -0.167416 -0.4766 
3989 2 -613.604 2991.06 -533.658 -0.154145 -0.815458 0.328842 -0.450701 
3998 2 -692.567 2996.34 -572.391 -0.6559 0.680097 0.0649704 0.321003 
3970 2 -743.589 2994.58 -549.99 0.571261 -0.334026 0.457463 0.593983 
3971 2 -742.559 3003.45 -545.721 -0.10428 0.266652 0.548071 0.785901 
3972 2 -738.746 3012.3 -543.28 -0.714584 0.488076 0.108735 0.489212 
4012 2 -775.906 3091.05 -568.644 -0.773543 0.399902 0.490903 -0.0269199 
4009 2 -749.825 3078.14 -564.198 0.529755 -0.640528 -0.422516 0.361336 
4003 2 -705.022 3041.18 -573.082 0.161006 -0.570083 0.420062 0.687481 
4002 2 -699.441 3033.17 -574.521 0.653938 -0.663222 -0.0823596 0.354568 
4001 2 -695.403 3024.25 -573.845 0.637677 -0.5629 -0.461352 -0.252319 
4000 2 -693.123 3015.05 -571.017 0.0064266 0.104458 -0.811529 -0.574863 
3999 2 -689.67 3005.8 -571.656 -0.518145 0.640146 -0.239675 -0.514095 
4013 2 -783.928 3096.52 -566.541 -0.281045 0.749518 -0.0861257 -0.593143 
4014 2 -792.364 3101.62 -567.857 0.387701 0.156744 -0.654782 -0.629587 
4015 2 -799.999 3107.7 -567.073 0.596016 -0.365828 -0.708649 0.0935508 
4004 2 -712.248 3047.8 -572.59 -0.521603 -0.05949 0.63081 0.571376 
4005 2 -718.866 3054.93 -570.279 -0.786112 0.362256 0.493541 0.084954 
4006 2 -725.679 3061.73 -568.093 -0.403067 0.67372 -0.0425057 -0.617925 
4007 2 -733.765 3067.33 -566.726 0.316836 0.303837 -0.523862 -0.729977 
4008 2 -741.046 3073.37 -563.991 0.703147 -0.15849 -0.674595 -0.159329 
4011 2 -767.894 3085.8 -566.214 -0.409278 -0.178481 0.788726 0.422548 
4010 2 -758.823 3081.54 -566.168 0.105642 -0.681274 0.204582 0.694875 
4016 2 -808.874 3110.57 -570.503 0.269389 -0.845133 -0.265511 0.377735 
4017 2 -816.292 3113.44 -576.311 -0.100024 -0.767952 0.476837 0.415779 
3973 2 -735.558 3020.1 -538.17 -0.792035 0.299532 -0.464202 -0.259765 
3974 2 -730.363 3027.6 -534.34 -0.348594 -0.172997 -0.515867 -0.763174 
3975 2 -723.455 3033.15 -529.836 0.263048 -0.489485 -0.173362 -0.813115 
3976 2 -715.874 3037.99 -525.873 0.820349 -0.364174 0.38315 -0.218176 
3977 2 -708.158 3042.11 -521.175 0.592429 0.292303 0.642131 0.388915 
3978 2 -698.268 3043.7 -521.481 0.17545 0.714219 0.119709 0.666917 
3979 2 -688.476 3042.9 -521.743 -0.441446 0.585486 -0.338762 0.589552 
3980 2 -678.63 3043.68 -520.826 -0.673444 -0.0700587 -0.718945 0.157106 
3981 2 -669.08 3040.93 -521.721 -0.627321 -0.593133 -0.295116 -0.40935 
3988 2 -619.863 2998.51 -531.814 -0.64262 -0.69114 -0.267322 -0.19469 
3987 2 -623.983 3005.75 -526.482 -0.393548 -0.259924 -0.826572 0.307145 
3986 2 -630.044 3012.71 -522.805 -0.10223 0.429064 -0.750605 0.491981 
3985 2 -636.298 3019.44 -519.306 0.291794 0.819526 -0.215864 0.443436 
3984 2 -643.361 3026.37 -518.66 0.686292 0.581545 0.418446 0.12535 
3983 2 -651.797 3031.03 -520.871 0.591599 -0.148906 0.61213 -0.503125 
3982 2 -660.443 3036.05 -521.249 -0.0292401 -0.634147 0.281502 -0.719555 
4018 1 -818.842 3159.84 -584.187 -0.97611 0.0524218 -0.151424 0.146739 
4020 2 -817.825 3205.05 -570.614 0.800435 -0.0469773 0.267483 -0.534369 
4021 2 -813.026 3203.82 -562.063 0.878549 0.119037 0.13583 0.442191 
4022 2 -809.501 3203.11 -552.768 0.207597 -0.0129417 -0.0145651 0.97802 
4023 2 -809.416 3202.33 -543.023 -0.652473 -0.000338692 -0.133287 0.745998 
4024 2 -807.447 3200.68 -533.492 -0.99425 -0.00578713 -0.0787541 0.0723282 
4025 2 -805.73 3200.28 -523.737 -0.668531 0.124018 -0.0409771 -0.732125 
4019 3 -809.17 3157.85 -550.592 -0.992571 -0.0269302 -0.114006 0.0328659 
4026 2 -806.663 3202.84 -514.114 0.263052 0.0937913 0.0345155 -0.959591 
2236 1 -27.6452 193.079 -362.283 0.76652 -0.167464 -0.262772 -0.561563 
2238 2 10.2638 221.146 -362.286 0.416228 -0.383822 0.218133 0.794892 
2260 2 5.46307 407.518 -366.842 -0.0409883 0.0601713 0.928011 0.365371 
2261 2 4.77025 414.094 -374.165 -0.311498 0.733793 0.580166 0.167103 
2262 2 3.23053 420.3 -381.811 -0.305469 0.858748 -0.361927 -0.195576 
2724 2 36.7889 1003.88 -364.119 0.607511 0.25666 -0.169469 -0.73235 
3100 1 -407.975 1475.2 -362.409 -0.38309 0.297043 0.330668 0.809732 
3341 2 -658.649 1768.86 -393.951 -0.443733 -0.237581 -0.827041 0.250317 
3342 2 -652.518 1762.73 -398.731 -0.441951 -0.801037 -0.355504 -0.191408 
3338 2 -671.068 1784.28 -372.325 0.287185 0.495618 0.818882 -0.036321 
3337 2 -676.641 1788.79 -365.443 0.118593 -0.548431 0.713673 -0.41932 
3340 2 -663.77 1774.99 -387.905 -0.0232856 0.548788 -0.726956 0.412097 
3339 2 -666.457 1780.63 -380.342 0.301375 0.941177 0.00049019 0.152835 
3343 1 -641.509 1798.44 -427.626 0.938844 -0.184611 -0.0995974 -0.273078 
3344 3 -642.815 1813.77 -396.061 0.931165 -0.204404 -0.0917003 -0.287648 
3345 2 -631.976 1843.6 -437.074 0.796085 0.0621535 0.128763 0.588053 
3346 2 -629.42 1844.25 -427.633 0.0721892 0.146776 0.0334681 0.985964 
3347 2 -626.62 1844.38 -418.041 -0.749105 0.290754 0.0585499 0.592348 
3348 2 -624.561 1848.86 -409.533 -0.972813 0.0962121 -0.166881 -0.128562 
3349 2 -620.785 1851.19 -400.598 -0.499468 0.00464249 -0.262486 -0.825598 
3350 2 -618.987 1854.97 -391.688 0.385169 -0.0450402 -0.258041 -0.884891 
3373 2 -556.481 1898.95 -440.913 -0.172365 0.0884807 0.536605 0.82129 
3372 2 -557.336 1891.73 -447.783 0.600719 -0.197815 0.275516 0.723945 
3374 2 -556.792 1907.96 -436.927 -0.652692 0.475185 -0.044783 0.588376 
3375 2 -551.427 1914.38 -431.741 -0.770047 0.302144 -0.497361 -0.261475 
3351 2 -619.326 1860.03 -383.188 0.944875 -0.219723 -0.0776578 -0.230005 
3376 2 -545.767 1921.36 -427.751 -0.265929 -0.157261 -0.42017 -0.853234 
3371 3 -535.251 1885.66 -401.136 -0.90854 0.362919 0.110683 -0.174911 
3370 1 -522.463 1867.01 -427.846 -0.916948 0.332966 0.0850409 -0.202752 
3352 2 -619.543 1865.29 -374.857 0.721759 -0.215735 0.0933297 0.651008 
3365 2 -522.953 1859.07 -363.786 0.407214 -0.0252499 0.912878 -0.0139106 
3366 2 -515.161 1859.25 -369.929 0.29156 0.637771 0.674817 0.229918 
3353 2 -620.806 1869.83 -366.245 -0.0942751 0.0549794 0.140164 0.984095 
3367 2 -508.86 1858.05 -377.332 0.0553271 0.915318 -0.0947473 0.387497 
3368 2 -501.941 1856.96 -384.374 -0.144625 0.477987 -0.793355 0.348139 
3369 2 -496.007 1853.07 -391.444 -0.403301 -0.316313 -0.854726 0.0820845 
3377 2 -541.187 1927.63 -421.662 0.303335 -0.496661 -0.120777 -0.804195 
3378 2 -534.649 1933.14 -416.657 0.81506 -0.404489 0.344359 -0.231262 
3379 2 -527.897 1938.01 -411.586 0.797534 0.055927 0.380416 0.464861 
3380 2 -521.268 1940.45 -404.699 0.108382 0.465659 0.325501 0.81576 
3381 2 -513.178 1945.06 -401.461 -0.538728 0.66366 -0.119965 0.504911 
3382 2 -505.057 1950.43 -400.078 -0.593301 0.407965 -0.67534 -0.159609 
3383 2 -498.413 1957.41 -402.722 -0.291569 -0.23271 -0.769675 -0.518106 
3386 2 -476.056 1973.48 -413.029 0.531056 -0.257051 0.798417 0.120147 
3387 2 -467.546 1976.78 -416.956 0.408644 0.498411 0.612664 0.457427 
3384 2 -491.989 1964.55 -405.396 0.175642 -0.754705 -0.314438 -0.548361 
3385 2 -484.714 1969.93 -409.469 0.471316 -0.735578 0.37144 -0.314355 
3388 2 -457.986 1977.44 -419.107 -0.0267173 0.796563 -0.0414513 0.602541 
3401 2 -390.561 2043.88 -440.884 -0.706341 0.173037 0.306878 -0.613976 
3402 2 -397.201 2043.46 -433.457 0.083843 0.396964 0.00107746 -0.913996 
3404 2 -412.004 2042.96 -420.497 0.680138 -0.418287 -0.342553 0.495082 
3403 2 -404.527 2042.9 -426.972 0.82784 0.185064 -0.41064 -0.334377 
3400 2 -383.112 2043.39 -447.444 -0.912354 -0.0100191 0.404135 0.0646939 
3399 2 -376.255 2042.31 -454.59 -0.523001 -0.307702 0.316842 0.728972 
3398 3 -400.215 2003.22 -430.439 -0.874675 0.0417632 0.419095 0.239915 
3389 2 -448.5 1976.46 -421.891 -0.449821 0.418599 -0.628199 0.477285 
3390 2 -438.971 1974.13 -423.545 -0.600379 -0.214259 -0.756478 0.146218 
3397 1 -373.598 1995.28 -451.425 -0.864845 0.0639331 0.451789 0.209386 
3391 2 -430.759 1969.13 -425.564 -0.517601 -0.729289 -0.147945 -0.422303 
3392 2 -423.009 1963.17 -427.016 0.0802296 -0.730159 0.192316 -0.650727 
3396 2 -385.414 1953.56 -432.669 -0.325842 0.461706 -0.52011 0.640422 
3393 2 -413.338 1962.17 -429.073 0.51414 -0.330501 0.720323 -0.327969 
3395 2 -394.617 1957.09 -432.348 0.283361 0.698178 0.0467459 0.655796 
3394 2 -403.73 1960.99 -430.93 0.651618 0.476992 0.577261 0.121007 
3405 2 -420.639 2044.33 -415.881 0.0613667 -0.426771 0.15357 0.88911 
3406 2 -428.435 2047.42 -410.419 -0.573446 -0.104462 0.573719 0.575408 
3407 2 -436.773 2052.27 -407.836 -0.746922 0.363797 0.524174 -0.187088 
3409 2 -452.382 2062.45 -402.48 0.157713 0.321876 -0.493143 -0.792674 
3408 2 -445.684 2056.34 -406.387 -0.384837 0.539554 -0.154966 -0.732644 
3410 2 -458.679 2069.72 -400.037 0.753611 -0.192787 -0.446816 -0.44188 
3411 2 -463.118 2076.68 -394.519 0.896396 -0.358987 -0.142209 0.217667 
3453 2 -288.782 1979.9 -429.926 -0.445659 0.688893 -0.198346 -0.536166 
3454 2 -293.693 1988.49 -430.066 -0.064882 0.211171 -0.633183 -0.741806 
3455 2 -296.518 1998.04 -429.57 0.367056 -0.502558 -0.627435 -0.468007 
3463 2 -273.961 2061.56 -464.845 0.361819 -0.870567 0.224022 -0.247009 
3456 2 -297.064 2007.24 -433.032 0.455092 -0.886407 0.0717772 0.0449681 
3457 2 -296.964 2015.2 -438.871 0.29812 -0.480467 0.750818 0.341392 
3458 2 -295.894 2023.41 -444.32 -0.0701503 0.323377 0.75334 0.568318 
3459 2 -293.38 2032.24 -447.782 -0.453561 0.823572 0.164468 0.298265 
3451 1 -274.053 1985.4 -385.43 0.586035 -0.801491 -0.109139 -0.047582 
3452 3 -273.18 2017.97 -398.319 0.627252 -0.751542 -0.183899 -0.0889974 
3460 2 -289.777 2040.47 -452.123 -0.587028 0.628841 -0.504544 -0.0734352 
3461 2 -284.811 2048.67 -454.688 -0.3209 -0.047923 -0.870829 -0.3693 
3462 2 -278.988 2055.45 -459.139 0.097297 -0.67618 -0.567637 -0.459458 
3464 2 -268.148 2066.72 -470.94 0.509305 -0.398928 0.750225 0.13648 
3465 2 -261.593 2072.78 -475.429 0.247796 0.23706 0.767367 0.5418 
3441 2 -332.15 2040.72 -362.791 0.113429 -0.635302 0.170884 -0.744529 
3440 2 -341.995 2041.56 -364.574 -0.504522 -0.489822 -0.381518 -0.599981 
3439 2 -351.415 2041.91 -361.565 -0.630575 0.0276353 -0.775236 0.0249132 
3558 2 -673.771 2206.44 -437.039 0.284611 0.609575 0.527747 -0.518554 
3557 2 -669.926 2214.86 -433.552 -0.232509 0.00546515 0.813594 -0.532893 
3556 2 -664.242 2222.92 -433.564 -0.693677 -0.57306 0.436338 0.00487414 
3559 1 -660.934 2180.75 -399.651 -0.0631861 -0.278751 -0.636503 -0.716359 
3560 3 -644.173 2211.06 -394.481 -0.136827 -0.297135 -0.589711 -0.738397 
3555 2 -655.76 2228.1 -433.271 -0.294378 -0.734902 -0.0380936 0.609762 
3412 2 -468.101 2082.11 -387.927 0.518723 -0.185846 0.0894696 0.829688 
3413 2 -469.161 2085.84 -378.744 -0.231884 0.0106767 0.218937 0.947725 
3414 2 -470.274 2089.25 -369.6 -0.922831 0.0632073 0.146209 0.35073 
3513 2 -396.05 2178.56 -390.196 0.248073 -0.814211 -0.197276 0.486417 
3514 2 -404.928 2180.31 -394.181 -0.209676 -0.674636 0.520513 0.479549 
3515 2 -413.354 2182.59 -398.916 -0.456374 0.120642 0.838484 0.272237 
3516 2 -420.152 2187.65 -404.204 -0.511286 0.729278 0.427747 -0.154182 
3517 2 -426.696 2193.31 -408.904 -0.254227 0.80877 -0.318503 -0.424046 
3518 2 -432.429 2199.95 -413.391 0.0560123 0.367034 -0.81414 -0.446458 
3519 2 -436.6 2207.18 -418.792 0.299017 -0.497018 -0.773139 -0.256551 
3520 2 -437.248 2214.09 -425.863 0.39409 -0.897956 -0.194895 0.0195717 
3512 2 -387.143 2177.72 -386.179 0.525245 -0.283386 -0.795178 0.107253 
3521 2 -439.179 2220.14 -433.356 0.226924 -0.69348 0.603298 0.321904 
3511 2 -377.999 2174.87 -383.817 0.377735 0.326073 -0.753515 -0.428027 
3522 2 -441.465 2226.89 -440.221 -0.179491 -0.0537994 0.899114 0.39558 
3510 2 -369.625 2175.53 -378.797 0.0979891 0.854347 -0.231514 -0.454853 
3509 2 -361.125 2178.68 -374.969 -0.221226 0.599003 0.581189 -0.504454 
3466 2 -254.787 2079.34 -478.549 -0.105508 0.653277 0.401431 0.633206 
3467 2 -247.679 2086.02 -480.235 -0.560987 0.783185 -0.195158 0.183927 
3480 2 -264.195 2193.83 -502.138 0.77934 0.545602 -0.307619 0.0178401 
3481 2 -269.046 2185.43 -499.862 0.366524 0.0478437 -0.674625 0.638947 
3482 2 -272.176 2176.59 -496.83 -0.420089 -0.469514 -0.358953 0.688647 
3468 2 -241.557 2093.33 -482.694 -0.56562 0.35893 -0.671901 -0.3159 
3469 2 -236.179 2101.64 -484.2 -0.163613 -0.407954 -0.617332 -0.652461 
3483 2 -275.586 2167.62 -494.551 -0.858991 -0.507652 -0.00662761 0.066173 
3484 2 -276.574 2158.74 -490.27 -0.545449 -0.195769 0.434649 -0.689377 
3485 2 -278.877 2150.75 -484.869 0.158322 0.0482702 0.186181 -0.968473 
3498 2 -279.84 2130.57 -364.425 -0.681537 0.0057057 0.24647 -0.689005 
3497 2 -278.974 2134.5 -373.493 -0.98019 -0.166465 0.0719496 0.0796324 
3496 2 -276.575 2138.85 -382.039 -0.584237 -0.258751 -0.137063 0.75692 
3495 2 -273.02 2142.08 -390.8 0.165399 -0.172908 -0.179178 0.954275 
3494 2 -271.181 2144.09 -400.249 0.822149 0.0291501 -0.127471 0.554052 
3493 2 -269.985 2144.61 -410.078 0.925258 0.0715615 -0.0641325 -0.366964 
3487 2 -278.382 2143.58 -467.097 0.898106 0.106027 0.175568 0.389024 
3488 2 -273.624 2141.73 -458.572 0.24273 0.157849 -0.0101446 0.957112 
3486 2 -280.185 2145.97 -476.466 0.861425 0.032837 0.144695 -0.485728 
3489 2 -271.471 2141.18 -449.028 -0.636397 0.129536 -0.054276 0.758468 
3490 2 -268.541 2141.48 -439.604 -0.991445 0.128235 -0.0148841 0.0192735 
3492 2 -268.471 2144.8 -419.911 0.277992 0.102883 0.00276953 -0.955054 
3491 2 -268.278 2143.49 -429.772 -0.665162 0.00258781 -0.00275587 -0.746689 
3479 3 -237.434 2154.86 -480.796 0.690037 0.323268 -0.514154 0.393691 
3478 1 -220.612 2185.17 -486.21 0.632321 0.313001 -0.585927 0.39861 
3470 2 -229.618 2108.81 -485.93 0.430238 -0.72989 0.0489767 -0.528921 
3471 2 -221.166 2114.25 -485.802 0.739699 -0.388638 0.543318 0.0813012 
3508 2 -355.943 2183.24 -367.961 -0.310297 -0.283736 0.895424 -0.146374 
3472 2 -213.609 2120.4 -484.078 0.509536 0.152169 0.447434 0.719041 
3473 2 -207.538 2126.09 -478.75 -0.391521 0.529508 0.117203 0.743368 
3474 2 -201.048 2131.95 -474.219 -0.792289 0.576818 -0.14015 0.141127 
3475 2 -198.004 2141.09 -471.88 -0.542963 0.212852 -0.650392 -0.486698 
3476 2 -192.525 2149.39 -470.945 0.0654604 -0.355373 -0.471175 -0.804624 
3477 2 -187.063 2157.24 -468.333 0.674586 -0.57851 0.000484406 -0.458541 
3554 2 -649.28 2235 -430.373 0.116713 -0.33395 -0.753512 0.554144 
3553 2 -642.47 2241.85 -428.666 0.630872 0.288548 -0.687888 0.213427 
3552 2 -635.236 2248.3 -426.792 0.553664 0.73902 -0.249115 -0.291972 
3551 2 -629 2255.87 -427.375 0.128885 0.481154 0.449895 -0.741265 
3550 2 -621.918 2262.58 -425.391 -0.3862 0.0979651 0.805411 -0.438824 
3549 2 -614.414 2268.4 -428.016 -0.805205 -0.332972 0.486576 0.0633947 
3548 2 -607.038 2274.7 -429.974 -0.474969 -0.648199 0.0344788 0.594184 
3547 2 -599.45 2279.5 -434.349 0.233085 -0.33634 -0.447506 0.795163 
3546 2 -592.261 2285.1 -438.268 0.793557 0.154176 -0.529366 0.257428 
3545 2 -584.954 2288.49 -444.171 0.788547 0.337371 -0.292761 -0.422688 
3544 2 -577.537 2290.54 -450.173 0.222551 0.415401 0.0348049 -0.881307 
3543 2 -570.799 2291.56 -457.438 -0.606896 0.304039 0.251639 -0.689867 
3542 2 -562.549 2294.52 -462.086 -0.880166 -0.168541 0.442704 0.0302493 
3540 2 -545.372 2302.18 -463.245 0.10078 -0.606778 -0.494586 0.614043 
3541 2 -553.502 2296.85 -465.284 -0.441753 -0.539792 0.273952 0.66214 
3539 2 -536.275 2305.06 -460.62 0.522926 -0.0150474 -0.830661 0.190591 
3538 2 -526.641 2306.54 -462.751 0.660776 0.376859 -0.563419 -0.322354 
3537 2 -517.909 2310.91 -464.311 0.172579 0.615156 0.173489 -0.749467 
3536 2 -512.496 2319.26 -464.796 -0.394235 -0.0497519 0.724688 -0.562966 
3535 2 -511.007 2329.03 -464.087 -0.610905 -0.670034 0.349676 -0.235746 
3534 2 -509.968 2338.92 -463.518 -0.553648 -0.661119 -0.32804 0.385727 
3523 2 -445.158 2233.82 -446.261 -0.428715 0.677072 0.512927 0.307706 
3533 3 -475.548 2300.09 -462.463 -0.539978 -0.436719 0.587345 -0.415603 
3531 2 -424.113 2306.4 -460.013 -0.688926 0.519389 -0.484857 -0.143282 
3530 2 -429.108 2297.95 -460.636 -0.625516 0.679689 0.0598593 0.378379 
3529 2 -432.937 2289.01 -458.933 -0.0482693 0.416427 0.640655 0.643288 
3528 2 -434.148 2279.28 -458.182 0.448644 -0.488125 0.600551 0.44698 
3527 2 -438.316 2270.72 -455.252 0.547056 -0.797945 0.0983781 -0.233099 
3526 2 -443.233 2262.31 -453.277 0.0987222 -0.492855 -0.580286 -0.640793 
3525 2 -444.416 2252.51 -452.089 -0.23282 0.240005 -0.748032 -0.573272 
3524 2 -445.884 2242.71 -450.947 -0.627842 0.718276 -0.275676 -0.117888 
3532 1 -463.238 2332.8 -461.135 -0.598817 -0.484195 0.541102 -0.33791 
3588 2 -592.377 2465.23 -364.495 -0.272041 0.332625 -0.563902 0.705244 
3589 2 -584.568 2459.52 -363.041 -0.541625 -0.195107 -0.706905 0.410927 
3590 2 -579.593 2451.26 -364.911 -0.578637 -0.704905 -0.292893 -0.287232 
3591 2 -572.647 2444.72 -367.652 -0.0349758 -0.649307 0.369721 -0.663689 
3592 2 -564.515 2439.2 -367.988 0.598379 -0.0753282 0.74011 -0.297499 
3593 2 -555.301 2435.58 -368.63 0.71716 0.402316 0.50459 0.263082 
3594 2 -545.652 2433.05 -367.979 0.182693 0.558678 -0.128876 0.798682 
3595 2 -537.221 2429.63 -364.16 -0.577697 0.139642 -0.491974 0.636183 
3855 2 -972.109 2683.9 -408.695 -0.347567 -0.789239 0.0796427 -0.499957 
3639 2 -527.462 2646.6 -398.274 0.378722 -0.775092 -0.100579 0.495668 
3638 2 -518.953 2641.81 -396.277 0.6352 -0.40602 -0.656433 0.0276503 
3637 2 -509.925 2637.79 -395.596 0.506821 0.166069 -0.741873 -0.406421 
3667 1 -375.303 2571.21 -441.445 0.846088 -0.507686 -0.130256 -0.0970754 
3659 2 -370.893 2629.89 -401.118 -0.85888 -0.426598 -0.203907 0.196876 
3658 2 -371.001 2638.07 -406.733 -0.302515 -0.101247 -0.501863 0.803969 
3657 2 -370.394 2647.34 -410.301 0.630309 0.432612 -0.370809 0.527312 
3656 2 -370.263 2657.09 -411.97 0.730716 0.604878 0.193132 -0.250751 
3670 2 -379.977 2607.69 -478.674 0.157533 -0.110999 0.758315 0.622753 
3669 2 -379.8 2597.87 -480.195 0.676116 -0.6055 0.240616 0.344008 
3671 2 -378.052 2617.35 -479.706 -0.238283 0.620812 0.387399 0.638542 
3672 2 -372.484 2625.36 -480.504 -0.675021 0.683831 -0.260188 0.094991 
3668 3 -379.595 2603.52 -428.68 0.844203 -0.501152 -0.166889 -0.0911867 
3673 2 -367.96 2634.14 -481.556 -0.549045 0.303268 -0.531047 -0.569709 
3674 2 -365.732 2643.53 -478.698 0.132003 -0.362883 -0.563377 -0.730409 
3655 2 -371.571 2665.99 -416.205 0.382383 0.197495 0.500551 -0.751151 
3654 2 -375.124 2674.7 -419.166 -0.198438 -0.383393 0.508732 -0.744865 
3636 2 -500.994 2635.61 -391.995 0.0782624 0.73932 -0.376299 -0.552883 
3635 2 -491.297 2635.01 -389.683 -0.381981 0.661055 0.429543 -0.482276 
3660 2 -368.714 2622.15 -395.33 -0.608342 -0.519349 0.382655 -0.462353 
3634 2 -482.626 2631.27 -386.919 -0.60957 0.333666 0.718784 -0.0209775 
3661 2 -368.128 2612.54 -393.59 -0.117355 0.0513036 0.709918 -0.692541 
3641 3 -482.947 2668.24 -414.115 -0.536455 -0.103836 -0.70133 0.457789 
3662 2 -369.542 2602.74 -394.469 0.526019 0.524798 0.354867 -0.567415 
3663 2 -372.157 2593.48 -392.541 0.731117 0.668451 -0.135465 0.0170307 
3664 2 -374.361 2583.83 -391.785 0.323638 0.336819 -0.695049 0.546552 
3665 2 -374.458 2574.18 -393.483 -0.245869 -0.246266 -0.688067 0.636761 
3633 2 -474.991 2627.09 -382.216 -0.34032 -0.322272 0.782074 0.41071 
3632 2 -469.16 2621.15 -376.792 0.235491 -0.829182 0.225769 0.453904 
3653 2 -381.758 2681.51 -421.942 -0.656095 -0.568865 -0.131404 -0.478189 
3666 2 -374.233 2564.39 -394.85 -0.627148 -0.656013 -0.321826 0.269741 
3631 2 -464.502 2617.19 -368.945 0.261615 -0.7552 -0.596413 0.0743139 
3652 2 -390.616 2685.43 -423.573 -0.778717 -0.243891 -0.573531 0.0719649 
3649 2 -419.359 2687.26 -428.41 0.641704 0.228649 0.627977 0.376271 
3675 2 -361.555 2652.3 -477.272 0.64522 -0.505585 -0.0722552 -0.568202 
3648 2 -429.183 2687.47 -428.994 0.637167 -0.324422 0.618326 -0.326255 
3676 2 -357.226 2660.13 -473.19 0.924905 -0.326831 0.178989 0.0754629 
3677 2 -354.239 2666.67 -466.54 0.416801 -0.10157 0.453097 0.781449 
3678 2 -351.736 2674.55 -461.17 -0.450094 0.401926 0.387626 0.696862 
3679 2 -348.987 2683.24 -457.318 -0.761615 0.592961 -0.133359 0.224842 
3838 2 -1071.13 2799.84 -445.353 -7.06879e-05 0.161912 -0.468648 0.86842 
3837 2 -1074.04 2807.46 -451.063 0.778059 0.448811 -0.0454613 0.437179 
3839 2 -1068.22 2791.77 -440.345 -0.606199 -0.243796 -0.521317 0.548921 
3836 2 -1075.89 2816.57 -454.503 0.789192 0.486811 0.249759 -0.278947 
3835 2 -1078.75 2825.89 -455.888 0.205608 0.0440874 0.643873 -0.735669 
3834 2 -1085.27 2833.33 -454.567 -0.224212 -0.679105 0.349354 -0.605391 
3840 2 -1064.19 2783.35 -437.027 -0.845752 -0.378469 -0.259445 -0.272312 
3841 2 -1057.75 2778.15 -431.808 -0.347961 -0.464624 0.251877 -0.774342 
3842 2 -1052.43 2770.97 -427.394 0.345536 -0.260543 0.647791 -0.626968 
3843 2 -1044.64 2764.79 -426.975 0.596014 0.498155 0.620813 -0.105832 
3844 2 -1038.67 2757.28 -428.849 0.560631 0.699617 0.0521573 0.439895 
3845 2 -1032.03 2749.88 -428.813 -0.0637446 0.547774 -0.385231 0.739917 
3846 2 -1023.67 2745.4 -425.876 -0.637738 -0.0515214 -0.484647 0.59645 
3847 2 -1018.32 2738.84 -420.584 -0.884169 -0.412677 -0.21325 -0.0496686 
3848 2 -1014.51 2732.17 -414.353 -0.696198 -0.431296 0.235356 -0.523355 
3849 2 -1013.24 2723.68 -409.436 -0.0746658 -0.340152 0.486782 -0.801103 
3850 2 -1009.34 2715.13 -406.452 0.616429 0.062978 0.607691 -0.49675 
3851 2 -1002.55 2708.22 -404.62 0.616264 0.673966 0.266839 0.307874 
3830 3 -1075.63 2831.64 -411.556 -0.282327 0.510359 -0.596469 0.551407 
3852 2 -995.492 2701.35 -403.877 0.0991193 0.663133 -0.331917 0.663522 
3826 2 -1073.91 2831.6 -367.386 0.0414762 0.513285 0.346654 -0.783996 
3853 2 -987.3 2695.88 -404.575 -0.442134 0.164963 -0.785582 0.400208 
3827 2 -1081.66 2826.23 -364.508 0.554192 0.617067 -0.220863 -0.513146 
3857 3 -979.158 2725.63 -438.698 0.773108 -0.489133 -0.387783 -0.112591 
3825 2 -1065.23 2836.14 -369.598 -0.632221 0.181145 0.593385 -0.464088 
3854 2 -979.38 2690.2 -406.354 -0.594586 -0.538542 -0.596891 -0.0126751 
3833 2 -1092.29 2840.2 -453.641 -0.622415 -0.659577 -0.37026 -0.201157 
3828 2 -1090.44 2821.72 -362.833 0.757324 0.281769 -0.587854 0.0386659 
3829 1 -1108.44 2839.66 -402.548 -0.366397 0.494449 -0.579572 0.534201 
3824 2 -1055.99 2838.51 -371.91 -0.731936 -0.41824 0.462235 0.275108 
3911 3 -889.032 2829.53 -513.087 -0.272596 0.223015 -0.617201 0.703576 
3909 2 -925.116 2832.17 -475.674 0.440396 0.327177 -0.663132 -0.509179 
3908 2 -916.231 2827.94 -474.374 -0.193664 0.742163 -0.110651 -0.632016 
3907 2 -906.429 2827.21 -472.725 -0.530547 0.462165 0.617072 -0.352343 
3906 2 -898.329 2822.49 -469.555 -0.441005 -0.159937 0.798315 0.377661 
3860 2 -960.15 2748.15 -474.532 0.26089 0.0122405 0.47013 0.843068 
3858 2 -957.863 2731.98 -485.691 0.761809 -0.369051 -0.330392 -0.417479 
3859 2 -959.399 2739.83 -479.919 0.827011 -0.475251 0.0646726 0.293269 
3861 2 -958.447 2756.22 -469.071 -0.495803 0.268703 0.340365 0.752416 
3905 2 -890.66 2816.61 -468.056 0.174291 -0.7201 0.332713 0.583422 
3904 2 -882.435 2811.21 -469.347 0.69944 -0.552927 -0.32127 0.319127 
3903 2 -874.049 2806.55 -471.74 0.709556 -0.0421483 -0.617041 -0.337661 
3902 2 -864.481 2804.34 -471.887 0.227432 0.566058 -0.388636 -0.690518 
3901 2 -856.146 2799.09 -471.611 -0.449043 0.709792 0.0775595 -0.537159 
3900 2 -846.559 2796.49 -472.541 -0.719572 0.309026 0.557138 -0.276254 
3862 2 -957.541 2763.59 -462.689 -0.85935 0.457612 -0.133933 0.184855 
3863 2 -953.287 2770.48 -457.232 -0.726173 -0.00905269 -0.351707 -0.590672 
3899 2 -838.485 2791.05 -473.548 -0.628964 -0.0811421 0.630043 0.44818 
3856 1 -959.126 2699.76 -451.109 0.838802 -0.399166 -0.362587 -0.0748851 
3864 2 -948.692 2774.09 -449.254 0.0418586 -0.169241 -0.196337 -0.964913 
3865 2 -945.028 2778.19 -441.027 0.629633 -0.346135 0.0356284 -0.69461 
3866 2 -939.225 2781.24 -433.623 0.888815 -0.203045 0.410716 -0.00963858 
3867 2 -932.384 2785.02 -427.639 0.666129 0.178104 0.455757 0.562882 
3868 2 -924.602 2788.52 -422.549 0.153271 0.4753 -0.0738192 0.86322 
3869 2 -916.053 2786.74 -417.955 -0.615721 0.401212 -0.382803 0.559802 
3870 2 -906.9 2786.97 -414.253 -0.693111 -0.0702444 -0.716693 -0.0318581 
3871 2 -897.188 2785.73 -415.098 -0.442921 -0.662052 -0.250574 -0.550201 
3872 2 -887.767 2782.64 -414.937 0.143046 -0.614183 0.440735 -0.638803 
3873 2 -878.649 2779.07 -415.446 0.666121 0.0842436 0.672156 -0.312078 
3874 2 -870.363 2773.75 -414.312 0.825092 0.333139 0.255835 0.377875 
3875 2 -864.375 2769.84 -407.553 0.145214 0.36663 -0.23787 0.887645 
3876 2 -858.727 2764.9 -401.029 -0.60184 0.240646 -0.374736 0.662911 
3877 2 -851.454 2763.36 -394.425 -0.843364 -0.137585 -0.493653 -0.161601 
3878 2 -842.977 2762.29 -389.426 -0.465034 -0.427856 -0.0868608 -0.770155 
3898 2 -830.953 2785.83 -470.041 -0.0111195 -0.671325 0.46763 0.57491 
3879 2 -835.219 2760.36 -383.707 0.412661 -0.155249 0.0169899 -0.897396 
3880 2 -831.439 2760.24 -374.517 0.931264 0.0504768 0.315493 -0.175108 
3897 2 -824.985 2779.19 -465.648 0.484884 -0.785693 -0.286319 0.256117 
3881 2 -826.182 2758.15 -366.366 0.723541 0.330035 0.122756 0.593714 
3896 2 -818.501 2771.75 -464.598 0.581875 -0.236162 -0.723891 -0.285713 
3895 2 -810.109 2766.95 -462.755 0.252567 0.446001 -0.684222 -0.51878 
3894 2 -802.316 2761.61 -459.516 -0.254829 0.791624 -0.148229 -0.535183 
3893 2 -796.75 2755.68 -454.037 -0.494331 0.707149 0.504916 -0.0252456 
3892 2 -789.532 2751.66 -448.516 -0.470129 -0.0134888 0.864054 0.179466 
3891 2 -784.468 2745.36 -442.521 0.0320031 -0.666394 0.577079 0.471036 
3885 2 -771.321 2698.84 -411.081 -0.235694 -0.126699 0.894281 0.358689 
3886 2 -775.96 2704.7 -417.555 -0.502107 0.668425 0.52367 0.16391 
3890 2 -779.708 2737.56 -438.991 0.372035 -0.866204 0.0850552 0.322562 
3889 2 -779.181 2728.77 -434.251 0.383604 -0.682171 -0.542994 -0.304383 
3888 2 -779.694 2720.33 -428.95 -0.0972303 0.108764 -0.869942 -0.471081 
3887 2 -778.946 2712.65 -422.728 -0.396152 0.828974 -0.326173 -0.222436 
3884 3 -804.103 2738.73 -404.707 -0.310605 0.801685 0.507984 -0.0527108 
3883 1 -795.189 2720.1 -376.515 -0.243176 0.8384 0.485479 -0.0475476 
3781 2 -806.395 2826.13 -366.791 -0.563255 0.584171 0.48145 0.331202 
3782 2 -807.147 2836.01 -367.313 -0.628537 0.757267 -0.165851 -0.0630952 
3780 2 -805.188 2816.35 -364.861 -0.0840815 0.130596 0.730248 0.665292 
3779 2 -805.142 2806.76 -362.425 0.439876 -0.612009 0.50953 0.415131 
3778 2 -804.176 2796.88 -363.065 0.717065 -0.690664 -0.0500702 -0.0793371 
3721 1 -599.023 2742.85 -421.305 0.755442 -0.444039 0.410751 0.251834 
3720 2 -554.161 2732.97 -410.707 -0.100603 -0.314423 -0.63772 0.695938 
3719 2 -551.373 2742.48 -409.339 0.509448 0.412758 -0.621499 0.428756 
3722 3 -585.51 2774.22 -413.515 0.748944 -0.4527 0.384084 0.294321 
3718 2 -546.364 2751.1 -408.298 0.648209 0.722409 -0.140926 -0.195166 
3717 2 -541.822 2759.48 -405.804 0.209488 0.642165 0.511377 -0.531255 
3723 2 -635.549 2771.95 -427.538 0.239552 -0.0390127 0.428365 0.8704 
3724 2 -633.823 2779.61 -421.557 -0.472233 0.272006 0.342477 0.765322 
3725 2 -632.909 2787.39 -415.385 -0.845658 0.462201 0.249162 0.0956631 
3726 2 -636.363 2795.15 -410.276 -0.585331 0.458561 -0.279643 -0.607379 
3716 2 -536.879 2767.9 -403.695 -0.401588 -0.068437 0.746132 -0.526622 
3727 2 -638.938 2803.63 -406.211 0.105337 -0.0228391 -0.563697 -0.818919 
3728 2 -639.235 2812.99 -403.021 0.505559 -0.701041 -0.38074 -0.328617 
3729 2 -639.318 2822.75 -404.996 0.490885 -0.791861 0.242807 0.270247 
3715 2 -531.922 2775.58 -399.821 -0.542545 -0.739768 0.397368 0.0220518 
3730 2 -640.672 2832.06 -408.348 0.115002 -0.436365 0.80474 0.385686 
3714 2 -525.208 2781.8 -395.787 -0.224865 -0.805301 -0.244118 0.491256 
3713 2 -518.402 2789.02 -394.288 0.33053 -0.20302 -0.72938 0.563504 
3731 2 -642.296 2839.37 -414.948 -0.270929 0.32804 0.811015 0.40155 
3640 1 -509.857 2689.49 -407.119 -0.56072 -0.0540247 -0.730271 0.386497 
3651 2 -399.917 2688.34 -425.568 -0.43717 0.386152 -0.503703 0.637223 
3650 2 -409.594 2688.71 -427.001 0.227928 0.58159 0.177779 0.760393 
3646 2 -447.585 2694.21 -427.415 -0.627042 -0.551151 -0.458075 -0.305316 
3647 2 -438.679 2690.09 -428.96 -0.000612873 -0.679288 0.147813 -0.718832 
3645 2 -456.544 2698.22 -428.763 -0.695725 0.0358716 -0.648197 0.307441 
3642 2 -477.302 2718.79 -424.707 0.623901 0.48274 0.59722 -0.145044 
3643 2 -471.279 2711.04 -426.402 0.47198 0.778155 0.109683 0.399598 
3712 2 -509.852 2793.77 -393.132 0.66543 0.487764 -0.552823 -0.116946 
3711 2 -501.132 2797.47 -390.321 0.272639 0.763257 -0.0435866 -0.584129 
3644 2 -464.06 2704.59 -428.52 -0.0606292 0.554397 -0.465059 0.687524 
3710 2 -491.419 2797.96 -388.801 -0.360475 0.607959 0.456662 -0.54028 