ITEM: TIMESTEP
100000000
ITEM: NUMBER OF ATOMS
4067
ITEM: BOX BOUNDS pp pp pp
-4.6310929470000001e+03 4.6704658980000004e+03
-4.6310929470000001e+03 4.6704658980000004e+03
-4.6310929470000001e+03 4.6704658980000004e+03
ITEM: ATOMS id type x y z c_q[1] c_q[2] c_q[3] c_q[4] 
3480 2 -517.931 2230.72 -541.877 0.656714 -0.146596 -0.116567 -0.730513 
3481 2 -517.903 2233.99 -532.598 0.939383 -0.299298 0.119567 0.116982 
3482 2 -515.914 2239.52 -524.586 0.644054 0.00824598 0.203872 0.737267 
3479 3 -473.481 2237.47 -516.123 0.704123 -0.0242792 -0.0116594 0.709567 
3475 2 -428.445 2235.24 -519.667 -0.116579 0.67029 0.714953 0.161133 
3478 1 -472.122 2237.19 -551.01 0.733939 0.0268507 -0.029418 0.678046 
3477 2 -426.804 2241.18 -538.391 -0.141585 0.681774 -0.71721 -0.0273503 
3476 2 -428.388 2239.19 -528.773 -0.0861091 0.992434 0.0160724 0.0860382 
3483 2 -513.106 2241.89 -515.389 -0.053425 0.14143 0.00414622 0.988497 
3730 2 -374.183 2485.14 -519.071 -0.780707 0.191603 0.315947 -0.503947 
3729 2 -365.287 2485.12 -523.394 -0.816544 -0.178864 0.517883 0.181827 
3728 2 -355.578 2485.72 -525.798 -0.287507 -0.593526 0.244025 0.710998 
3727 2 -346.947 2483.47 -530.054 0.494652 -0.506441 -0.111845 0.697372 
3726 2 -341.241 2481.03 -537.646 0.92494 -0.135356 -0.344132 -0.0879648 
3725 2 -337.426 2480.49 -546.779 0.601216 0.141358 -0.0810892 -0.782293 
3724 2 -334.338 2480.97 -556.236 -0.304506 0.164193 0.0633606 -0.93611 
3723 2 -330.603 2481.42 -565.461 -0.91313 0.069223 0.226539 -0.331787 
3722 3 -325.436 2519.96 -531.079 0.408584 -0.2806 -0.167583 0.852196 
3721 1 -307.036 2522.01 -560.564 0.391141 -0.26914 -0.12616 0.871008 
3720 2 -292.48 2559.74 -536.353 -0.207476 -0.841368 -0.36022 -0.34539 
3719 2 -299.749 2560.79 -529.594 -0.392924 -0.148052 -0.907541 0.00786532 
3718 2 -304.754 2560.16 -520.958 -0.228718 0.655848 -0.705744 0.13956 
3963 2 -783.514 2695.17 -537.768 0.42009 0.830092 -0.130742 -0.342606 
3962 2 -777.169 2701.73 -533.554 0.0189563 0.638351 0.541123 -0.547115 
3964 1 -762.245 2715.2 -574.827 0.695122 -0.323685 0.12354 -0.629897 
3966 2 -727.593 2739.77 -595.343 -0.859587 -0.0693176 -0.165514 0.478446 
3965 3 -742.647 2725.62 -547.802 0.739859 -0.28733 0.142867 -0.591303 
3967 2 -725.486 2736.89 -586.115 -0.813871 -0.159111 -0.308789 -0.465775 
3968 2 -719.283 2736.66 -578.374 -0.187702 -0.457798 0.0950637 -0.863801 
3969 2 -712.131 2733.51 -572.408 0.64371 -0.304008 0.439663 -0.547643 
3970 2 -703.567 2731.66 -567.625 0.884169 0.203572 0.399732 0.130454 
3971 2 -696.203 2729.49 -561.302 0.471199 0.277993 0.0262478 0.836662 
3972 2 -691.527 2726.53 -553.03 -0.439481 0.356732 -0.200173 0.799706 
3973 2 -684.07 2726.29 -546.441 -0.856056 0.258032 -0.414246 0.170257 
3974 2 -676.277 2729.35 -541.305 -0.58433 0.0234431 -0.447419 -0.676628 
3961 2 -774.995 2708.28 -526.49 -0.0550253 -0.0230125 0.93324 -0.354267 
3975 2 -671.249 2735.39 -535.296 -0.0993491 -0.401386 -0.198568 -0.888589 
3960 2 -773.004 2715.09 -519.367 -0.377489 -0.74406 0.538469 -0.118018 
3976 2 -663.966 2737.74 -528.952 0.72045 -0.239715 0.16961 -0.628269 
3977 2 -658.224 2738.02 -520.911 0.911112 -0.0460699 0.395986 0.104628 
3978 2 -650.579 2739.26 -514.767 0.49459 0.447322 0.341287 0.662425 
4020 2 -725.873 2912.11 -518.762 0.408223 -0.107144 0.174526 -0.889615 
2050 2 -62.01 -120.551 -361.561 -0.749783 0.309189 -0.579221 -0.0820405 
2049 2 -70.1166 -125.957 -361.924 -0.510627 0.672386 -0.137032 0.518053 
2964 2 -448.949 1445.28 -382.2 0.601887 0.591438 -0.253784 0.472785 
2963 2 -451.759 1454.77 -383.786 0.748641 0.591784 0.283064 -0.0959357 
2962 2 -451.298 1464.42 -386.187 0.425506 0.311933 0.485052 -0.697401 
2909 2 -322.377 1425.45 -377.027 -0.635856 -0.330068 0.687571 0.118271 
2908 2 -313.253 1427.28 -373.821 -0.30325 -0.743834 0.196824 0.562148 
2910 2 -331.624 1422.23 -378.7 -0.498189 0.333401 0.675261 -0.429737 
2907 2 -304.804 1431.81 -371.481 0.170046 -0.564431 -0.545226 0.596012 
2906 2 -298.14 1437.54 -367.023 0.429188 0.0472187 -0.848373 0.306317 
2911 1 -353.065 1463.14 -369.351 0.601328 -0.23092 0.76318 0.0513452 
2905 2 -289.726 1441.03 -363.208 0.529408 0.67164 -0.427325 -0.293293 
2994 2 -648.012 1574.75 -396.083 -0.273319 0.55235 0.352877 0.704048 
2995 2 -642.3 1582.78 -394.671 -0.69472 0.636257 -0.152478 0.298817 
2996 2 -636.769 1590.95 -393.256 -0.66782 0.289685 -0.512102 -0.455906 
2997 2 -632.556 1599.09 -389.572 -0.205153 -0.281123 -0.39386 -0.850739 
2998 2 -626.104 1604.95 -384.833 0.571555 -0.313612 -0.0708039 -0.754957 
2999 2 -622.379 1609.95 -377.203 0.934197 -0.320723 0.0677092 -0.14081 
3000 2 -620.282 1615.94 -369.848 0.745749 -0.159811 0.187738 0.61893 
2992 1 -634.442 1545.67 -361.557 0.828443 -0.534797 0.160411 -0.0440759 
2961 2 -446.331 1472.73 -387.859 -0.318693 0.0784962 0.695231 -0.639474 
2960 2 -442.408 1481.91 -387.632 -0.654768 -0.579398 0.470208 -0.120342 
2959 2 -438.22 1490.45 -390.447 -0.589778 -0.528857 -0.190275 0.579886 
2958 2 -433.811 1498.9 -392.651 0.0582601 -0.233801 -0.602394 0.760963 
2957 2 -427.374 1505.74 -395.76 0.663948 0.176762 -0.58805 0.42676 
2956 2 -418.962 1510.66 -397.969 0.694944 0.516633 -0.367902 -0.338809 
2955 2 -410.212 1514.88 -399.895 0.190566 0.618992 0.108063 -0.754226 
2954 2 -401.949 1520.26 -401.071 -0.380897 0.363946 0.564134 -0.635778 
2953 2 -392.918 1523.86 -403.202 -0.793626 -0.205526 0.57081 -0.0457454 
2952 2 -385.975 1529.88 -406.869 -0.61082 -0.569877 0.0315267 0.548767 
2951 2 -379.977 1537.71 -407.656 -0.133104 -0.497667 -0.443623 0.733355 
2950 2 -376.314 1546.26 -410.83 0.522279 0.152256 -0.579554 0.606762 
2949 2 -372.947 1554.09 -415.765 0.847986 0.493162 -0.183449 -0.0637018 
2948 2 -372.207 1562.59 -420.632 0.58236 0.375345 0.347142 -0.632033 
2947 2 -370.581 1570.13 -426.67 -0.240648 0.00426616 0.439744 -0.865272 
2946 2 -366.672 1575.62 -433.863 -0.873871 -0.249175 0.321162 -0.266675 
2945 2 -360.674 1580.67 -439.892 -0.651993 -0.446915 0.0147481 0.612336 
2944 2 -357.627 1587.73 -446.034 -0.0652929 -0.252166 -0.332796 0.906309 
2943 2 -356.554 1595.54 -451.8 0.626984 0.265025 -0.348821 0.644187 
2914 2 -345.361 1511.46 -368.836 0.13912 -0.722265 0.399517 -0.547142 
2915 2 -336.009 1509.83 -371.668 0.549904 -0.319629 0.768738 -0.0669671 
2916 2 -327.25 1512.59 -375.453 0.250489 0.571728 0.7172 0.309848 
2942 2 -355.697 1604.67 -455.267 0.796133 0.586193 0.103378 -0.108913 
2941 2 -354.836 1613.71 -459.173 0.370127 0.319643 0.497007 -0.716811 
2917 2 -319.969 1513.83 -382.059 -0.171108 0.980984 0.0680231 0.061355 
2931 2 -273.427 1574.37 -476.675 -0.36277 0.850419 0.2833 0.254806 
2912 3 -320.461 1472.79 -377.13 0.635694 -0.14262 0.758604 -0.00856819 
2925 2 -301.713 1529.81 -454.482 -0.575856 0.476592 -0.651628 -0.128961 
2926 2 -295.727 1536.88 -458.057 -0.143902 -0.248837 -0.696765 -0.657184 
2927 2 -290.404 1545.14 -459.417 0.3623 -0.680343 -0.213384 -0.600283 
2928 2 -284.006 1552.76 -459.698 0.586028 -0.703619 0.394972 0.0740855 
2929 2 -280.499 1561.11 -463.821 0.281628 -0.0761801 0.884935 0.363005 
2930 2 -276.765 1568.11 -469.787 -0.00841541 0.595392 0.71641 0.363585 
2924 2 -307.33 1525.89 -447.382 -0.177429 0.942285 -0.0584459 0.277853 
2923 2 -312.081 1522.91 -439.225 0.0822226 0.665645 0.662371 0.333798 
2922 2 -315.479 1519.97 -430.41 0.202244 -0.0968464 0.964826 0.137215 
2921 2 -314.834 1517.9 -420.763 0.0753206 -0.842198 0.53087 0.0566293 
2920 2 -314.518 1517.14 -410.904 0.0136565 -0.904355 -0.42569 -0.0272902 
2919 2 -315.771 1516.89 -401.093 -0.0411645 -0.137922 -0.988507 -0.046231 
2918 2 -317.871 1516.35 -391.497 -0.0726973 0.695305 -0.710754 0.0780681 
2932 2 -271.886 1582.23 -482.662 -0.515333 0.740084 -0.403265 -0.155194 
2933 2 -270.302 1590.29 -487.901 -0.102287 0.122517 -0.743044 -0.649933 
2939 3 -309.033 1603.9 -467.181 -0.639849 -0.56984 0.204676 -0.473268 
2934 2 -270.541 1600.12 -488.814 0.374005 -0.40542 -0.640757 -0.534027 
2935 2 -270.113 1610 -489.953 0.578904 -0.813494 -0.0519055 -0.0200934 
2936 2 -270.756 1619.22 -493.481 0.592703 -0.432223 0.427786 0.528095 
2913 2 -354.623 1510.11 -365.551 -0.234747 -0.668818 -0.477388 -0.519304 
2886 2 -131.226 1516.53 -370.797 0.0939526 -0.458674 -0.415211 0.779994 
2887 2 -139.281 1511.86 -367.527 -0.596141 -0.591434 0.0583703 0.539829 
2888 2 -146.645 1505.4 -365.547 -0.787238 -0.34152 0.509433 0.0640272 
2889 2 -154.935 1500.78 -362.897 -0.50802 0.224422 0.477669 -0.680722 
3001 2 -618.84 1621.06 -361.647 -0.043462 0.146319 0.25182 0.955661 
3043 2 -650.515 1753.09 -429.846 -0.157012 -0.271842 -0.894458 -0.318423 
3042 2 -652.413 1748.13 -421.44 -0.267077 0.550273 -0.770661 -0.178747 
3041 2 -652.348 1743.68 -412.675 -0.236176 0.967662 0.0760171 0.0455264 
3040 2 -651.845 1740.37 -403.371 -0.0477722 0.58124 0.809612 0.0663834 
3039 2 -648.067 1737.61 -394.681 -0.19923 -0.133731 0.958485 0.154043 
3038 2 -640.482 1733.23 -389.983 0.0606121 -0.728765 0.410359 0.544824 
3037 2 -631.638 1730.54 -386.924 0.332388 -0.78443 -0.301902 0.427835 
3036 2 -622.168 1727.61 -385.747 0.631824 -0.188127 -0.749151 0.06465 
3035 2 -612.623 1726.24 -383.519 0.445295 0.45189 -0.63492 -0.44089 
3034 2 -604.201 1721.51 -381.359 -0.249834 0.792094 -0.130893 -0.541329 
3033 2 -596.53 1716.97 -377.019 -0.513523 0.675461 0.498254 -0.178295 
3032 2 -588.02 1711.75 -376.957 -0.632934 0.0369475 0.711509 0.302959 
3028 2 -557.522 1686.99 -374.729 0.214745 0.232804 -0.634528 -0.705026 
3027 2 -551.577 1679.45 -372.566 -0.364783 0.724023 -0.263391 -0.522829 
3044 2 -646.893 1758.21 -437.63 0.185274 -0.807547 -0.512431 -0.225733 
3045 2 -644.974 1763.5 -445.666 0.281865 -0.920349 0.271124 -0.0016845 
3054 2 -580.96 1766.44 -375.791 0.516766 0.255703 0.72637 -0.374107 
3026 2 -545.753 1672.05 -369.758 -0.611784 0.66608 0.388174 -0.177142 
3055 2 -575.905 1758 -376.875 0.618649 0.711427 0.279891 0.181126 
3056 2 -570.622 1749.67 -377.696 0.273365 0.672906 0.0231907 0.686972 
3047 3 -619.315 1771.28 -401.306 -0.837577 -0.301067 -0.302341 0.341195 
3057 2 -561.829 1745.81 -375.728 -0.454485 0.341961 -0.46708 0.677009 
3058 2 -553.28 1742.58 -371.915 -0.852385 -0.24142 -0.457538 0.076258 
3025 2 -538.283 1666.62 -366.294 -0.532058 0.0637879 0.812258 0.230395 
3059 2 -546.165 1737.67 -367.089 -0.661757 -0.510579 -0.182385 -0.517805 
3031 2 -579.833 1706.26 -376.495 -0.120118 -0.552679 0.477091 0.672683 
3030 2 -571.728 1700.74 -375.395 0.498734 -0.71898 -0.0930035 0.47506 
3060 2 -538.06 1733.71 -362.728 0.101349 -0.381193 0.461484 -0.79464 
3029 2 -563.947 1694.5 -375.083 0.715732 -0.370955 -0.584477 -0.0922275 
3085 2 -516.096 1762.7 -369.939 -0.760202 0.485043 0.309561 -0.301659 
3086 2 -522.862 1768.27 -365.515 -0.23404 0.518188 -0.173448 -0.804128 
3024 2 -530.243 1662.68 -362.046 -0.111138 -0.644794 0.533327 0.536145 
3084 2 -508.919 1761.42 -376.66 -0.814693 -0.116564 0.430847 0.370215 
3083 2 -503.832 1761.31 -385.179 -0.293058 -0.234559 0.0688074 0.924319 
3082 2 -496.89 1760.3 -392.262 0.504999 -0.317247 -0.138655 0.790636 
3081 2 -492.151 1759.43 -400.794 0.958363 -0.0610298 -0.26133 -0.0975818 
3080 2 -486.529 1756.59 -408.337 0.560391 0.189455 -0.275037 -0.757907 
3074 3 -470.996 1716.78 -393.939 0.830602 -0.386881 -0.318781 0.242492 
3078 2 -476.609 1749.79 -423.399 -0.892361 0.191107 0.074147 -0.402085 
3077 2 -470.223 1743.79 -428.012 -0.749942 0.106068 0.497826 0.4225 
3076 2 -466.673 1737.63 -434.857 -0.120641 -0.202603 0.363243 0.901361 
3075 2 -463.872 1732.57 -442.966 0.703808 -0.335123 0.0441649 0.624817 
3073 1 -447.393 1699.62 -413.381 0.83309 -0.351963 -0.396755 0.157062 
3079 2 -479.747 1752.92 -414.524 -0.186022 0.454097 -0.142514 -0.859582 
3072 2 -443.926 1678.78 -371.257 -0.354133 -0.591863 -0.720015 0.0765893 
3071 2 -448.909 1683.86 -364.469 -0.133462 0.274926 -0.885975 0.348786 
3126 2 -388.436 1771.79 -429.039 0.110976 0.977864 -0.0949427 0.149842 
2940 2 -357.354 1622.55 -462.838 -0.20985 -0.282282 0.474463 -0.806948 
2937 2 -270.073 1628.66 -490.799 -0.144548 0.146756 0.606813 0.767689 
2938 1 -315.072 1636.39 -478.69 -0.653612 -0.582162 0.225854 -0.427631 
3134 2 -314.178 1765.04 -365.952 0.366158 0.21799 -0.168231 0.888879 
3133 2 -313.752 1770.55 -374.165 0.903418 0.323785 -0.108102 0.259447 
3053 2 -584.099 1775.75 -374.445 -0.075838 -0.343506 0.668855 -0.654893 
3046 1 -627.198 1799.32 -420.48 -0.810628 -0.379818 -0.342696 0.28492 
3048 2 -603.364 1817.42 -383.966 0.835497 0.540614 -0.066682 0.0723512 
3049 2 -603.676 1808.36 -379.973 0.406647 0.580836 -0.290333 0.642631 
3050 2 -599.249 1799.74 -377.965 -0.197722 0.213034 -0.638575 0.712562 
3051 2 -593.694 1791.65 -376.775 -0.755115 -0.228525 -0.521823 0.324467 
3052 2 -587.521 1784.84 -373.314 -0.558467 -0.727361 0.132857 -0.376045 
3125 2 -391.376 1774.22 -419.885 0.211107 0.657489 0.723286 -0.000336619 
3124 2 -392.81 1778.26 -410.951 0.0357712 -0.183592 0.964039 -0.188792 
3123 2 -395.906 1783.49 -402.987 -0.12878 -0.882555 0.375687 -0.251738 
3122 2 -401.83 1785.3 -395.29 -0.252152 -0.719838 -0.611766 -0.209749 
3121 2 -405.901 1785.51 -386.315 -0.242019 0.0740918 -0.96735 0.0130901 
3120 2 -411.412 1786.64 -378.133 -0.0934672 0.711247 -0.642205 0.270118 
3119 2 -417.633 1786.65 -370.549 0.035 0.927833 0.151324 0.339121 
3118 2 -423.968 1786.8 -363.125 0.27048 0.487149 0.825861 0.0864844 
3128 3 -350.984 1778.53 -393.713 -0.620441 -0.126702 0.0232073 0.773603 
3127 1 -342.294 1781.41 -427.443 -0.644092 -0.124417 0.0487438 0.753186 
3132 2 -311.138 1774.94 -382.574 0.789101 0.258164 0.0427275 -0.555739 
3131 2 -310.64 1778.75 -391.881 0.138037 0.0484391 0.149398 -0.977896 
3130 2 -307.257 1782.84 -400.111 -0.647279 0.0338798 0.294108 -0.702412 
3129 2 -301.255 1788.64 -405.299 -0.876878 -0.353099 0.303037 0.120725 
3451 1 -352.696 2072.66 -406.328 -0.567648 0.342073 -0.595174 -0.454455 
3450 2 -311.505 2075.34 -429.174 0.00865667 -0.233614 -0.836766 0.495148 
3453 2 -389.2 2091.34 -382.867 0.0845738 -0.00826642 0.787263 0.610734 
3472 2 -424.313 2224.43 -492.918 0.289144 -0.865307 -0.404594 0.062799 
3454 2 -388.27 2100.5 -386.154 -0.284102 0.68649 0.549161 0.382675 
3455 2 -386.564 2109.08 -390.836 -0.501697 0.860734 -0.0805581 -0.030791 
3471 2 -419.851 2219.11 -485.794 0.337524 -0.191587 -0.8995 -0.200675 
3470 2 -415.104 2212.69 -479.873 -0.0863773 0.60042 -0.67802 -0.415119 
3456 2 -387.068 2117.67 -395.851 -0.2977 0.547859 -0.734161 -0.268762 
3469 2 -409.767 2208.8 -472.486 -0.237527 0.933458 0.12926 -0.235646 
3468 2 -403.451 2203.14 -467.497 -0.496186 0.429073 0.742778 0.134078 
3467 2 -398.237 2198.25 -460.564 -0.227168 -0.188468 0.875813 0.381871 
3466 2 -394.207 2191.1 -454.766 0.288192 -0.767486 0.447891 0.356797 
3465 2 -395.174 2182.93 -449.251 0.428809 -0.848043 -0.25068 -0.184677 
3464 2 -396.71 2175.78 -442.435 0.0191424 -0.304756 -0.849234 -0.430765 
3463 2 -394.675 2166.34 -439.972 -0.326036 0.569918 -0.571339 -0.492408 
3462 2 -394.048 2156.9 -437.16 -0.558092 0.822297 0.0936383 0.0599354 
3461 2 -389.988 2149.79 -431.695 -0.345452 0.31965 0.832436 0.292469 
3489 2 -487.485 2226.37 -466.785 0.70536 0.308151 0.241674 0.59085 
3457 2 -386.667 2125.44 -401.88 0.154284 -0.147047 -0.906182 -0.36525 
3458 2 -388.527 2132.91 -407.979 0.198863 -0.871584 -0.439902 -0.0853334 
3459 2 -389.562 2137.01 -416.843 0.236025 -0.877248 0.387877 0.15582 
3460 2 -390.156 2142.66 -424.942 0.16029 -0.280286 0.88377 0.33867 
3488 2 -494.321 2229.74 -472.973 0.881302 0.109561 0.42779 -0.168225 
3490 2 -480.308 2224.19 -460.46 0.0477111 0.435167 0.0348323 0.89841 
3491 2 -472.885 2223.56 -453.777 -0.681537 0.285784 -0.383461 0.553888 
3492 2 -465.086 2223.74 -447.804 -0.804663 -0.0702955 -0.572021 -0.142717 
3493 2 -455.435 2224.53 -445.369 -0.536909 -0.437012 -0.270192 -0.669138 
3494 2 -447.161 2224.58 -439.887 0.177452 -0.611988 -0.0111011 -0.770622 
3495 2 -438.092 2227.77 -437.257 0.709108 -0.29706 0.393587 -0.503994 
3496 2 -429.707 2227.1 -431.953 0.884209 0.098494 0.419661 0.179884 
3473 2 -427.231 2228.76 -501.303 0.0800726 -0.885175 0.40366 0.217053 
3497 2 -421.917 2226.15 -425.979 0.419681 0.456956 0.173219 0.764888 
3500 2 -397.869 2226.31 -409.067 -0.830487 -0.0793732 -0.404841 -0.374293 
3501 2 -390.243 2228.74 -403.065 -0.375544 -0.35237 -0.186093 -0.836762 
3498 2 -413.468 2224.98 -421.017 -0.307291 0.473481 -0.0807933 0.821499 
3499 2 -405.864 2226.69 -414.95 -0.81581 0.143844 -0.41497 0.376248 
3502 2 -383.242 2230.01 -396.157 0.632134 -0.325409 0.184657 -0.678541 
3449 2 -308.749 2083.68 -424.544 0.349546 0.362903 -0.777724 0.375851 
3452 3 -343.04 2105.98 -401.775 -0.574559 0.387604 -0.541293 -0.476074 
3446 2 -306.12 2108.64 -409.35 -0.121714 0.0325066 0.889508 -0.439208 
3445 2 -303.189 2116.2 -403.643 -0.357898 -0.695924 0.581727 -0.221794 
3447 2 -308.441 2101.13 -415.341 0.45673 0.681132 0.49201 -0.292203 
3448 2 -308.062 2092.4 -419.921 0.527905 0.815652 -0.213737 0.101706 
3444 2 -302.477 2125.04 -399.416 -0.496763 -0.80037 -0.271706 0.197002 
3443 2 -304.051 2134.28 -396.258 -0.264689 -0.218952 -0.794585 0.500634 
3442 2 -305.461 2143.78 -394.047 0.378272 0.526325 -0.599026 0.470171 
3441 2 -309.342 2152.66 -392.124 0.559727 0.791879 -0.085403 0.228777 
3437 2 -322.789 2187.63 -389.063 -0.58439 -0.562643 -0.57524 0.10498 
3438 2 -317.885 2179.79 -392.414 -0.633361 -0.552105 0.125983 -0.527411 
3439 2 -313.791 2171.48 -388.79 -0.06118 -0.228537 0.704358 -0.669259 
3440 2 -310.815 2162.14 -389.909 0.511483 0.540912 0.543025 -0.388488 
3436 2 -328.692 2194.22 -384.583 -0.256946 0.122568 -0.858684 0.426166 
3435 2 -334.057 2201.04 -379.949 0.0629116 0.734719 -0.469035 0.486042 
3434 2 -337.757 2208.89 -375.285 0.544996 0.803091 0.214984 0.108658 
3433 2 -342.33 2215.59 -369.535 0.369702 0.260925 0.841233 -0.295914 
3432 2 -346.991 2222.31 -363.815 0.00643288 -0.494943 0.725656 -0.477926 
3526 2 -541.85 2260.01 -368.271 -0.292109 -0.644307 -0.115333 0.697309 
3527 2 -549.957 2254.77 -365.944 -0.817777 -0.502847 0.239186 0.145517 
3528 2 -555.262 2247 -362.806 -0.624246 -0.228609 0.631597 -0.398923 
3529 2 -560.364 2238.55 -362.308 0.0306632 0.171813 0.649622 -0.739954 
3525 2 -533.84 2262.82 -373.285 0.648747 -0.234609 -0.439032 0.575618 
3524 2 -526.481 2268.61 -376.63 0.807597 0.404194 -0.424599 -0.064259 
3523 2 -518.936 2271.05 -382.488 0.412219 0.425898 -0.068232 -0.802516 
3487 2 -499.723 2233.34 -480.521 0.297788 -0.237452 0.307102 -0.872139 
3486 2 -505.564 2235.37 -488.126 -0.345769 -0.312689 -0.024052 -0.884359 
3474 2 -429.332 2232.2 -510.315 0.0963609 -0.164989 0.974814 0.115029 
3485 2 -508.169 2237.82 -497.248 -0.924542 -0.166409 -0.127954 -0.318052 
3484 2 -510.428 2242.13 -505.826 -0.769666 -0.121223 -0.234222 0.581429 
3503 2 -377.357 2231.24 -388.318 0.916281 -0.126797 0.371818 0.0781279 
3504 2 -370.504 2234.12 -381.798 0.663842 0.12754 0.375044 0.634341 
3522 2 -509.83 2271.58 -386.296 -0.296086 0.477129 0.25887 -0.785918 
3521 2 -500.605 2272.38 -389.804 -0.819784 0.0334654 0.551479 -0.150687 
3520 2 -491.121 2273.85 -392.459 -0.62282 -0.445163 0.413972 0.492496 
3519 2 -481.395 2274.8 -393.943 0.0630765 -0.625995 -0.0949662 0.771449 
3518 2 -472.075 2277.28 -395.822 0.59401 -0.261503 -0.556159 0.51909 
3517 2 -463.194 2280.57 -398.845 0.792684 0.219142 -0.568232 0.0272165 
3516 2 -455.087 2285.89 -400.841 0.554424 0.588066 -0.151781 -0.568995 
3515 2 -446.57 2289.41 -403.971 -0.0532319 0.55071 0.234754 -0.799234 
3514 2 -438.656 2294.29 -407.181 -0.672884 0.0389978 0.555165 -0.487338 
3513 2 -432.706 2299.04 -413.459 -0.912387 -0.273209 0.288146 0.0993955 
3512 2 -426.001 2305.34 -417.091 -0.435482 -0.567778 -0.0728776 0.694747 
3511 2 -417.831 2309.22 -421.028 0.357002 -0.341301 -0.438109 0.751082 
3510 2 -408.09 2310.33 -421.959 0.693089 -0.10022 -0.678481 0.221918 
3509 2 -398.622 2312.86 -420.206 0.564739 0.499568 -0.572763 -0.321626 
3506 3 -398.965 2272.06 -402.852 -0.587807 0.00577706 0.803139 -0.0970432 
3508 2 -389.351 2315.8 -418.191 0.221925 0.755572 0.061749 -0.613228 
3615 2 -407.724 2377.98 -387.827 0.537871 -0.455432 -0.0519624 0.707514 
3507 2 -380.788 2319.19 -414.712 -0.267501 0.506232 0.662054 -0.483587 
3616 2 -415.526 2380.99 -382.462 -0.203493 -0.365011 0.254924 0.871993 
3505 1 -365.644 2279.17 -394.722 -0.610693 -0.0366111 0.791016 -0.00267405 
3775 1 -548.342 2461.59 -381.592 0.10488 -0.189391 -0.136648 -0.966674 
3666 2 -525.778 2449.48 -467.623 -0.107675 -0.084805 0.990509 0.0103357 
3665 2 -523.566 2449.2 -457.801 -0.0570343 -0.833679 0.53998 0.100735 
3558 2 -579.286 2426.29 -379.183 0.328684 -0.520687 -0.785848 0.0573975 
3557 2 -573.469 2423.86 -371.515 0.284146 0.264926 -0.901749 -0.189534 
3774 2 -569.978 2502.64 -372.91 -0.141322 -0.950372 0.12067 0.24952 
3664 2 -519.198 2447.62 -449.016 0.166952 -0.941428 -0.256532 0.14153 
3556 2 -569.387 2421.45 -362.893 0.028928 0.812069 -0.52093 -0.261416 
3773 2 -565.105 2504.51 -364.575 0.131165 -0.572074 -0.760681 0.277293 
3777 2 -518.235 2426.8 -371.097 0.966397 -0.0132084 0.118824 -0.227561 
3617 2 -422.876 2384.46 -376.793 -0.76799 0.0198388 0.524986 0.366316 
3663 2 -513.89 2446.48 -440.741 0.284856 -0.325575 -0.901399 0.0183825 
3618 2 -431.231 2387.92 -372.497 -0.76276 0.313981 0.305413 -0.475749 
3662 2 -510.435 2443.15 -432.143 0.102235 0.339124 -0.899077 -0.2573 
3619 2 -438.939 2390.31 -366.769 -0.0179474 0.39381 0.00724013 -0.918988 
3731 2 -380.985 2486.75 -512.009 -0.0984229 0.32524 -0.107793 -0.934298 
3661 2 -505.476 2439.35 -424.506 -0.0779909 0.891664 -0.27225 -0.353175 
3667 1 -510.535 2493.36 -458.98 -0.863225 -0.111741 -0.370389 0.324299 
3668 3 -490.148 2473.55 -438.594 -0.860633 -0.114002 -0.380014 0.319224 
3676 2 -439.997 2477.09 -411.71 0.0329417 -0.359242 0.541837 -0.759126 
3677 2 -433.563 2469.65 -410.77 0.573204 -0.0478571 0.69978 -0.423621 
3678 2 -424.925 2464.75 -410.751 0.572796 0.591016 0.563675 0.0698197 
3660 2 -499.906 2436.59 -417.02 -0.303166 0.740562 0.591687 -0.0977966 
3659 2 -493.34 2434.03 -410.094 -0.356811 -0.0303839 0.919871 0.159997 
3679 2 -417.956 2458.44 -413.38 0.356995 0.703978 -0.237723 0.566089 
3658 2 -486.212 2431.89 -403.594 -0.233149 -0.670004 0.644283 0.285719 
3657 2 -479.122 2430.88 -396.665 0.115025 -0.924761 -0.0959879 0.349817 
3656 2 -472.027 2431.2 -389.725 0.294305 -0.492012 -0.792858 0.206603 
3655 2 -465.63 2434.52 -382.965 0.413778 0.414268 -0.80976 -0.0381899 
3675 2 -444.533 2484.05 -417.159 -0.658784 -0.499943 0.0565855 -0.559338 
3674 2 -450.253 2490.91 -421.429 -0.830034 -0.291969 -0.435445 0.190223 
3673 2 -455.152 2498.61 -425.071 -0.201502 0.194192 -0.542315 0.7922 
3680 2 -410.64 2451.79 -414.339 -0.263035 0.41921 -0.620442 0.608381 
3672 2 -460.991 2504.89 -430.14 0.413773 0.475932 -0.170167 0.757181 
3681 2 -402.689 2446.14 -415.545 -0.620658 -0.169241 -0.755572 0.1235 
3682 2 -393.622 2442.6 -417.904 -0.53284 -0.679876 -0.304187 -0.401647 
3683 2 -384.818 2438.43 -419.084 -0.0619882 -0.505713 0.402901 -0.760317 
3684 2 -377.554 2431.9 -416.733 0.55715 -0.0806305 0.513616 -0.647519 
3685 2 -370.074 2426.72 -412.811 0.816226 0.314016 0.407894 0.26228 
3671 2 -467.405 2510.13 -435.284 0.845301 0.433023 0.256366 0.17954 
3654 2 -460.104 2438.91 -376.086 0.265939 0.919888 -0.191714 -0.215239 
3670 2 -474.073 2516.59 -438.429 0.590233 0.0215707 0.561875 -0.579186 
3669 2 -478.953 2524.19 -442.354 -0.177473 -0.373804 0.392631 -0.821349 
3735 2 -395.502 2499.04 -478.022 -0.231864 -0.0278717 0.243631 0.941332 
3733 2 -389.604 2491.65 -495.416 0.975041 -0.183559 -0.124887 0.00195261 
3732 2 -387.158 2489.43 -504.776 0.690054 -0.0112493 -0.145421 -0.708909 
3734 2 -391.992 2495.55 -486.673 0.486256 -0.22025 0.0946136 0.840294 
3736 2 -395.846 2503.61 -469.291 -0.788324 0.288385 0.108451 0.532558 
3737 2 -395.138 2509.12 -461.14 -0.887892 0.316394 -0.225631 -0.246238 
3738 2 -393.269 2516.54 -454.763 -0.396598 0.11663 -0.262611 -0.871862 
3653 2 -454.412 2442.7 -368.972 -0.0150095 0.655186 0.660155 -0.367017 
3739 2 -392.692 2522.23 -446.72 0.316463 -0.138911 -0.223528 -0.911367 
3740 2 -391.854 2527.2 -438.22 0.885784 -0.430342 0.0176091 -0.172864 
3741 2 -390.007 2534.62 -431.75 0.698986 0.0323135 0.508855 0.501438 
3652 2 -447.069 2444.64 -362.585 -0.40988 0.0525227 0.899207 -0.143761 
3686 2 -361.668 2423.87 -408.493 0.389586 0.355254 -0.0507373 0.8482 
3687 2 -355.94 2420.86 -401.09 -0.425405 0.364151 -0.300597 0.772053 
3696 2 -304.881 2390.14 -470.564 -0.73874 0.439622 0.479711 -0.175704 
3697 2 -312.944 2395.66 -468.957 -0.288513 0.668685 -0.0773678 -0.680908 
3698 2 -321.063 2401.22 -468.326 0.158237 0.390929 -0.56639 -0.708052 
3688 2 -348.376 2418.85 -395.078 -0.834896 -0.0728181 -0.545496 0.00895098 
3699 2 -328.141 2408.1 -468.176 0.489772 -0.195396 -0.736934 -0.422933 
3694 1 -293.549 2399.85 -425.831 0.620385 -0.605375 -0.397136 0.301541 
3700 2 -334.022 2416.02 -469.21 0.591362 -0.740243 -0.271636 0.168954 
3701 2 -339.806 2423.76 -470.747 0.407049 -0.508173 0.4087 0.639559 
3703 2 -343.149 2442.59 -467.743 -0.521102 0.590191 0.483963 0.381978 
3702 2 -343.253 2432.77 -468.895 -0.163282 0.0487324 0.704501 0.688943 
3705 2 -342.352 2462.07 -467.245 -0.404212 0.104844 -0.712119 -0.564364 
3704 2 -343.583 2452.39 -468.255 -0.760194 0.608723 -0.192566 -0.120332 
3706 2 -338.437 2471.08 -467.635 0.155878 -0.495173 -0.524931 -0.674502 
3708 2 -328.982 2488.46 -468.409 0.433758 -0.501593 0.640896 0.386665 
3707 2 -333.955 2479.95 -468.277 0.631045 -0.720072 0.0736275 -0.279029 
3709 2 -327.7 2497.51 -472.432 -0.137361 0.0616341 0.785889 0.59976 
3710 2 -329.303 2507.02 -474.884 -0.441059 0.80826 0.296847 0.25311 
3711 2 -328.855 2515.9 -479.314 -0.453561 0.730345 -0.481769 -0.169639 
3695 3 -323.376 2417.57 -430.633 0.642049 -0.587839 -0.36751 0.327346 
3693 2 -301.297 2419.5 -383.587 0.161299 0.647107 0.196129 0.718867 
3689 2 -339.639 2417.78 -390.576 -0.452407 -0.574061 -0.279195 -0.622762 
3690 2 -330.317 2415.54 -388.212 0.318202 -0.591176 0.110412 -0.732849 
3692 2 -311.117 2417.98 -384.507 0.635783 0.249 0.650528 0.332555 
3691 2 -320.9 2417.09 -385.849 0.724203 -0.213269 0.624725 -0.19941 
3712 2 -326.981 2524.2 -484.342 -0.281104 0.203027 -0.817782 -0.45934 
3713 2 -324.875 2532.6 -488.978 0.220127 -0.508509 -0.671241 -0.492339 
3920 2 -648.639 2668.19 -446.397 0.383107 -0.386658 0.426629 0.722296 
3912 2 -604.567 2614.85 -478.745 0.815761 -0.423547 -0.380582 -0.101488 
3913 2 -610.121 2622.54 -475.946 0.488124 -0.531829 0.183634 0.667212 
3914 2 -615.188 2630.5 -472.766 -0.157645 -0.280479 0.57697 0.750723 
3915 2 -621.496 2637.94 -470.703 -0.729176 0.0618149 0.594885 0.332556 
3916 2 -629.187 2643.52 -467.436 -0.758431 0.458088 0.211718 -0.412448 
3917 2 -636.664 2648.4 -463.232 -0.113176 0.434845 -0.281735 -0.847777 
3918 2 -643.342 2654.49 -459.094 0.592146 -0.073971 -0.304473 -0.742421 
3910 1 -572.326 2649.14 -475.393 -0.422786 0.510783 0.0821058 -0.744051 
3829 1 -559.714 2646.19 -366.476 0.777017 0.454833 0.381786 0.208832 
3919 2 -646.856 2660.01 -451.792 0.87299 -0.480337 -0.0393288 0.0749503 
3911 3 -599.434 2662 -457.155 -0.430291 0.490413 0.108792 -0.750006 
3921 2 -651.495 2676.98 -442.709 -0.175657 0.0792169 0.69564 0.692065 
3828 2 -539.353 2628.95 -405.374 -0.388255 0.255063 0.796306 0.387425 
3827 2 -535.949 2620.47 -401.543 0.0691242 -0.463617 0.704018 0.533516 
3825 2 -528.17 2604.89 -391.949 0.480683 -0.672498 -0.560325 -0.0522173 
3826 2 -532.137 2612.43 -397.332 0.499427 -0.82827 0.0915007 0.237001 
3824 2 -526.401 2598.02 -385.063 0.127182 -0.0866929 -0.926036 -0.344624 
3823 2 -522.975 2590.38 -379.691 -0.100352 0.594608 -0.647052 -0.466577 
3822 2 -521.394 2584.28 -371.919 -0.305119 0.942314 0.127751 -0.0512466 
3821 2 -522.793 2577.99 -364.213 -0.135314 0.501834 0.806194 0.282673 
3922 2 -653.485 2686.73 -442.47 -0.729182 0.580849 0.295676 0.208527 
3742 2 -383.438 2539.58 -426.367 -0.0142075 0.318305 0.20394 0.925683 
3743 2 -377.728 2543.7 -419.474 -0.604915 0.396031 -0.127488 0.678958 
3744 2 -371.409 2547.2 -412.807 -0.802051 0.369858 -0.441137 -0.159112 
3745 2 -366.28 2554.36 -408.564 -0.266985 -0.0346574 -0.659081 -0.702233 
3748 1 -365.238 2586.14 -362.381 -0.725864 -0.682173 0.0223326 0.0852226 
3746 2 -362.795 2563.57 -406.991 0.391166 -0.626294 -0.205704 -0.642207 
3717 2 -309.497 2557.99 -512.518 -0.027836 0.947282 0.172158 0.268781 
3747 2 -356.346 2571.1 -406.198 0.726131 -0.608856 0.262872 -0.181456 
3714 2 -322.745 2541.28 -493.31 0.464983 -0.852501 0.0413702 -0.235204 
3715 2 -318.52 2548.81 -497.999 0.345764 -0.586957 0.724028 0.108222 
3716 2 -314.773 2555.06 -504.691 0.215417 0.240513 0.913926 0.245945 
4051 2 -890.093 2834.48 -440.498 -0.892538 -0.141333 -0.358089 -0.234889 
4052 2 -883.451 2834.07 -433.229 -0.265027 -0.331175 -0.257097 -0.868323 
4053 2 -876.685 2836.09 -426.388 0.541244 -0.375997 0.182308 -0.729688 
4054 2 -869.237 2837.41 -419.83 0.964825 -0.0864072 0.188283 -0.161853 
4050 2 -896.445 2837.44 -447.252 -0.612563 0.181055 -0.369299 0.674984 
4055 2 -864.001 2838.9 -411.769 0.656412 -0.0408281 0.394942 0.641464 
3959 2 -773.553 2719.88 -510.816 -0.197419 -0.942876 -0.260357 0.0649927 
3958 2 -776.095 2723.62 -501.974 -0.187502 -0.488115 -0.850508 0.0567746 
3957 2 -777.625 2728.5 -493.464 0.00768844 0.4195 -0.853001 0.310403 
3956 2 -777.274 2733.6 -485.073 0.217285 0.925466 -0.295939 0.0933777 
3955 2 -776.156 2739.01 -476.98 0.158072 0.74402 0.601953 -0.243106 
3954 2 -774.396 2742.94 -468.232 -0.139802 0.00438698 0.971399 -0.191885 
3953 2 -769.804 2745.31 -459.704 -0.331106 -0.628947 0.701127 0.0566963 
3952 2 -763.654 2748.22 -452.387 -0.222488 -0.920187 0.124078 0.297252 
3951 2 -755.186 2749.51 -447.333 0.296937 -0.621773 -0.570563 0.44686 
3950 2 -746.692 2751.2 -442.525 0.514604 0.194244 -0.834367 -0.0358109 
3949 2 -739.926 2748.76 -435.699 0.167079 0.684662 -0.605304 -0.370039 
3948 2 -735.12 2744.58 -428.158 -0.295848 0.913808 0.0660122 -0.270316 
3947 2 -729.468 2742.85 -420.099 -0.30243 0.364246 0.880695 -0.0154233 
3946 2 -726.31 2744.69 -410.828 -0.204138 -0.369197 0.905713 -0.0412891 