ITEM: TIMESTEP
100000000
ITEM: NUMBER OF ATOMS
4067
ITEM: BOX BOUNDS pp pp pp
-4.6310929470000001e+03 4.6704658980000004e+03
-4.6310929470000001e+03 4.6704658980000004e+03
-4.6310929470000001e+03 4.6704658980000004e+03
ITEM: ATOMS id type x y z c_q[1] c_q[2] c_q[3] c_q[4] 
3664 2 -426.311 2310.9 -681.211 -0.491221 -0.790238 0.295467 -0.216623 
3663 2 -426.254 2319.44 -676.049 -0.404124 -0.785963 -0.400544 0.241891 
3665 2 -424.872 2302.04 -685.261 -0.0186405 -0.317935 0.74624 -0.584548 
3666 2 -421.887 2293.07 -688.216 0.447458 0.370814 0.719433 -0.380387 
3662 2 -424.809 2328.24 -671.643 -0.0468026 -0.178484 -0.84622 0.499864 
3661 2 -423.634 2337.81 -669.632 0.478847 0.46576 -0.608436 0.428462 
3660 2 -419.924 2346.91 -669.534 0.667426 0.724748 -0.0726882 -0.154918 
3659 2 -416.559 2355.77 -666.699 0.301538 0.593367 0.528789 -0.526662 
3696 2 -453.336 2450.56 -692.126 0.438791 0.119091 -0.561004 0.691777 
3697 2 -456.637 2441.86 -688.876 -0.271118 -0.571523 -0.419699 0.65093 
3698 2 -460.909 2433 -689.421 -0.688781 -0.688606 0.0465581 0.221889 
3699 2 -464.339 2423.68 -689.098 -0.621568 -0.394841 0.570145 -0.364264 
3700 2 -468.635 2414.81 -688.798 -0.0109064 0.101183 0.522552 -0.846512 
3701 2 -470.84 2406.32 -684.445 0.692138 0.472862 0.191926 -0.510402 
3702 2 -473.003 2398.35 -678.989 0.816998 0.388184 -0.153821 0.397702 
3642 2 -379.986 2500.14 -703.138 -0.832155 -0.320065 -0.34973 0.28769 
3643 2 -375.229 2493.04 -698.057 -0.754579 -0.495021 0.224313 -0.36776 
3644 2 -374.087 2484.29 -693.409 -0.0885511 -0.123397 0.361951 -0.919741 
3648 2 -376.782 2453.45 -669.753 -0.209173 -0.26861 -0.436159 0.832983 
3645 2 -373.109 2477.65 -686.173 0.555886 0.273417 0.381809 -0.685898 
3646 2 -373.448 2469.25 -681.199 0.871667 0.463848 -0.14686 0.0589334 
3647 2 -375.254 2460.91 -676.178 0.48057 0.122338 -0.404576 0.768377 
3703 2 -473.014 2391.33 -671.981 0.191479 -0.0472746 -0.374748 0.905906 
3640 1 -409.331 2489.34 -667.787 0.462242 -0.290575 0.598243 -0.586518 
3045 2 -463.262 1487.92 -521.598 -0.244412 -0.0046182 0.968593 0.045489 
3046 1 -422.938 1496.87 -544.44 0.704307 -0.263989 -0.0591358 -0.656326 
3048 2 -380.291 1516.55 -548.504 -0.0174071 -0.169663 0.0707531 -0.982805 
3049 2 -377.612 1514.72 -539.124 0.82226 -0.0610207 0.214394 -0.523641 
3050 2 -373.733 1513.41 -529.994 0.909185 0.0709965 0.0836457 0.401679 
3051 2 -371.73 1513.64 -520.337 0.271311 0.103829 -0.137947 0.946879 
3726 2 -596.124 2326.43 -659.191 0.415682 0.0374207 0.695684 0.584664 
3725 2 -603.115 2319.92 -656.487 0.584129 -0.521594 0.621863 0.00431217 
3727 2 -589.505 2333.65 -658.612 -0.24867 0.553291 0.340233 0.718522 
3728 2 -583.338 2341.2 -656.862 -0.646275 0.709476 -0.13526 0.246329 
3729 2 -577.854 2349.4 -656.929 -0.691019 0.249862 -0.64603 -0.206656 
3723 2 -611.128 2304.9 -647.108 0.00705147 -0.233088 -0.868337 -0.437734 
3724 2 -608.69 2312.3 -653.165 0.369158 -0.78784 -0.161866 -0.46565 
3730 2 -570.124 2355.42 -656.532 -0.307762 -0.142818 -0.575459 -0.744132 
3731 2 -564.3 2362.76 -653.486 0.476604 -0.548138 -0.144831 -0.671876 
3732 2 -558.846 2370.26 -650.052 0.783463 -0.486608 0.347574 0.169087 
3722 3 -559.647 2308.23 -640.352 0.679653 -0.582129 0.413366 0.168303 
3721 1 -574.124 2276.27 -640.609 0.62984 -0.604863 0.442911 0.203156 
3720 2 -528.531 2267.72 -631.921 -0.0476979 0.306833 0.8325 -0.458826 
3719 2 -525.393 2275.09 -626.272 -0.366071 -0.45878 0.768643 -0.254364 
3718 2 -525.601 2283.7 -621.363 -0.517418 -0.854817 -0.0245277 -0.0310584 
3717 2 -525.616 2292.82 -617.468 -0.255605 -0.402718 -0.733085 0.48484 
3716 2 -523.729 2302.37 -615.52 0.301451 0.171276 -0.732538 0.585815 
3715 2 -523.182 2311.83 -617.904 0.773813 0.601694 -0.17717 0.0882504 
3714 2 -522.355 2321.5 -620.002 0.591495 0.552435 0.34644 -0.474267 
3733 2 -555.589 2379.1 -646.733 0.311866 -0.191634 0.415583 0.832651 
3713 2 -522.105 2331.04 -622.526 0.0975402 0.0872104 0.614046 -0.778349 
3712 2 -516.932 2339.49 -623.561 -0.617961 -0.385063 0.573248 -0.375816 
3658 2 -413.574 2364.95 -664.587 -0.20766 0.0489718 0.745729 -0.631164 
3657 2 -407.95 2372.89 -662.569 -0.588266 -0.506925 0.618242 -0.121443 
3711 2 -511.092 2347.53 -623.503 -0.602132 -0.703405 0.0580788 0.37321 
3656 2 -403.674 2381.7 -661.465 -0.54974 -0.751498 -0.0858609 0.354492 
3705 2 -476.53 2380.24 -656.156 -0.917673 -0.313212 0.240203 -0.045571 
3706 2 -480.594 2374.32 -649.452 -0.487444 0.0354294 0.368747 -0.790676 
3710 2 -504.282 2353.62 -627.418 0.039816 -0.428456 -0.361333 0.827212 
3708 2 -489.149 2363.34 -635.286 0.793496 0.404947 -0.406497 -0.202838 
3707 2 -484.946 2368.32 -642.756 0.478862 0.351585 0.160008 -0.788338 
3667 1 -394.48 2278.63 -652.566 0.229728 0.182632 -0.55201 -0.780484 
3668 3 -407.836 2308.74 -640.697 0.194677 0.119776 -0.582928 -0.779711 
3709 2 -496.716 2358.19 -631.669 0.670238 -0.061139 -0.532058 0.513769 
3678 2 -396.28 2360.29 -631.591 0.531905 0.0786446 -0.616887 -0.574755 
3677 2 -390.621 2352.79 -628.661 -0.196967 0.637243 -0.504769 -0.548028 
3676 2 -385.1 2345.43 -625.165 -0.489187 0.821389 0.0627305 -0.2865 
3675 2 -382.406 2336.66 -621.389 -0.504932 0.591281 0.572095 0.261031 
3674 2 -382.09 2327.52 -617.503 -0.02144 0.0469734 0.829114 0.556689 
3673 2 -380.271 2318.56 -613.744 0.335365 -0.593706 0.531756 0.502274 
3672 2 -379.598 2309.04 -611.313 0.620998 -0.781126 0.0157409 0.0628981 
3671 2 -377.896 2299.67 -608.601 0.497806 -0.584619 -0.563044 -0.305599 
3670 2 -376.052 2290.05 -607.121 0.0761981 0.0918879 -0.765346 -0.632452 
3669 2 -378.773 2280.63 -608.101 -0.600719 0.36483 -0.544762 -0.457461 
3679 2 -403.955 2366.25 -630.008 0.811229 -0.329644 -0.47453 -0.089797 
3626 2 -376.752 2380.23 -556.177 0.183761 0.526906 -0.745282 -0.364906 
3625 2 -368.6 2378.25 -551.007 -0.164053 0.86349 0.13148 -0.458459 
3624 2 -364.073 2375.22 -542.701 -0.285708 0.585593 0.757172 -0.0462922 
3680 2 -411.425 2372.35 -627.466 0.510311 -0.615511 0.136523 0.584885 
3681 2 -417.127 2380.27 -625.589 -0.268411 -0.4246 0.469271 0.726261 
3623 2 -359.946 2372.64 -533.838 -0.22349 -0.109502 0.952204 0.177114 
3622 2 -354.477 2375.38 -525.966 -0.259747 -0.835638 0.412263 0.253535 
3621 2 -347.525 2377.83 -519.197 0.002596 -0.877063 -0.301147 0.374251 
3750 2 -585.094 2533.88 -654.254 -0.208104 0.126597 0.647061 -0.722481 
3751 2 -589.133 2525.04 -652.864 0.369947 0.577997 0.123533 -0.716797 
3752 2 -596.549 2519.2 -649.884 0.783349 0.438275 -0.355319 -0.260821 
3734 2 -555.324 2387.45 -641.454 -0.538493 0.284302 0.373888 0.699576 
3753 2 -603.931 2513.79 -646.015 0.741253 -0.0348246 -0.51939 0.423751 
3735 2 -555.357 2395.8 -635.94 -0.860623 0.506139 0.0279097 -0.0486977 
3754 2 -611.549 2510.6 -640.643 0.207257 -0.36574 -0.118362 0.899594 
3736 2 -557.538 2404.35 -631.563 -0.466281 0.3507 -0.406578 -0.703054 
3737 2 -557.663 2413.23 -627.313 0.299485 -0.176169 -0.570112 -0.744477 
3738 2 -558.847 2422.86 -624.932 0.760127 -0.639623 -0.106288 -0.0423363 
3755 2 -617.891 2509.94 -632.908 -0.435645 -0.257248 0.167062 0.846243 
3745 2 -547.67 2476.95 -588.921 0.716065 -0.592205 0.343762 -0.135541 
3744 2 -549.32 2469.41 -595.206 0.538323 -0.34011 -0.262713 -0.724924 
3743 2 -554.221 2462.37 -600.12 -0.273723 -0.167804 -0.467505 -0.823624 
3742 2 -556.804 2455.04 -606.19 -0.857143 0.309571 -0.266632 -0.313655 
3741 2 -557.517 2449.63 -614.529 -0.86462 0.268289 0.147312 0.398437 
3740 2 -556.301 2441.71 -620.394 -0.215869 0.00119596 0.450948 0.866051 
3739 2 -558.995 2432.72 -623.72 0.652922 -0.369239 0.467307 0.467953 
3749 3 -579.882 2498.76 -616.676 0.644587 0.095686 -0.636907 0.411949 
3746 2 -541.738 2484.99 -588.396 0.580565 -0.238574 0.608295 0.485802 
3748 1 -553.385 2520.98 -621.883 0.616507 0.0359755 -0.635049 0.464045 
3747 2 -537.317 2493.72 -586.915 0.00273203 0.346353 0.563681 0.749864 
3756 2 -623.517 2510.6 -624.853 -0.931309 -0.0710469 0.324294 0.149833 
3757 2 -629.012 2510.29 -616.63 -0.783647 0.288924 0.059784 -0.546669 
3758 2 -633.38 2513.66 -608.44 0.146557 0.0352543 -0.159101 -0.975687 
3759 2 -634.493 2516.42 -599.041 0.787158 -0.107727 -0.206297 -0.571155 
3760 2 -635.97 2519.98 -589.93 0.918217 -0.197573 -0.0122696 0.343063 
3761 2 -636.681 2523.76 -580.925 0.170146 -0.162829 0.483381 0.843137 
3762 2 -637.336 2531.75 -575.189 -0.544291 0.311733 0.337936 0.70169 
3649 2 -379.45 2445.16 -664.917 -0.717876 -0.548604 -0.229892 0.361715 
3627 2 -383.216 2383.78 -562.818 0.180347 -0.352251 -0.868345 -0.298951 
3650 2 -379.497 2435.43 -662.647 -0.624673 -0.556564 0.43739 -0.329714 
3651 2 -381.417 2425.76 -662.049 -0.232741 0.0687425 0.68794 -0.683991 
3704 2 -475.372 2384.78 -664.994 -0.514878 -0.228569 -0.151309 0.812258 
3655 2 -399.273 2390.44 -660.332 0.0634207 -0.295115 -0.678814 0.6694 
3652 2 -385.623 2416.91 -660.796 0.347136 0.537949 0.404971 -0.652768 
3653 2 -389.736 2407.82 -660.475 0.653402 0.704555 -0.201798 -0.189594 
3654 2 -394.312 2398.93 -660.702 0.636399 0.297631 -0.622998 0.343927 
3682 2 -425.763 2384.74 -623.727 -0.791532 0.101904 0.548452 0.249584 
3641 3 -378.778 2475.81 -657.317 0.420375 -0.337166 0.477427 -0.694022 
3683 2 -434.437 2388.53 -620.64 -0.723455 0.419722 0.325425 -0.441072 
3684 2 -442.275 2392.6 -616.189 -0.243622 0.53726 -0.138857 -0.795436 
3685 2 -450.007 2397.25 -612.148 0.480878 0.21552 -0.550471 -0.647525 
3694 1 -475.988 2463.2 -652.729 -0.0861347 6.9581e-05 -0.676332 0.731544 
3686 2 -457.958 2402.44 -609.162 0.874833 -0.352735 -0.290465 -0.16086 
3695 3 -466.885 2430.01 -646.438 -0.0816473 0.0871038 -0.661011 0.740818 
3687 2 -462.41 2408.91 -603.074 0.7515 -0.532844 0.0399888 0.386944 
3688 2 -466.466 2416.78 -598.82 0.215042 -0.493242 0.590852 0.601135 
3689 2 -469.59 2426.15 -600.378 -0.444422 0.121575 0.803517 0.376919 
3690 2 -475.365 2433.76 -603.406 -0.556871 0.689867 0.447813 -0.11594 
3691 2 -482.2 2440.3 -606.213 -0.163011 0.652187 -0.343937 -0.655582 
3692 2 -489.685 2446.82 -607.339 0.259948 0.201544 -0.793141 -0.512576 
3693 2 -495.262 2454.45 -610.48 0.561168 -0.429706 -0.68965 -0.157564 
3588 2 -466.985 2446.17 -526.198 0.732994 -0.495148 0.462331 0.0616289 
3589 2 -460.744 2453.89 -525.442 0.450724 0.0864882 0.705272 0.540332 
3590 2 -452.842 2459.91 -526.142 -0.182885 0.567494 0.311778 0.739796 
3591 2 -445.828 2466.61 -524.118 -0.626075 0.641567 -0.32723 0.298904 
3636 2 -401.091 2452.47 -612.486 0.112925 -0.612459 0.541301 0.56492 
3635 2 -396.541 2444.91 -607.913 0.434784 -0.861623 -0.135226 0.224239 
3637 2 -407.349 2458.97 -616.25 -0.291915 -0.065501 0.889926 0.344278 
3638 2 -412.097 2465.36 -622.19 -0.451254 0.689714 0.491598 -0.28106 
3634 2 -392.752 2436.19 -605.026 0.515012 -0.526138 -0.60508 -0.303016 
3633 2 -389.893 2428.71 -599.259 -0.0477659 0.313953 -0.799451 -0.509931 
3639 2 -420.187 2468.58 -626.789 -0.0208944 0.837296 -0.175172 -0.517508 
3632 2 -389.041 2421.67 -592.515 -0.357688 0.885114 -0.255384 -0.153006 
3631 2 -387.217 2413.48 -587.45 -0.491357 0.734766 0.424869 0.195378 
3630 2 -385.046 2404.5 -583.735 -0.143234 0.0118259 0.838604 0.525441 
3629 2 -385.556 2396.66 -577.622 0.337275 -0.605715 0.676227 0.249143 
3628 2 -383.392 2390.59 -569.897 0.344911 -0.916549 -0.201972 0.0134987 
3592 2 -437.629 2472.07 -523.57 -0.645476 -0.0782399 -0.741497 -0.165595 
3593 2 -427.916 2474.58 -524.298 -0.18403 -0.55477 -0.414464 -0.697555 
3594 2 -418.462 2477.24 -523.682 0.35825 -0.584907 0.249016 -0.683763 
3595 2 -408.766 2478.03 -522.067 0.770695 -0.0370083 0.62673 -0.108946 
3596 2 -399.061 2477.52 -519.717 0.556873 0.385724 0.422114 0.602436 
3597 2 -389.719 2478.11 -516.398 -0.204942 0.659817 -0.0993624 0.716078 
3598 2 -379.945 2478.91 -514.457 -0.63549 0.371967 -0.599433 0.313803 
3599 2 -370.009 2480.08 -514.358 -0.61775 -0.197053 -0.716214 -0.258054 
3611 2 -265.015 2439.9 -516.426 0.356643 0.696067 0.06891 0.619313 
3610 2 -274.142 2442.35 -519.273 0.764238 0.308631 0.521073 0.221744 
3609 2 -282.099 2446.17 -523.68 0.77428 -0.0197943 0.506044 -0.379497 
3608 2 -289.866 2451.7 -526.795 0.199665 -0.359987 0.454599 -0.789863 
3607 2 -297.567 2457.73 -528.448 -0.355279 -0.657023 0.170481 -0.642677 
3612 2 -256.163 2435.75 -515.812 -0.289408 0.455463 -0.521575 0.660875 
3606 2 -305.885 2462.4 -526.376 -0.60225 -0.489952 -0.609139 -0.161837 
3605 2 -314.785 2465.18 -523.12 -0.458164 0.196045 -0.778763 0.381025 
3604 2 -322.748 2470.03 -519.464 -0.00327715 0.670852 -0.452517 0.587516 
3603 2 -332.162 2472.18 -517.22 0.398359 0.674641 0.403715 0.472424 
3602 2 -341.324 2475.97 -517.49 0.653873 0.128479 0.73611 -0.118677 
3601 2 -350.78 2478.97 -518.57 0.391394 -0.45397 0.50608 -0.620165 
3600 2 -360.342 2479.3 -516.056 -0.169621 -0.751892 -0.219492 -0.598089 
3763 2 -637.395 2539.9 -569.635 -0.809758 0.573968 -0.00429283 -0.121792 
3764 2 -639.478 2549.21 -566.642 -0.529473 0.22664 -0.630333 -0.520551 
3770 2 -598.037 2584.69 -570.357 -0.627047 0.497888 -0.318677 0.507311 
3765 2 -635.842 2558.33 -566.015 -0.0131243 -0.460193 -0.641212 -0.613919 
3769 2 -607.822 2582.5 -570.852 -0.0225385 0.627619 0.19803 0.752576 
3768 2 -616.951 2579.05 -569.145 0.470167 0.297685 0.687877 0.465996 
3767 2 -625.806 2574.78 -567.686 0.647304 -0.357876 0.671946 -0.0375672 
3766 2 -629.768 2565.96 -568.095 0.533938 -0.693852 -0.119054 -0.4683 
3771 2 -589.631 2588.69 -567.11 -0.821537 -0.0279838 -0.569447 -0.00493587 
3772 2 -580.618 2589.16 -563.461 -0.563722 -0.406494 -0.234124 -0.679828 
3773 2 -572.846 2586.66 -557.79 0.337736 -0.52479 0.299488 -0.72169 
3774 2 -563.235 2586.17 -555.139 0.782348 0.0160278 0.616304 -0.0885722 
3775 1 -544.168 2607.17 -517.398 -0.339249 -0.31119 0.761469 0.456329 
3776 3 -570.005 2628.92 -526.607 -0.317568 -0.282021 0.771571 0.473595 
3786 2 -603.365 2686.08 -519.513 0.513574 -0.501954 -0.684659 -0.124607 
3558 2 -381.866 2641.09 -519.219 0.354632 -0.864447 -0.314926 -0.1667 
3559 1 -335.638 2632.26 -517.006 -0.360463 -0.415819 -0.338182 0.763409 
3802 1 -737.326 2734.9 -534.98 -0.439365 -0.602568 -0.214169 -0.630874 
3801 2 -711.072 2770 -552.377 0.185346 -0.674146 0.143178 0.700481 
3803 3 -704.709 2723.38 -530.125 -0.370861 -0.676442 -0.136391 -0.621519 
3800 2 -702.534 2765.14 -552.234 0.66649 -0.486904 -0.523621 0.211036 
3799 2 -693.621 2760.7 -551.604 0.569461 0.058678 -0.73453 -0.364331 
3798 2 -684.783 2756.79 -553.704 0.084886 0.59803 -0.283746 -0.744743 
3797 2 -677.335 2750.3 -555.141 -0.58597 0.638697 0.130476 -0.481333 
3796 2 -670.541 2743.21 -554.342 -0.657679 0.328884 0.647106 0.201362 
3795 2 -663.514 2735.99 -554.79 -0.264762 -0.328447 0.625355 0.656471 
3787 2 -608.744 2693.46 -523.259 0.377356 -0.87545 -0.00540239 0.301927 
3789 2 -620.335 2705.95 -533.153 -0.435916 0.221911 0.835248 0.251184 
3790 2 -627.35 2711.32 -537.596 -0.362583 0.834433 0.364987 -0.197584 
3791 2 -632.901 2715.95 -544.36 -0.130238 0.763941 -0.425355 -0.467445 
3792 2 -639.243 2721.3 -549.831 0.392306 0.216206 -0.834571 -0.320691 
3793 2 -647.194 2724.89 -554.365 0.691762 -0.452007 -0.563152 0.00382734 
3794 2 -654.968 2731.12 -554.886 0.347035 -0.690396 -0.00805981 0.634708 
3856 1 -644.827 2835.74 -520.546 -0.0614135 0.232701 -0.0367673 0.969911 
3788 2 -613.903 2699.92 -528.799 -0.11933 -0.516288 0.634545 0.562636 
3858 2 -621.559 2795.07 -526.155 -0.904529 -0.086286 -0.0902784 0.407716 
3859 2 -621.626 2793.38 -516.299 -0.838761 0.0301264 0.113953 -0.53159 
3991 1 -715.411 3040.03 -524.494 0.954183 -0.242406 0.1106 -0.136166 
3993 2 -712.664 3086.52 -532.047 -0.888325 0.104656 -0.314743 -0.31759 
3994 2 -708.438 3091 -524.157 -0.268583 -0.304153 -0.215902 -0.888111 
3995 2 -702.206 3093.82 -516.972 0.583728 -0.233946 0.166225 -0.759539 
4056 2 -695.335 3276.3 -523.206 -0.215601 0.315415 -0.912864 -0.143908 
4057 2 -692.348 3280.75 -531.606 -0.199429 -0.490952 -0.801056 -0.278393 
4058 2 -686.801 3283.85 -539.253 0.364442 -0.888123 -0.258956 -0.106589 
4059 2 -685.92 3290.79 -546.252 0.216085 -0.764585 0.525239 0.3047 
4060 2 -687.366 3297.7 -553.421 0.2037 -0.132763 0.844085 0.477914 
4061 2 -685.089 3305.84 -558.526 -0.237142 0.564927 0.659342 0.435763 
4062 2 -682.408 3314.55 -562.581 -0.529756 0.84111 -0.0546047 0.0943981 
4063 2 -679.689 3323.14 -566.535 -0.644562 0.292428 -0.609441 -0.357221 
4064 2 -673.014 3330.43 -566.204 -0.0395596 -0.246242 -0.633817 -0.732172 
4065 2 -669.398 3339.51 -566.185 0.59054 -0.584978 -0.307159 -0.463376 
4066 2 -668.142 3349.36 -565.239 0.712162 -0.602851 0.292424 0.209484 
4067 2 -666.55 3358.99 -563.861 0.355461 -0.274964 0.62669 0.636634 
3019 1 -508.905 1287.14 -413.214 -0.438006 0.346567 -0.768444 -0.312307 
3018 2 -482.409 1266.94 -446.617 -0.398715 0.114808 0.76474 -0.492968 
3017 2 -475.154 1273.66 -445.278 -0.646192 -0.478822 0.594106 -0.0142669 
3016 2 -469.313 1280.14 -440.814 -0.376726 -0.862904 -0.0601597 0.331445 
3015 2 -461.871 1286.14 -438.402 0.0814634 -0.603513 -0.543018 0.578158 
3014 2 -454.403 1292.31 -436.81 0.589786 0.139264 -0.735855 0.30212 
3013 2 -445.455 1295.67 -434.694 0.502283 0.665611 -0.413858 -0.365234 
3012 2 -438.161 1301.65 -431.729 0.182829 0.728773 0.291482 -0.592033 
3020 3 -491.737 1314.21 -427.493 -0.403723 0.292261 -0.810943 -0.306533 
3011 2 -432.285 1309.08 -428.96 -0.298243 0.0748284 0.784158 -0.539025 
3021 2 -525.452 1324.26 -389.263 0.00851685 -0.413793 -0.778829 -0.471304 
3022 2 -521.438 1331.12 -395.135 0.430339 -0.852932 -0.106088 -0.275789 
3023 2 -517.748 1338.64 -400.539 0.364849 -0.694904 0.615351 0.0730488 
3024 2 -514.302 1344.79 -407.469 0.135985 0.0874585 0.943174 0.290314 
3010 2 -424.977 1315.82 -428.114 -0.644955 -0.61078 0.447906 0.101788 
3025 2 -510.359 1350.75 -414.359 -0.303339 0.836885 0.365913 0.271507 
3026 2 -507.53 1357.58 -421.025 -0.411127 0.819322 -0.389536 -0.0891464 
3027 2 -504.339 1364.36 -427.565 -0.233805 0.0194586 -0.730984 -0.640796 
3009 2 -417.975 1321.94 -425.165 -0.203352 -0.792765 -0.218343 0.531505 
3029 2 -496.147 1382.03 -429.777 0.62558 -0.690555 0.361514 -0.0330325 
3028 2 -501.538 1373.9 -428.63 0.346912 -0.688201 -0.371908 -0.517412 
3031 2 -487.339 1399.38 -433.614 -0.0440674 0.394863 0.708987 0.582648 
3030 2 -491.825 1390.65 -431.884 0.400037 -0.195447 0.764823 0.465635 
3032 2 -482.913 1407.51 -437.058 -0.363569 0.903146 0.0696661 0.217466 
3033 2 -479.67 1415.26 -442.242 -0.481742 0.564005 -0.643011 -0.190685 
3034 2 -475.718 1422.88 -447.095 -0.174335 -0.0384008 -0.851579 -0.492895 
3035 2 -471.793 1430.58 -451.882 0.290409 -0.661419 -0.584984 -0.368756 
3036 2 -469.869 1439.02 -456.539 0.422556 -0.885752 0.19181 0.00995113 
3037 2 -468.855 1446.29 -463.174 0.289814 -0.494541 0.76839 0.284631 
3038 2 -467.827 1452.99 -470.459 0.0345999 0.296222 0.798559 0.522838 
3039 2 -463.649 1460.46 -475.294 -0.34098 0.759712 0.396785 0.386176 
2999 2 -385.515 1396.06 -381.663 0.62502 0.728443 -0.271677 -0.0700868 
3000 2 -389.953 1387.57 -383.744 0.422765 0.307357 -0.669105 0.5283 
3003 2 -401.278 1360.98 -388.405 -0.553484 -0.558076 0.601966 -0.140864 
3004 2 -405.681 1352.68 -391.335 -0.20924 0.071346 0.853754 -0.471415 
3002 2 -396.359 1369.5 -387.332 -0.51342 -0.749002 -0.100102 0.406664 
3001 2 -392.493 1378.04 -384.588 0.0331314 -0.223036 -0.767733 0.599786 
3005 2 -409.393 1344.95 -396.283 0.250044 0.739603 0.590865 -0.203332 
3006 2 -409.447 1339.36 -404.41 0.278721 0.931695 -0.225884 0.0568829 
3007 2 -410.501 1334.75 -413.047 0.245268 0.427644 -0.832221 0.253717 
3008 2 -412.363 1328.52 -420.521 0.209849 -0.324177 -0.791545 0.473634 
2998 2 -378.635 1403.19 -380.523 0.230424 0.690416 0.263814 -0.632955 
2997 2 -371.221 1409.77 -381.239 -0.392691 0.224247 0.648828 -0.611988 
2996 2 -364.946 1417.18 -382.811 -0.739382 -0.396845 0.523419 -0.147857 
2995 2 -361.002 1425.71 -385.672 -0.568517 -0.58777 -0.132908 0.560044 
2994 2 -357.877 1433.57 -390.752 0.00670161 -0.132014 -0.484414 0.864795 
2992 1 -311.339 1430.51 -383.381 -0.813408 -0.0699308 0.264371 -0.513405 
3040 2 -460.529 1468.7 -479.88 -0.356701 0.870339 -0.339511 0.00277494 
3044 2 -458.018 1487.42 -513.142 -0.120796 -0.785755 0.566355 0.217345 
3041 2 -457.864 1475.38 -486.52 -0.153866 0.244548 -0.922149 -0.257221 
3042 2 -456.602 1480.38 -495.039 0.153995 -0.507206 -0.831642 -0.165525 
3043 2 -457.119 1485.11 -503.755 0.112981 -0.972539 -0.203196 -0.010667 
3047 3 -418.445 1512.56 -513.457 0.730121 -0.313048 -0.0844097 -0.601498 
3073 1 -501.482 1497.48 -387.572 -0.325676 -0.0720811 -0.507473 -0.794488 
3072 2 -489.951 1527.89 -421.736 0.130539 -0.826281 -0.254738 0.485106 
3071 2 -481.216 1528.95 -417.318 0.481726 -0.265862 -0.804472 0.223792 
3070 2 -471.814 1527.32 -414.634 0.494221 0.335236 -0.710626 -0.371985 
3069 2 -462.271 1529.7 -414.157 0.262658 0.728812 -0.0374195 -0.631224 
3068 2 -452.689 1527.38 -412.692 -0.50371 0.58952 0.402431 -0.486612 
3063 2 -415.495 1499.76 -424.022 0.804439 -0.00762465 -0.494064 -0.329728 
3062 2 -406.135 1498.66 -427.27 0.337184 0.524177 -0.23657 -0.745373 
3061 2 -398.575 1497.79 -433.636 -0.511566 0.446739 0.208873 -0.70363 
3060 2 -392.668 1496.66 -441.469 -0.93691 0.0733867 0.337785 -0.0521168 
3059 2 -387.785 1493.52 -449.576 -0.524501 -0.0859748 0.270379 0.802747 
3058 2 -382.497 1492.67 -457.973 0.389272 -0.274109 -0.027957 0.878948 
3057 2 -377.708 1495.82 -466.045 0.88273 0.0754221 -0.330176 0.325706 
3064 2 -423.384 1502.59 -418.963 0.725075 -0.502815 -0.279954 0.378244 
3065 2 -431.96 1506.75 -416.084 0.277975 -0.541788 0.257012 0.750427 
3066 2 -438.612 1513.36 -412.865 -0.40245 -0.16709 0.717536 0.543376 
3067 2 -445.732 1520.29 -413.736 -0.734452 0.413551 0.517356 0.147983 
3074 3 -487.118 1524.1 -369.964 -0.356358 -0.0658009 -0.475614 -0.801543 
3056 2 -373.263 1497.44 -474.712 0.830251 0.228395 -0.125061 -0.492827 
3055 2 -370.648 1502.25 -483.039 0.0689846 0.15261 0.248467 -0.954052 
3053 2 -368.619 1506.63 -502.058 -0.991284 -0.0589671 0.0286072 0.114284 
3052 2 -370.755 1510.4 -511.03 -0.569723 -0.00981105 -0.235599 0.787282 
3054 2 -369.651 1505.52 -492.242 -0.661271 -0.0686955 0.145587 -0.732671 
3103 2 -544.918 1650.63 -397.841 -0.949358 -0.214322 0.00986509 -0.229538 
3104 2 -545.095 1647.21 -388.519 -0.364364 -0.308761 -0.0493313 -0.877196 
3102 2 -544.251 1651.49 -407.771 -0.830911 -0.0870392 -0.0307401 0.548695 
3105 2 -540.683 1645.12 -379.849 0.508377 -0.243761 0.147846 -0.812573 
3106 2 -535.576 1644.94 -371.294 0.962402 -0.0445469 0.228905 -0.139289 
3107 2 -530.985 1645.43 -362.517 0.720292 0.038724 0.318324 0.615102 
3094 2 -454.204 1642.17 -372.184 0.177548 -0.613284 -0.719689 -0.272776 
3095 2 -453.363 1648.78 -379.417 0.147373 -0.980607 0.128462 -0.0137686 
3096 2 -452.238 1651.2 -389.059 -0.047595 -0.568013 0.813952 0.11215 
3097 2 -453.649 1653.22 -398.618 -0.0833596 0.376972 0.916101 0.108173 
3099 2 -453.302 1661.25 -415.923 -0.275173 0.78531 -0.553371 -0.0367292 
3100 1 -500.158 1661.59 -421.109 -0.792201 -0.241746 0.0713409 -0.555776 
3098 2 -455.998 1656.22 -407.705 -0.2631 0.935593 0.158713 0.173939 
3101 3 -495.634 1646.03 -390.124 -0.726342 -0.19677 0.0820104 -0.65344 
3093 2 -459.018 1635.95 -366.335 -0.296504 0.100591 -0.908043 -0.278253 
3092 2 -462.645 1628.19 -361.593 -0.487388 0.814851 -0.312336 0.0302626 
3156 2 -434.566 1808.18 -383.549 0.287286 -0.376745 0.594531 -0.649663 
3157 2 -426.39 1802.58 -383.262 0.635389 0.0779082 0.743436 -0.193688 
3158 2 -417.269 1798.58 -383.637 0.562898 0.580915 0.295894 0.508065 
3289 1 -366.88 1874.25 -371.966 -0.818601 0.267113 0.399446 0.314621 
3159 2 -408.181 1794.67 -382.826 -0.111231 0.684642 -0.227463 0.683487 
3160 2 -398.374 1793.5 -383.236 -0.654336 0.247303 -0.515713 0.494698 
3161 2 -388.995 1791.78 -380.558 -0.864297 -0.161587 -0.43992 -0.182622 
3293 2 -363.821 1923.43 -378.892 0.218429 -0.497193 -0.000390249 0.839695 
3162 2 -380.994 1790.82 -374.749 -0.465435 -0.370865 -0.28324 -0.752067 
3163 2 -372.87 1791.88 -369.113 0.268757 -0.589662 -0.113616 -0.7531 
3279 2 -452.606 1908.04 -363.907 -0.366789 0.19671 -0.417568 0.807718 
3278 2 -456.348 1915 -369.97 0.489527 0.450738 -0.257048 0.700803 
3277 2 -463.043 1919.3 -375.975 0.859122 0.351893 0.30897 0.206441 
3164 2 -365.194 1797.18 -365.606 0.851424 -0.384075 0.337679 -0.116344 
3292 2 -356.096 1920.23 -384.194 0.758417 -0.376519 -0.351132 0.399681 
3291 2 -349.3 1914.72 -388.778 0.737204 -0.0224466 -0.525573 -0.424027 
3208 1 -244.744 1875.42 -417.244 0.888302 -0.124304 -0.18022 0.403718 
3209 3 -255.121 1873.06 -383.924 0.841547 -0.0993958 -0.14546 0.510648 
3214 2 -294.303 1906.66 -383.386 0.0773564 0.103371 -0.421865 -0.897419 
3213 2 -294.15 1900.77 -391.311 -0.578572 0.157071 -0.202752 -0.774257 
3211 2 -289.519 1894.15 -409.37 -0.550199 0.00523062 0.159881 0.819568 
3210 2 -289.355 1890.82 -418.693 0.296663 -0.0407284 0.122168 0.94626 
3212 2 -291.423 1897.38 -400.248 -0.973636 0.193165 0.0831948 -0.0883104 
3205 2 -211.088 1855.8 -377.061 -0.128438 0.980863 0.104979 0.101936 
3204 2 -214.924 1857.35 -368.155 0.25173 0.502816 0.823645 0.0736056 
3215 2 -296.113 1914.54 -377.786 0.704969 -0.359589 -0.368274 -0.487944 
3216 2 -297.318 1923 -372.65 0.829046 -0.507872 -0.0385578 0.230787 
3206 2 -208.873 1858.56 -386.291 0.0667392 0.618691 -0.772825 0.124537 
3207 2 -207.416 1856.22 -395.775 -0.0644153 -0.165934 -0.976329 0.122878 
3264 2 -521.685 1978.51 -457.065 0.508818 0.0692818 0.122607 0.849277 
3265 2 -519.042 1979.34 -447.546 -0.321527 0.106058 -0.0955377 0.936079 
3266 2 -516.543 1978.93 -437.973 -0.889506 -0.00268366 -0.217957 0.401581 
3294 2 -371.777 1926.45 -373.882 -0.593138 -0.273906 0.469662 0.593785 
3295 2 -379.797 1930.19 -369.768 -0.828049 0.112225 0.535983 -0.120263 
3296 2 -389.083 1930.6 -366.25 -0.405096 0.578354 0.298638 -0.642043 
3267 2 -512.096 1977.49 -429.315 -0.880103 -0.197429 -0.110248 -0.417475 
3268 2 -507.434 1975.19 -420.889 -0.241472 -0.361907 0.0304427 -0.899882 
3276 2 -467.545 1926.76 -380.617 0.60896 0.139137 0.495885 -0.603247 
3275 2 -472.277 1933.51 -386.183 -0.140046 -0.334013 0.306524 -0.880264 
3274 2 -477.927 1940 -391.082 -0.714284 -0.49712 -0.0800889 -0.486062 
3273 2 -482.736 1948.22 -393.967 -0.703588 -0.280179 -0.50296 0.416527 
3269 2 -500.938 1972.51 -413.945 0.566098 -0.205689 0.27304 -0.750116 
3262 1 -482.612 1989.59 -481.075 0.625591 -0.260137 0.227629 0.699392 
3271 2 -491.559 1965.05 -399.239 0.594948 0.598304 -0.13704 0.51893 
3272 2 -487.274 1956.56 -396.393 -0.143154 0.252213 -0.557309 0.778012 
3261 2 -442.527 2013.47 -487.845 0.0939803 -0.365797 -0.915863 -0.136217 
3260 2 -441.618 2010.41 -478.581 -0.0222247 0.525259 -0.833741 -0.168773 
3259 2 -440.006 2007.49 -469.309 -0.130801 0.965737 -0.170061 -0.146022 
3258 2 -436.988 2002.91 -460.982 -0.281157 0.756417 0.586162 0.0721062 
3263 3 -479.914 2009.3 -452.356 0.689716 -0.208645 0.252927 0.645591 
3257 2 -436.088 1999.49 -451.782 -0.0132374 -0.0421034 0.988419 0.14519 
3256 2 -436.124 2000.08 -441.86 0.0176053 -0.835878 0.542074 -0.0845786 
3255 2 -438.172 2000.72 -432.264 -0.0902345 -0.910545 -0.392271 -0.0942799 
3254 2 -439.25 2003.66 -422.87 -0.139286 -0.361852 -0.913724 0.121539 
3253 2 -442.568 2005.76 -413.711 -0.114356 0.499599 -0.835349 0.198783 
3252 2 -444.24 2009.91 -404.824 0.170209 0.969359 -0.116586 0.133338 
3251 2 -445.261 2015.15 -396.385 0.23241 0.685129 0.681837 -0.108087 
3250 2 -447.303 2020.65 -388.498 0.0786701 -0.159597 0.908675 -0.37769 
3249 2 -447.984 2027.05 -380.891 -0.284565 -0.812414 0.468734 -0.198229 
3270 2 -494.921 1971.13 -406.345 0.918795 0.327235 0.218308 -0.0327758 
3248 2 -445.801 2032.87 -373.342 -0.313813 -0.912149 -0.15326 0.214515 
3247 2 -443.879 2038.16 -365.126 -0.00388407 -0.397798 -0.867746 0.297924 
3297 2 -398.708 1931.66 -364.429 0.415458 0.351972 -0.377645 -0.748929 
3217 2 -299.826 1931.25 -367.876 0.270608 -0.418156 0.259073 0.827525 
3218 2 -304.116 1938.54 -362.871 -0.424353 -0.0392592 0.557174 0.7127 
3403 2 -566.567 2179.96 -419 0.388224 0.169449 0.630806 0.650118 
3402 2 -572.354 2171.94 -418.358 0.663074 -0.451307 0.553748 0.223648 
3406 2 -544.711 2198.51 -422.841 -0.52077 -0.0873449 -0.700484 -0.480095 
3407 2 -537.096 2204.92 -422.96 0.111534 -0.54965 -0.53073 -0.635429 
3405 2 -551.891 2192.72 -419.225 -0.594491 0.647107 -0.461221 0.122917 
3404 2 -559.685 2186.96 -417.057 -0.1298 0.765212 0.273848 0.567988 
3401 2 -578.747 2164.51 -416.81 0.497307 -0.755007 -0.0334894 -0.426062 
3400 2 -583.124 2155.63 -415.686 0.130526 -0.418578 -0.616618 -0.653864 
3399 2 -588.664 2147.38 -416.262 -0.511168 0.0126218 -0.662764 -0.547076 
3398 3 -541.007 2149.09 -395.712 -0.763482 0.434147 -0.405735 -0.252965 
3397 1 -553.741 2117.79 -404.828 -0.754844 0.505625 -0.350288 -0.22771 
3408 2 -531.537 2213.08 -423.765 0.603728 -0.66842 0.176586 -0.396918 
3409 2 -523.872 2219.35 -425.005 0.697601 -0.294666 0.548564 0.354405 
3410 2 -518.049 2227.17 -422.92 0.162251 0.212046 0.626927 0.731897 
3396 2 -510.13 2107.71 -390.004 -0.107092 -0.323143 -0.866793 0.36439 
3395 2 -510.592 2114.38 -382.801 0.173397 0.525783 -0.776494 0.300903 
3391 2 -510.753 2152.28 -372.636 -0.422794 -0.515161 0.576357 -0.472934 
3392 2 -510.681 2142.63 -374.372 0.00716668 -0.0253387 0.787739 -0.615446 
3394 2 -509.951 2123.33 -378.837 0.562899 0.820078 -0.0769672 0.0685041 
3393 2 -510.649 2132.97 -376.41 0.407091 0.591662 0.563788 -0.407868 
3346 2 -467.434 2210.25 -365.938 -0.459859 -0.102072 0.387455 -0.792458 
3345 2 -466.926 2217.26 -372.995 -0.889928 -0.38101 0.167495 -0.186561 
3343 1 -422.509 2229.47 -362.755 -0.608679 -0.36426 0.3899 -0.587199 
3390 2 -509.465 2159.43 -366.185 -0.409746 -0.904065 0.106263 0.0590154 
3431 2 -515.166 2339.75 -396.253 -0.0780173 -0.827961 0.389223 -0.396106 
3430 2 -519.875 2345.07 -389.398 -0.425791 -0.81128 -0.373127 -0.145958 
3428 2 -522.53 2354.91 -372.484 0.14242 0.556831 -0.75679 0.311328 
3429 2 -520.975 2349.19 -380.387 -0.101697 -0.222068 -0.951563 0.186741 
3427 2 -522.362 2360.48 -364.307 0.314921 0.942285 -0.112324 0.0175034 
3411 2 -513.511 2235.54 -420.514 -0.492491 0.416486 0.174934 0.743902 
3412 2 -509.245 2242.06 -414.266 -0.909724 0.34265 -0.193618 0.132308 