LAMMPS data file

4067 atoms
4067 ellipsoids
4516 bonds
8882 angles
0 dihedrals

3 atom types
5 bond types
12 angle types
0 dihedral types

-4631.092947 4670.465898 xlo xhi
-4631.092947 4670.465898 ylo yhi
-4631.092947 4670.465898 zlo zhi

Masses

1 196016.000000
2 1950.000000
3 19500.000000

Atoms

1 2 810.796000 -3161.790000 426.431000 1 1.000000 1 -3.000000
2 2 815.693000 -3165.960000 418.835000 1 1.000000 1 -3.000000
3 2 819.402000 -3171.670000 411.680000 1 1.000000 1 -3.000000
4 2 823.110000 -3177.490000 404.427000 1 1.000000 1 -3.000000
5 2 824.991000 -3185.080000 398.244000 1 1.000000 1 -3.000000
6 2 829.238000 -3192.690000 393.439000 1 1.000000 1 -3.000000
7 2 835.635000 -3199.650000 390.638000 1 1.000000 1 -3.000000
8 2 842.172000 -3205.370000 385.911000 1 1.000000 1 -3.000000
9 2 848.554000 -3208.840000 379.261000 1 1.000000 1 -3.000000
10 2 852.515000 -3210.690000 370.251000 1 1.000000 1 -3.000000
11 2 856.267000 -3212.650000 361.327000 1 1.000000 1 -3.000000
12 2 861.925000 -3214.190000 353.422000 1 1.000000 1 -3.000000
13 2 865.112000 -3216.210000 344.211000 1 1.000000 1 -3.000000
14 2 870.031000 -3217.290000 335.727000 1 1.000000 1 -3.000000
15 2 875.973000 -3214.520000 328.266000 1 1.000000 1 -3.000000
16 2 884.648000 -3216.920000 324.104000 1 1.000000 1 -3.000000
17 2 893.623000 -3219.330000 320.514000 1 1.000000 1 -3.000000
18 2 901.791000 -3223.230000 316.503000 1 1.000000 1 -3.000000
19 2 910.801000 -3226.710000 314.185000 1 1.000000 1 -3.000000
20 2 919.941000 -3230.720000 314.576000 1 1.000000 1 -3.000000
21 2 928.865000 -3234.910000 314.786000 1 1.000000 2 -3.000000
22 1 925.508000 -3222.660000 269.321000 1 1.000000 2 0.000000
23 3 904.699000 -3199.640000 285.288000 1 1.000000 2 0.000000
24 2 910.751000 -3194.920000 234.078000 1 1.000000 2 -3.000000
25 2 908.535000 -3188.250000 241.050000 1 1.000000 1 -3.000000
26 2 906.576000 -3180.990000 247.402000 1 1.000000 1 -3.000000
27 2 902.702000 -3174.110000 253.509000 1 1.000000 1 -3.000000
28 2 897.602000 -3166.870000 257.980000 1 1.000000 1 -3.000000
29 2 890.757000 -3162.610000 263.816000 1 1.000000 1 -3.000000
30 2 885.081000 -3161.890000 271.798000 1 1.000000 1 -3.000000
31 2 879.843000 -3161.960000 280.207000 1 1.000000 1 -3.000000
32 2 873.530000 -3164.150000 287.526000 1 1.000000 1 -3.000000
33 2 866.560000 -3163.880000 294.538000 1 1.000000 1 -3.000000
34 2 860.900000 -3163.910000 302.671000 1 1.000000 1 -3.000000
35 2 855.188000 -3162.180000 310.523000 1 1.000000 1 -3.000000
36 2 848.257000 -3158.070000 316.176000 1 1.000000 1 -3.000000
37 2 839.058000 -3155.370000 318.687000 1 1.000000 1 -3.000000
38 2 829.835000 -3153.900000 322.032000 1 1.000000 1 -3.000000
39 2 821.893000 -3152.680000 327.954000 1 1.000000 1 -3.000000
40 2 812.401000 -3150.300000 328.819000 1 1.000000 1 -3.000000
41 2 802.462000 -3151.070000 329.367000 1 1.000000 1 -3.000000
42 2 792.589000 -3150.780000 328.424000 1 1.000000 1 -3.000000
43 2 782.783000 -3151.380000 329.018000 1 1.000000 1 -3.000000
44 2 773.978000 -3147.730000 331.688000 1 1.000000 1 -3.000000
45 2 766.137000 -3142.390000 334.201000 1 1.000000 1 -3.000000
46 2 759.800000 -3135.960000 338.324000 1 1.000000 1 -3.000000
47 2 753.523000 -3128.850000 340.986000 1 1.000000 1 -3.000000
48 2 746.018000 -3124.560000 345.837000 1 1.000000 3 -3.000000
49 1 752.453000 -3079.120000 335.104000 1 1.000000 3 0.000000
50 3 784.175000 -3093.070000 330.024000 1 1.000000 3 0.000000
51 2 778.897000 -3041.980000 322.766000 1 1.000000 3 -3.000000
52 2 785.499000 -3046.240000 328.708000 1 1.000000 1 -3.000000
53 2 792.500000 -3051.060000 333.867000 1 1.000000 1 -3.000000
54 2 798.526000 -3055.660000 340.251000 1 1.000000 1 -3.000000
55 2 804.019000 -3059.630000 347.502000 1 1.000000 1 -3.000000
56 2 809.936000 -3064.150000 353.899000 1 1.000000 1 -3.000000
57 2 814.453000 -3068.500000 361.515000 1 1.000000 1 -3.000000
58 2 817.402000 -3073.270000 369.604000 1 1.000000 1 -3.000000
59 2 817.832000 -3076.610000 378.906000 1 1.000000 1 -3.000000
60 2 820.311000 -3079.850000 387.999000 1 1.000000 1 -3.000000
61 2 825.123000 -3083.880000 395.640000 1 1.000000 1 -3.000000
62 2 831.477000 -3087.870000 402.202000 1 1.000000 1 -3.000000
63 2 838.477000 -3091.680000 408.179000 1 1.000000 1 -3.000000
64 2 844.672000 -3093.290000 415.837000 1 1.000000 1 -3.000000
65 2 850.052000 -3095.460000 423.926000 1 1.000000 1 -3.000000
66 2 853.107000 -3099.670000 432.363000 1 1.000000 1 -3.000000
67 2 854.868000 -3107.710000 437.895000 1 1.000000 1 -3.000000
68 2 857.331000 -3114.410000 444.783000 1 1.000000 1 -3.000000
69 2 855.830000 -3117.920000 453.923000 1 1.000000 1 -3.000000
70 2 853.804000 -3122.620000 462.438000 1 1.000000 1 -3.000000
71 2 848.143000 -3126.000000 469.971000 1 1.000000 1 -3.000000
72 2 843.145000 -3126.910000 478.371000 1 1.000000 1 -3.000000
73 2 838.360000 -3126.520000 487.161000 1 1.000000 1 -3.000000
74 2 832.734000 -3124.490000 495.181000 1 1.000000 1 -3.000000
75 2 824.631000 -3123.270000 500.878000 1 1.000000 4 -3.000000
76 1 815.727000 -3078.560000 488.351000 1 1.000000 4 0.000000
77 3 819.057000 -3095.140000 457.608000 1 1.000000 4 0.000000
78 2 806.965000 -3044.660000 456.749000 1 1.000000 4 -3.000000
79 2 816.435000 -3045.130000 453.562000 1 1.000000 1 -3.000000
80 2 826.328000 -3044.410000 454.370000 1 1.000000 1 -3.000000
81 2 835.352000 -3043.270000 458.633000 1 1.000000 1 -3.000000
82 2 844.475000 -3043.960000 462.310000 1 1.000000 1 -3.000000
83 2 854.339000 -3043.870000 463.884000 1 1.000000 1 -3.000000
84 2 862.963000 -3039.380000 465.792000 1 1.000000 1 -3.000000
85 2 871.378000 -3034.240000 466.167000 1 1.000000 1 -3.000000
86 2 880.052000 -3029.460000 466.859000 1 1.000000 1 -3.000000
87 2 888.678000 -3025.430000 464.273000 1 1.000000 1 -3.000000
88 2 895.850000 -3020.890000 459.300000 1 1.000000 1 -3.000000
89 2 902.455000 -3017.970000 452.521000 1 1.000000 1 -3.000000
90 2 909.540000 -3014.200000 446.611000 1 1.000000 1 -3.000000
91 2 917.109000 -3011.120000 441.054000 1 1.000000 1 -3.000000
92 2 924.738000 -3010.250000 434.839000 1 1.000000 1 -3.000000
93 2 933.141000 -3010.750000 429.425000 1 1.000000 1 -3.000000
94 2 942.274000 -3007.590000 427.410000 1 1.000000 1 -3.000000
95 2 951.026000 -3004.040000 424.606000 1 1.000000 1 -3.000000
96 2 959.229000 -2999.410000 421.601000 1 1.000000 1 -3.000000
97 2 966.696000 -2993.360000 419.312000 1 1.000000 1 -3.000000
98 2 973.767000 -2986.650000 417.261000 1 1.000000 1 -3.000000
99 2 981.211000 -2981.540000 413.472000 1 1.000000 1 -3.000000
100 2 988.614000 -2978.250000 407.682000 1 1.000000 1 -3.000000
101 2 994.163000 -2974.800000 400.200000 1 1.000000 1 -3.000000
102 2 999.818000 -2971.970000 392.568000 1 1.000000 5 -3.000000
103 1 958.807000 -2949.590000 385.508000 1 1.000000 5 0.000000
104 3 950.625000 -2974.180000 409.078000 1 1.000000 5 0.000000
105 2 912.405000 -2943.630000 391.626000 1 1.000000 5 -3.000000
106 2 911.886000 -2947.720000 400.577000 1 1.000000 1 -3.000000
107 2 911.424000 -2948.740000 410.426000 1 1.000000 1 -3.000000
108 2 912.369000 -2952.010000 419.754000 1 1.000000 1 -3.000000
109 2 912.856000 -2955.570000 428.977000 1 1.000000 1 -3.000000
110 2 915.804000 -2958.390000 438.016000 1 1.000000 1 -3.000000
111 2 918.275000 -2957.930000 447.607000 1 1.000000 1 -3.000000
112 2 919.392000 -2955.860000 457.169000 1 1.000000 1 -3.000000
113 2 919.782000 -2951.500000 466.030000 1 1.000000 1 -3.000000
114 2 918.344000 -2949.290000 475.569000 1 1.000000 1 -3.000000
115 2 917.473000 -2946.560000 485.129000 1 1.000000 1 -3.000000
116 2 916.905000 -2942.750000 494.141000 1 1.000000 1 -3.000000
117 2 912.756000 -2940.870000 502.827000 1 1.000000 1 -3.000000
118 2 907.625000 -2938.440000 510.785000 1 1.000000 1 -3.000000
119 2 902.157000 -2937.490000 519.017000 1 1.000000 1 -3.000000
120 2 898.048000 -2934.600000 527.534000 1 1.000000 1 -3.000000
121 2 894.978000 -2934.700000 537.022000 1 1.000000 1 -3.000000
122 2 892.333000 -2939.340000 545.306000 1 1.000000 1 -3.000000
123 2 885.753000 -2942.490000 552.124000 1 1.000000 1 -3.000000
124 2 879.469000 -2943.940000 559.711000 1 1.000000 1 -3.000000
125 2 871.042000 -2944.060000 565.199000 1 1.000000 1 -3.000000
126 2 862.178000 -2945.090000 569.415000 1 1.000000 1 -3.000000
127 2 852.548000 -2945.930000 571.321000 1 1.000000 1 -3.000000
128 2 843.104000 -2948.500000 573.548000 1 1.000000 1 -3.000000
129 2 834.020000 -2948.110000 577.780000 1 1.000000 6 -3.000000
130 1 837.440000 -2923.560000 617.928000 1 1.000000 6 0.000000
131 3 869.817000 -2922.310000 604.965000 1 1.000000 6 0.000000
132 2 860.954000 -2898.770000 650.403000 1 1.000000 6 -3.000000
133 2 868.070000 -2899.200000 643.387000 1 1.000000 1 -3.000000
134 2 873.702000 -2901.050000 635.476000 1 1.000000 1 -3.000000
135 2 880.117000 -2902.650000 628.100000 1 1.000000 1 -3.000000
136 2 884.957000 -2903.620000 619.544000 1 1.000000 1 -3.000000
137 2 887.925000 -2902.320000 610.155000 1 1.000000 1 -3.000000
138 2 890.761000 -2899.140000 601.213000 1 1.000000 1 -3.000000
139 2 888.379000 -2895.400000 592.241000 1 1.000000 1 -3.000000
140 2 884.452000 -2890.910000 584.246000 1 1.000000 1 -3.000000
141 2 883.664000 -2887.070000 575.125000 1 1.000000 1 -3.000000
142 2 886.553000 -2881.460000 567.355000 1 1.000000 1 -3.000000
143 2 891.273000 -2874.460000 562.220000 1 1.000000 1 -3.000000
144 2 893.758000 -2865.670000 558.354000 1 1.000000 1 -3.000000
145 2 895.650000 -2856.430000 555.555000 1 1.000000 1 -3.000000
146 2 893.615000 -2847.330000 552.007000 1 1.000000 1 -3.000000
147 2 892.861000 -2838.930000 546.840000 1 1.000000 1 -3.000000
148 2 897.964000 -2830.450000 547.070000 1 1.000000 1 -3.000000
149 2 904.388000 -2823.560000 550.235000 1 1.000000 1 -3.000000
150 2 911.489000 -2816.620000 549.903000 1 1.000000 1 -3.000000
151 2 915.815000 -2807.750000 550.054000 1 1.000000 1 -3.000000
152 2 918.692000 -2798.330000 549.103000 1 1.000000 1 -3.000000
153 2 921.515000 -2790.010000 544.666000 1 1.000000 1 -3.000000
154 2 924.830000 -2783.250000 538.165000 1 1.000000 1 -3.000000
155 2 929.028000 -2775.200000 534.378000 1 1.000000 1 -3.000000
156 2 931.167000 -2768.740000 527.324000 1 1.000000 7 -3.000000
157 1 953.900000 -2794.890000 495.358000 1 1.000000 7 0.000000
158 3 934.467000 -2818.350000 512.616000 1 1.000000 7 0.000000
159 2 965.647000 -2835.660000 474.784000 1 1.000000 7 -3.000000
160 2 961.208000 -2839.570000 482.797000 1 1.000000 1 -3.000000
161 2 954.631000 -2841.310000 489.851000 1 1.000000 1 -3.000000
162 2 949.290000 -2845.120000 497.411000 1 1.000000 1 -3.000000
163 2 945.502000 -2849.280000 505.606000 1 1.000000 1 -3.000000
164 2 948.343000 -2853.590000 514.178000 1 1.000000 1 -3.000000
165 2 949.275000 -2857.300000 523.328000 1 1.000000 1 -3.000000
166 2 952.137000 -2861.120000 531.842000 1 1.000000 1 -3.000000
167 2 953.901000 -2862.540000 541.577000 1 1.000000 1 -3.000000
168 2 956.273000 -2864.120000 551.037000 1 1.000000 1 -3.000000
169 2 956.384000 -2864.900000 560.966000 1 1.000000 1 -3.000000
170 2 958.345000 -2867.500000 570.370000 1 1.000000 1 -3.000000
171 2 960.704000 -2871.760000 578.966000 1 1.000000 1 -3.000000
172 2 962.801000 -2871.310000 588.592000 1 1.000000 1 -3.000000
173 2 963.926000 -2870.160000 598.343000 1 1.000000 1 -3.000000
174 2 962.789000 -2870.120000 608.153000 1 1.000000 1 -3.000000
175 2 964.476000 -2869.270000 617.860000 1 1.000000 1 -3.000000
176 2 967.781000 -2872.010000 626.822000 1 1.000000 1 -3.000000
177 2 972.474000 -2873.670000 635.349000 1 1.000000 1 -3.000000
178 2 976.326000 -2875.640000 644.338000 1 1.000000 1 -3.000000
179 2 982.388000 -2878.630000 651.492000 1 1.000000 1 -3.000000
180 2 990.320000 -2878.950000 657.392000 1 1.000000 1 -3.000000
181 2 1000.220000 -2877.790000 658.598000 1 1.000000 1 -3.000000
182 2 1008.700000 -2872.620000 659.015000 1 1.000000 1 -3.000000
183 2 1017.860000 -2869.810000 661.573000 1 1.000000 8 -3.000000
184 1 1018.530000 -2824.690000 647.804000 1 1.000000 8 0.000000
185 3 984.506000 -2832.680000 646.435000 1 1.000000 8 0.000000
186 2 998.051000 -2783.650000 636.606000 1 1.000000 8 -3.000000
187 2 989.789000 -2786.050000 641.501000 1 1.000000 1 -3.000000
188 2 981.453000 -2789.450000 645.181000 1 1.000000 1 -3.000000
189 2 972.711000 -2792.460000 648.758000 1 1.000000 1 -3.000000
190 2 964.472000 -2797.680000 650.857000 1 1.000000 1 -3.000000
191 2 955.868000 -2801.950000 653.487000 1 1.000000 1 -3.000000
192 2 947.322000 -2806.520000 655.045000 1 1.000000 1 -3.000000
193 2 938.555000 -2811.030000 655.149000 1 1.000000 1 -3.000000
194 2 930.619000 -2815.860000 658.493000 1 1.000000 1 -3.000000
195 2 922.201000 -2821.030000 658.572000 1 1.000000 1 -3.000000
196 2 914.731000 -2827.400000 657.997000 1 1.000000 1 -3.000000
197 2 906.528000 -2832.850000 659.020000 1 1.000000 1 -3.000000
198 2 898.250000 -2837.470000 661.865000 1 1.000000 1 -3.000000
199 2 889.958000 -2839.870000 666.849000 1 1.000000 1 -3.000000
200 2 881.244000 -2842.580000 670.828000 1 1.000000 1 -3.000000
201 2 873.805000 -2847.190000 675.409000 1 1.000000 1 -3.000000
202 2 867.211000 -2853.680000 678.873000 1 1.000000 1 -3.000000
203 2 866.555000 -2862.710000 682.998000 1 1.000000 1 -3.000000
204 2 863.520000 -2871.690000 685.825000 1 1.000000 1 -3.000000
205 2 859.851000 -2880.780000 687.511000 1 1.000000 1 -3.000000
206 2 857.356000 -2890.150000 688.950000 1 1.000000 1 -3.000000
207 2 852.165000 -2898.560000 689.801000 1 1.000000 1 -3.000000
208 2 848.406000 -2907.270000 687.108000 1 1.000000 1 -3.000000
209 2 846.397000 -2916.780000 684.828000 1 1.000000 1 -3.000000
210 2 843.047000 -2925.280000 680.803000 1 1.000000 9 -3.000000
211 1 857.318000 -2948.660000 719.315000 1 1.000000 9 0.000000
212 3 851.080000 -2916.370000 731.455000 1 1.000000 9 0.000000
213 2 869.842000 -2951.290000 764.774000 1 1.000000 9 -3.000000
214 2 864.044000 -2943.180000 765.781000 1 1.000000 1 -3.000000
215 2 859.712000 -2935.910000 770.983000 1 1.000000 1 -3.000000
216 2 856.144000 -2926.670000 772.205000 1 1.000000 1 -3.000000
217 2 850.673000 -2918.720000 774.363000 1 1.000000 1 -3.000000
218 2 844.960000 -2911.200000 771.520000 1 1.000000 1 -3.000000
219 2 839.473000 -2902.960000 771.748000 1 1.000000 1 -3.000000
220 2 832.187000 -2896.700000 769.322000 1 1.000000 1 -3.000000
221 2 824.560000 -2891.520000 766.027000 1 1.000000 1 -3.000000
222 2 814.796000 -2890.190000 764.429000 1 1.000000 1 -3.000000
223 2 805.165000 -2888.780000 763.630000 1 1.000000 1 -3.000000
224 2 795.587000 -2890.150000 761.012000 1 1.000000 1 -3.000000
225 2 788.258000 -2892.210000 754.622000 1 1.000000 1 -3.000000
226 2 781.123000 -2892.920000 747.478000 1 1.000000 1 -3.000000
227 2 773.069000 -2892.540000 741.749000 1 1.000000 1 -3.000000
228 2 766.297000 -2891.400000 734.705000 1 1.000000 1 -3.000000
229 2 760.032000 -2890.230000 727.196000 1 1.000000 1 -3.000000
230 2 753.355000 -2890.500000 719.861000 1 1.000000 1 -3.000000
231 2 749.845000 -2891.520000 710.603000 1 1.000000 1 -3.000000
232 2 743.471000 -2890.700000 703.044000 1 1.000000 1 -3.000000
233 2 735.806000 -2889.070000 697.169000 1 1.000000 1 -3.000000
234 2 728.011000 -2890.240000 691.178000 1 1.000000 1 -3.000000
235 2 719.670000 -2894.920000 688.533000 1 1.000000 1 -3.000000
236 2 711.254000 -2899.980000 687.435000 1 1.000000 1 -3.000000
237 2 703.910000 -2906.200000 689.971000 1 1.000000 10 -3.000000
238 1 689.343000 -2871.960000 719.034000 1 1.000000 10 0.000000
239 3 722.160000 -2862.590000 711.275000 1 1.000000 10 0.000000
240 2 694.459000 -2830.920000 741.772000 1 1.000000 10 -3.000000
241 2 699.939000 -2827.890000 734.122000 1 1.000000 1 -3.000000
242 2 702.042000 -2825.970000 724.599000 1 1.000000 1 -3.000000
243 2 702.212000 -2822.940000 715.166000 1 1.000000 1 -3.000000
244 2 704.365000 -2816.620000 707.735000 1 1.000000 1 -3.000000
245 2 705.858000 -2810.780000 699.790000 1 1.000000 1 -3.000000
246 2 705.892000 -2810.840000 689.916000 1 1.000000 1 -3.000000
247 2 702.946000 -2811.870000 680.613000 1 1.000000 1 -3.000000
248 2 698.370000 -2808.430000 672.447000 1 1.000000 1 -3.000000
249 2 691.786000 -2806.470000 665.337000 1 1.000000 1 -3.000000
250 2 687.276000 -2803.050000 656.975000 1 1.000000 1 -3.000000
251 2 684.827000 -2797.320000 649.165000 1 1.000000 1 -3.000000
252 2 683.167000 -2789.260000 643.761000 1 1.000000 1 -3.000000
253 2 679.064000 -2780.850000 640.581000 1 1.000000 1 -3.000000
254 2 675.793000 -2772.730000 636.120000 1 1.000000 1 -3.000000
255 2 671.661000 -2764.100000 633.886000 1 1.000000 1 -3.000000
256 2 665.198000 -2756.550000 633.149000 1 1.000000 1 -3.000000
257 2 658.520000 -2749.290000 634.606000 1 1.000000 1 -3.000000
258 2 653.339000 -2742.850000 639.914000 1 1.000000 1 -3.000000
259 2 647.624000 -2736.930000 645.386000 1 1.000000 1 -3.000000
260 2 642.118000 -2729.890000 649.817000 1 1.000000 1 -3.000000
261 2 637.260000 -2722.180000 653.681000 1 1.000000 1 -3.000000
262 2 631.393000 -2717.190000 659.991000 1 1.000000 1 -3.000000
263 2 624.560000 -2712.630000 665.433000 1 1.000000 1 -3.000000
264 2 618.693000 -2708.630000 672.217000 1 1.000000 11 -3.000000
265 1 585.607000 -2735.190000 651.510000 1 1.000000 11 0.000000
266 3 611.215000 -2758.050000 658.491000 1 1.000000 11 0.000000
267 2 567.525000 -2776.500000 637.325000 1 1.000000 11 -3.000000
268 2 576.943000 -2779.350000 636.371000 1 1.000000 1 -3.000000
269 2 584.856000 -2783.190000 640.838000 1 1.000000 1 -3.000000
270 2 594.168000 -2786.190000 642.699000 1 1.000000 1 -3.000000
271 2 603.297000 -2790.150000 643.527000 1 1.000000 1 -3.000000
272 2 612.148000 -2794.530000 643.508000 1 1.000000 1 -3.000000
273 2 620.576000 -2797.040000 638.763000 1 1.000000 1 -3.000000
274 2 627.445000 -2799.500000 632.086000 1 1.000000 1 -3.000000
275 2 633.869000 -2802.300000 625.112000 1 1.000000 1 -3.000000
276 2 639.655000 -2803.860000 617.227000 1 1.000000 1 -3.000000
277 2 644.433000 -2806.730000 609.242000 1 1.000000 1 -3.000000
278 2 646.366000 -2810.880000 600.515000 1 1.000000 1 -3.000000
279 2 648.895000 -2814.350000 591.563000 1 1.000000 1 -3.000000
280 2 648.053000 -2814.660000 581.719000 1 1.000000 1 -3.000000
281 2 646.738000 -2816.040000 572.052000 1 1.000000 1 -3.000000
282 2 646.259000 -2814.940000 562.341000 1 1.000000 1 -3.000000
283 2 644.007000 -2815.100000 552.785000 1 1.000000 1 -3.000000
284 2 639.536000 -2814.190000 543.966000 1 1.000000 1 -3.000000
285 2 634.154000 -2814.070000 535.702000 1 1.000000 1 -3.000000
286 2 629.265000 -2811.310000 527.567000 1 1.000000 1 -3.000000
287 2 627.774000 -2808.560000 518.100000 1 1.000000 1 -3.000000
288 2 630.637000 -2804.740000 509.353000 1 1.000000 1 -3.000000
289 2 635.460000 -2800.360000 501.797000 1 1.000000 1 -3.000000
290 2 642.747000 -2798.390000 495.281000 1 1.000000 1 -3.000000
291 2 649.895000 -2797.430000 488.405000 1 1.000000 12 -3.000000
292 1 620.005000 -2801.280000 452.147000 1 1.000000 12 0.000000
293 3 599.218000 -2805.590000 479.931000 1 1.000000 12 0.000000
294 2 577.467000 -2808.130000 432.984000 1 1.000000 12 -3.000000
295 2 571.638000 -2802.560000 438.771000 1 1.000000 1 -3.000000
296 2 567.866000 -2794.770000 443.380000 1 1.000000 1 -3.000000
297 2 565.526000 -2787.990000 450.353000 1 1.000000 1 -3.000000
298 2 563.027000 -2783.710000 458.778000 1 1.000000 1 -3.000000
299 2 559.189000 -2776.650000 464.602000 1 1.000000 1 -3.000000
300 2 556.053000 -2770.840000 471.926000 1 1.000000 1 -3.000000
301 2 551.441000 -2764.380000 477.699000 1 1.000000 1 -3.000000
302 2 545.863000 -2757.040000 481.449000 1 1.000000 1 -3.000000
303 2 541.829000 -2749.770000 487.022000 1 1.000000 1 -3.000000
304 2 539.093000 -2740.480000 488.550000 1 1.000000 1 -3.000000
305 2 535.322000 -2732.150000 484.653000 1 1.000000 1 -3.000000
306 2 531.236000 -2724.130000 480.468000 1 1.000000 1 -3.000000
307 2 528.615000 -2716.320000 474.889000 1 1.000000 1 -3.000000
308 2 523.433000 -2710.180000 469.050000 1 1.000000 1 -3.000000
309 2 516.798000 -2704.860000 464.032000 1 1.000000 1 -3.000000
310 2 510.039000 -2698.520000 460.784000 1 1.000000 1 -3.000000
311 2 504.541000 -2691.350000 456.777000 1 1.000000 1 -3.000000
312 2 498.727000 -2684.390000 452.677000 1 1.000000 1 -3.000000
313 2 492.898000 -2676.420000 451.657000 1 1.000000 1 -3.000000
314 2 486.820000 -2669.170000 448.712000 1 1.000000 1 -3.000000
315 2 481.443000 -2661.600000 445.594000 1 1.000000 1 -3.000000
316 2 473.132000 -2657.330000 442.484000 1 1.000000 1 -3.000000
317 2 464.098000 -2653.640000 440.996000 1 1.000000 1 -3.000000
318 2 456.200000 -2649.570000 436.535000 1 1.000000 13 -3.000000
319 1 437.393000 -2637.570000 478.136000 1 1.000000 13 0.000000
320 3 471.447000 -2640.680000 485.518000 1 1.000000 13 0.000000
321 2 439.230000 -2629.530000 524.524000 1 1.000000 13 -3.000000
322 2 448.922000 -2627.580000 525.004000 1 1.000000 1 -3.000000
323 2 458.267000 -2624.510000 525.740000 1 1.000000 1 -3.000000
324 2 467.904000 -2622.680000 526.637000 1 1.000000 1 -3.000000
325 2 477.305000 -2619.560000 525.201000 1 1.000000 1 -3.000000
326 2 486.558000 -2618.490000 521.817000 1 1.000000 1 -3.000000
327 2 494.377000 -2618.200000 515.795000 1 1.000000 1 -3.000000
328 2 503.445000 -2617.190000 511.700000 1 1.000000 1 -3.000000
329 2 512.429000 -2616.460000 507.647000 1 1.000000 1 -3.000000
330 2 521.306000 -2613.090000 504.827000 1 1.000000 1 -3.000000
331 2 528.313000 -2606.420000 506.599000 1 1.000000 1 -3.000000
332 2 529.904000 -2596.660000 507.734000 1 1.000000 1 -3.000000
333 2 533.264000 -2587.450000 506.374000 1 1.000000 1 -3.000000
334 2 535.104000 -2577.920000 505.025000 1 1.000000 1 -3.000000
335 2 534.526000 -2568.110000 504.383000 1 1.000000 1 -3.000000
336 2 534.312000 -2558.260000 504.913000 1 1.000000 1 -3.000000
337 2 534.050000 -2548.440000 503.355000 1 1.000000 1 -3.000000
338 2 533.812000 -2538.640000 501.632000 1 1.000000 1 -3.000000
339 2 533.919000 -2529.320000 498.602000 1 1.000000 1 -3.000000
340 2 536.263000 -2520.040000 496.210000 1 1.000000 1 -3.000000
341 2 537.606000 -2510.300000 494.929000 1 1.000000 1 -3.000000
342 2 537.229000 -2500.490000 494.159000 1 1.000000 1 -3.000000
343 2 539.538000 -2490.880000 494.361000 1 1.000000 1 -3.000000
344 2 538.159000 -2481.400000 492.120000 1 1.000000 1 -3.000000
345 2 540.040000 -2472.050000 489.579000 1 1.000000 14 -3.000000
346 1 586.725000 -2465.780000 487.088000 1 1.000000 14 0.000000
347 3 583.667000 -2499.730000 495.540000 1 1.000000 14 0.000000
348 2 631.517000 -2479.590000 492.656000 1 1.000000 14 -3.000000
349 2 631.412000 -2485.800000 500.313000 1 1.000000 1 -3.000000
350 2 633.972000 -2492.770000 506.929000 1 1.000000 1 -3.000000
351 2 639.424000 -2497.500000 513.795000 1 1.000000 1 -3.000000
352 2 648.388000 -2500.410000 516.740000 1 1.000000 1 -3.000000
353 2 655.469000 -2501.820000 523.604000 1 1.000000 1 -3.000000
354 2 661.910000 -2505.050000 530.377000 1 1.000000 1 -3.000000
355 2 668.227000 -2508.960000 536.902000 1 1.000000 1 -3.000000
356 2 672.050000 -2514.430000 544.103000 1 1.000000 1 -3.000000
357 2 674.666000 -2520.570000 551.392000 1 1.000000 1 -3.000000
358 2 676.565000 -2525.600000 559.631000 1 1.000000 1 -3.000000
359 2 676.640000 -2526.380000 569.623000 1 1.000000 1 -3.000000
360 2 673.334000 -2526.510000 578.956000 1 1.000000 1 -3.000000
361 2 668.069000 -2523.160000 586.461000 1 1.000000 1 -3.000000
362 2 666.998000 -2516.620000 593.749000 1 1.000000 1 -3.000000
363 2 666.320000 -2512.440000 602.707000 1 1.000000 1 -3.000000
364 2 665.326000 -2511.270000 612.453000 1 1.000000 1 -3.000000
365 2 670.436000 -2511.860000 620.879000 1 1.000000 1 -3.000000
366 2 672.856000 -2512.670000 630.500000 1 1.000000 1 -3.000000
367 2 675.449000 -2510.120000 639.661000 1 1.000000 1 -3.000000
368 2 677.171000 -2511.470000 649.389000 1 1.000000 1 -3.000000
369 2 679.512000 -2513.980000 658.755000 1 1.000000 1 -3.000000
370 2 681.845000 -2511.830000 668.122000 1 1.000000 1 -3.000000
371 2 685.130000 -2509.430000 676.966000 1 1.000000 1 -3.000000
372 2 689.156000 -2510.920000 686.020000 1 1.000000 15 -3.000000
373 1 694.660000 -2464.380000 691.675000 1 1.000000 15 0.000000
374 3 670.565000 -2466.560000 666.531000 1 1.000000 15 0.000000
375 2 684.101000 -2419.300000 682.761000 1 1.000000 15 -3.000000
376 2 676.717000 -2421.550000 676.611000 1 1.000000 1 -3.000000
377 2 669.373000 -2425.520000 671.284000 1 1.000000 1 -3.000000
378 2 660.940000 -2423.170000 666.746000 1 1.000000 1 -3.000000
379 2 651.987000 -2420.760000 663.336000 1 1.000000 1 -3.000000
380 2 644.480000 -2415.890000 659.267000 1 1.000000 1 -3.000000
381 2 638.161000 -2410.920000 653.530000 1 1.000000 1 -3.000000
382 2 632.017000 -2408.170000 646.250000 1 1.000000 1 -3.000000
383 2 624.987000 -2403.720000 640.984000 1 1.000000 1 -3.000000
384 2 619.274000 -2397.260000 635.968000 1 1.000000 1 -3.000000
385 2 614.118000 -2390.060000 631.406000 1 1.000000 1 -3.000000
386 2 612.909000 -2381.880000 625.934000 1 1.000000 1 -3.000000
387 2 610.174000 -2373.680000 621.180000 1 1.000000 1 -3.000000
388 2 609.098000 -2366.020000 615.078000 1 1.000000 1 -3.000000
389 2 609.675000 -2357.100000 610.995000 1 1.000000 1 -3.000000
390 2 608.636000 -2347.960000 607.261000 1 1.000000 1 -3.000000
391 2 606.784000 -2339.440000 602.666000 1 1.000000 1 -3.000000
392 2 601.607000 -2335.050000 595.469000 1 1.000000 1 -3.000000
393 2 596.848000 -2327.590000 590.814000 1 1.000000 1 -3.000000
394 2 593.097000 -2318.930000 587.608000 1 1.000000 1 -3.000000
395 2 589.667000 -2309.770000 586.444000 1 1.000000 1 -3.000000
396 2 584.593000 -2301.280000 586.204000 1 1.000000 1 -3.000000
397 2 579.591000 -2295.150000 592.078000 1 1.000000 1 -3.000000
398 2 575.197000 -2289.300000 598.655000 1 1.000000 1 -3.000000
399 2 570.648000 -2282.720000 604.626000 1 1.000000 16 -3.000000
400 1 600.998000 -2247.780000 613.908000 1 1.000000 16 0.000000
401 3 616.745000 -2265.520000 588.170000 1 1.000000 16 0.000000
402 2 640.325000 -2222.940000 606.092000 1 1.000000 16 -3.000000
403 2 639.937000 -2228.060000 597.748000 1 1.000000 1 -3.000000
404 2 639.443000 -2230.630000 588.137000 1 1.000000 1 -3.000000
405 2 635.992000 -2228.370000 579.293000 1 1.000000 1 -3.000000
406 2 631.329000 -2227.170000 570.663000 1 1.000000 1 -3.000000
407 2 630.845000 -2223.610000 561.507000 1 1.000000 1 -3.000000
408 2 632.237000 -2217.080000 554.331000 1 1.000000 1 -3.000000
409 2 635.786000 -2210.370000 548.005000 1 1.000000 1 -3.000000
410 2 642.213000 -2203.570000 545.158000 1 1.000000 1 -3.000000
411 2 647.422000 -2195.810000 541.897000 1 1.000000 1 -3.000000
412 2 649.482000 -2187.310000 537.137000 1 1.000000 1 -3.000000
413 2 651.675000 -2178.000000 534.354000 1 1.000000 1 -3.000000
414 2 655.217000 -2169.210000 531.629000 1 1.000000 1 -3.000000
415 2 661.142000 -2162.110000 528.077000 1 1.000000 1 -3.000000
416 2 667.539000 -2156.470000 523.021000 1 1.000000 1 -3.000000
417 2 673.859000 -2150.220000 518.673000 1 1.000000 1 -3.000000
418 2 681.632000 -2144.580000 516.028000 1 1.000000 1 -3.000000
419 2 687.910000 -2137.310000 514.067000 1 1.000000 1 -3.000000
420 2 694.113000 -2129.730000 513.251000 1 1.000000 1 -3.000000
421 2 700.395000 -2122.060000 514.485000 1 1.000000 1 -3.000000
422 2 707.407000 -2115.040000 513.619000 1 1.000000 1 -3.000000
423 2 713.206000 -2106.980000 514.103000 1 1.000000 1 -3.000000
424 2 717.906000 -2098.210000 514.482000 1 1.000000 1 -3.000000
425 2 719.910000 -2088.710000 516.841000 1 1.000000 1 -3.000000
426 2 719.265000 -2079.240000 520.037000 1 1.000000 17 -3.000000
427 1 751.574000 -2078.430000 554.373000 1 1.000000 17 0.000000
428 3 760.804000 -2106.410000 535.281000 1 1.000000 17 0.000000
429 2 791.392000 -2093.090000 575.186000 1 1.000000 17 -3.000000
430 2 793.195000 -2101.060000 569.436000 1 1.000000 1 -3.000000
431 2 796.692000 -2106.010000 561.567000 1 1.000000 1 -3.000000
432 2 797.590000 -2113.370000 555.106000 1 1.000000 1 -3.000000
433 2 798.028000 -2120.720000 548.553000 1 1.000000 1 -3.000000
434 2 796.384000 -2128.860000 542.940000 1 1.000000 1 -3.000000
435 2 794.755000 -2136.740000 537.034000 1 1.000000 1 -3.000000
436 2 790.992000 -2144.310000 531.912000 1 1.000000 1 -3.000000
437 2 789.366000 -2151.790000 525.559000 1 1.000000 1 -3.000000
438 2 783.963000 -2158.560000 520.607000 1 1.000000 1 -3.000000
439 2 778.395000 -2163.890000 514.358000 1 1.000000 1 -3.000000
440 2 773.589000 -2168.680000 507.292000 1 1.000000 1 -3.000000
441 2 773.743000 -2174.910000 499.760000 1 1.000000 1 -3.000000
442 2 778.048000 -2182.000000 494.283000 1 1.000000 1 -3.000000
443 2 779.428000 -2190.420000 489.143000 1 1.000000 1 -3.000000
444 2 780.892000 -2199.710000 486.080000 1 1.000000 1 -3.000000
445 2 783.539000 -2208.920000 483.621000 1 1.000000 1 -3.000000
446 2 785.595000 -2217.290000 478.953000 1 1.000000 1 -3.000000
447 2 789.207000 -2226.510000 479.418000 1 1.000000 1 -3.000000
448 2 792.468000 -2235.060000 483.269000 1 1.000000 1 -3.000000
449 2 797.476000 -2242.840000 487.046000 1 1.000000 1 -3.000000
450 2 801.909000 -2251.300000 489.710000 1 1.000000 1 -3.000000
451 2 807.419000 -2258.910000 492.874000 1 1.000000 1 -3.000000
452 2 812.105000 -2266.510000 497.066000 1 1.000000 1 -3.000000
453 2 816.483000 -2273.420000 502.573000 1 1.000000 18 -3.000000
454 1 826.275000 -2301.110000 465.730000 1 1.000000 18 0.000000
455 3 811.273000 -2273.110000 450.829000 1 1.000000 18 0.000000
456 2 826.968000 -2311.630000 419.807000 1 1.000000 18 -3.000000
457 2 821.142000 -2304.760000 415.752000 1 1.000000 1 -3.000000
458 2 817.549000 -2296.200000 412.206000 1 1.000000 1 -3.000000
459 2 816.116000 -2286.920000 409.055000 1 1.000000 1 -3.000000
460 2 813.639000 -2277.690000 406.152000 1 1.000000 1 -3.000000
461 2 810.260000 -2268.400000 406.387000 1 1.000000 1 -3.000000
462 2 808.618000 -2258.710000 407.029000 1 1.000000 1 -3.000000
463 2 808.245000 -2249.020000 406.985000 1 1.000000 1 -3.000000
464 2 809.255000 -2239.230000 407.015000 1 1.000000 1 -3.000000
465 2 814.154000 -2230.530000 407.621000 1 1.000000 1 -3.000000