LAMMPS data file

4067 atoms
4067 ellipsoids
4516 bonds
8882 angles
0 dihedrals

3 atom types
5 bond types
12 angle types
0 dihedral types

-4631.092947 4670.465898 xlo xhi
-4631.092947 4670.465898 ylo yhi
-4631.092947 4670.465898 zlo zhi

Masses

1 196016.000000
2 1950.000000
3 19500.000000

Atoms

1 2 638.069000 -2951.750000 543.864000 1 1.000000 1 -3.000000
2 2 635.195000 -2959.510000 549.257000 1 1.000000 1 -3.000000
3 2 630.490000 -2967.480000 552.971000 1 1.000000 1 -3.000000
4 2 627.745000 -2977.120000 552.727000 1 1.000000 1 -3.000000
5 2 623.884000 -2986.250000 552.326000 1 1.000000 1 -3.000000
6 2 618.790000 -2994.700000 550.618000 1 1.000000 1 -3.000000
7 2 611.208000 -3000.980000 549.125000 1 1.000000 1 -3.000000
8 2 604.908000 -3005.760000 543.080000 1 1.000000 1 -3.000000
9 2 600.284000 -3013.840000 539.751000 1 1.000000 1 -3.000000
10 2 596.454000 -3020.760000 533.706000 1 1.000000 1 -3.000000
11 2 593.927000 -3023.910000 524.609000 1 1.000000 1 -3.000000
12 2 593.086000 -3027.650000 515.551000 1 1.000000 1 -3.000000
13 2 588.548000 -3032.210000 508.078000 1 1.000000 1 -3.000000
14 2 581.416000 -3034.220000 501.595000 1 1.000000 1 -3.000000
15 2 572.678000 -3036.880000 497.630000 1 1.000000 1 -3.000000
16 2 564.263000 -3041.220000 494.547000 1 1.000000 1 -3.000000
17 2 556.219000 -3041.570000 488.621000 1 1.000000 1 -3.000000
18 2 549.286000 -3044.080000 482.019000 1 1.000000 1 -3.000000
19 2 544.069000 -3050.920000 477.158000 1 1.000000 1 -3.000000
20 2 537.955000 -3057.240000 472.549000 1 1.000000 1 -3.000000
21 2 531.919000 -3062.960000 467.077000 1 1.000000 2 -3.000000
22 1 493.594000 -3050.970000 491.783000 1 1.000000 2 0.000000
23 3 508.151000 -3020.100000 484.253000 1 1.000000 2 0.000000
24 2 462.953000 -3019.750000 509.667000 1 1.000000 2 -3.000000
25 2 469.394000 -3013.170000 505.913000 1 1.000000 1 -3.000000
26 2 473.501000 -3006.430000 499.839000 1 1.000000 1 -3.000000
27 2 477.085000 -2998.380000 495.456000 1 1.000000 1 -3.000000
28 2 482.693000 -2993.070000 489.228000 1 1.000000 1 -3.000000
29 2 486.170000 -2985.410000 483.915000 1 1.000000 1 -3.000000
30 2 490.306000 -2977.720000 479.217000 1 1.000000 1 -3.000000
31 2 494.034000 -2970.670000 473.378000 1 1.000000 1 -3.000000
32 2 497.853000 -2963.100000 468.004000 1 1.000000 1 -3.000000
33 2 500.252000 -2955.080000 462.607000 1 1.000000 1 -3.000000
34 2 500.409000 -2949.290000 454.613000 1 1.000000 1 -3.000000
35 2 502.111000 -2945.890000 445.393000 1 1.000000 1 -3.000000
36 2 505.543000 -2943.390000 436.548000 1 1.000000 1 -3.000000
37 2 509.083000 -2937.950000 429.132000 1 1.000000 1 -3.000000
38 2 512.330000 -2935.530000 420.143000 1 1.000000 1 -3.000000
39 2 513.182000 -2931.850000 411.043000 1 1.000000 1 -3.000000
40 2 512.076000 -2925.560000 403.404000 1 1.000000 1 -3.000000
41 2 513.252000 -2917.020000 398.434000 1 1.000000 1 -3.000000
42 2 511.450000 -2910.130000 391.520000 1 1.000000 1 -3.000000
43 2 507.634000 -2902.230000 387.056000 1 1.000000 1 -3.000000
44 2 502.102000 -2895.160000 383.038000 1 1.000000 1 -3.000000
45 2 492.979000 -2891.410000 382.151000 1 1.000000 1 -3.000000
46 2 483.996000 -2888.090000 379.987000 1 1.000000 1 -3.000000
47 2 475.463000 -2886.160000 375.332000 1 1.000000 1 -3.000000
48 2 466.111000 -2887.370000 372.026000 1 1.000000 3 -3.000000
49 1 480.087000 -2921.460000 342.564000 1 1.000000 3 0.000000
50 3 510.150000 -2906.280000 352.124000 1 1.000000 3 0.000000
51 2 512.940000 -2948.150000 321.529000 1 1.000000 3 -3.000000
52 2 521.719000 -2944.500000 324.270000 1 1.000000 1 -3.000000
53 2 529.877000 -2942.150000 329.325000 1 1.000000 1 -3.000000
54 2 537.210000 -2936.840000 333.282000 1 1.000000 1 -3.000000
55 2 545.008000 -2932.610000 337.698000 1 1.000000 1 -3.000000
56 2 551.031000 -2929.210000 345.019000 1 1.000000 1 -3.000000
57 2 557.989000 -2925.710000 351.174000 1 1.000000 1 -3.000000
58 2 561.952000 -2922.950000 359.868000 1 1.000000 1 -3.000000
59 2 568.522000 -2922.920000 367.200000 1 1.000000 1 -3.000000
60 2 576.628000 -2922.440000 372.826000 1 1.000000 1 -3.000000
61 2 585.423000 -2920.240000 376.936000 1 1.000000 1 -3.000000
62 2 593.744000 -2917.100000 381.535000 1 1.000000 1 -3.000000
63 2 602.399000 -2915.760000 386.159000 1 1.000000 1 -3.000000
64 2 611.307000 -2913.800000 389.984000 1 1.000000 1 -3.000000
65 2 620.817000 -2914.060000 392.713000 1 1.000000 1 -3.000000
66 2 628.165000 -2913.110000 399.173000 1 1.000000 1 -3.000000
67 2 634.461000 -2912.040000 406.677000 1 1.000000 1 -3.000000
68 2 639.262000 -2907.620000 414.173000 1 1.000000 1 -3.000000
69 2 644.155000 -2899.530000 417.140000 1 1.000000 1 -3.000000
70 2 646.948000 -2890.190000 418.510000 1 1.000000 1 -3.000000
71 2 650.945000 -2881.750000 415.529000 1 1.000000 1 -3.000000
72 2 655.984000 -2873.310000 414.349000 1 1.000000 1 -3.000000
73 2 664.743000 -2869.440000 411.902000 1 1.000000 1 -3.000000
74 2 674.525000 -2868.380000 410.957000 1 1.000000 1 -3.000000
75 2 680.896000 -2867.070000 403.484000 1 1.000000 4 -3.000000
76 1 721.237000 -2868.940000 427.763000 1 1.000000 4 0.000000
77 3 697.699000 -2859.050000 451.850000 1 1.000000 4 0.000000
78 2 747.208000 -2864.770000 466.942000 1 1.000000 4 -3.000000
79 2 739.909000 -2863.830000 473.607000 1 1.000000 1 -3.000000
80 2 733.475000 -2863.740000 481.103000 1 1.000000 1 -3.000000
81 2 725.855000 -2864.340000 487.315000 1 1.000000 1 -3.000000
82 2 718.991000 -2860.140000 492.924000 1 1.000000 1 -3.000000
83 2 712.646000 -2853.250000 496.051000 1 1.000000 1 -3.000000
84 2 704.373000 -2847.650000 496.494000 1 1.000000 1 -3.000000
85 2 697.710000 -2841.420000 492.876000 1 1.000000 1 -3.000000
86 2 693.997000 -2832.590000 490.294000 1 1.000000 1 -3.000000
87 2 689.688000 -2823.830000 488.478000 1 1.000000 1 -3.000000
88 2 688.097000 -2814.030000 488.553000 1 1.000000 1 -3.000000
89 2 685.811000 -2805.420000 492.643000 1 1.000000 1 -3.000000
90 2 683.650000 -2796.030000 494.806000 1 1.000000 1 -3.000000
91 2 679.782000 -2787.010000 496.109000 1 1.000000 1 -3.000000
92 2 671.486000 -2781.340000 496.874000 1 1.000000 1 -3.000000
93 2 662.997000 -2776.620000 498.682000 1 1.000000 1 -3.000000
94 2 656.218000 -2770.530000 502.782000 1 1.000000 1 -3.000000
95 2 649.166000 -2764.560000 506.364000 1 1.000000 1 -3.000000
96 2 640.855000 -2759.840000 509.185000 1 1.000000 1 -3.000000
97 2 634.220000 -2753.490000 512.797000 1 1.000000 1 -3.000000
98 2 627.076000 -2747.260000 515.744000 1 1.000000 1 -3.000000
99 2 620.473000 -2740.340000 517.862000 1 1.000000 1 -3.000000
100 2 612.992000 -2734.550000 520.744000 1 1.000000 1 -3.000000
101 2 605.173000 -2728.450000 521.642000 1 1.000000 1 -3.000000
102 2 597.374000 -2722.720000 520.430000 1 1.000000 5 -3.000000
103 1 583.936000 -2734.460000 564.071000 1 1.000000 5 0.000000
104 3 616.198000 -2747.810000 561.536000 1 1.000000 5 0.000000
105 2 590.075000 -2755.460000 605.876000 1 1.000000 5 -3.000000
106 2 599.728000 -2752.860000 606.278000 1 1.000000 1 -3.000000
107 2 609.392000 -2750.860000 604.970000 1 1.000000 1 -3.000000
108 2 618.903000 -2748.420000 604.786000 1 1.000000 1 -3.000000
109 2 628.611000 -2747.060000 605.344000 1 1.000000 1 -3.000000
110 2 637.314000 -2747.640000 600.777000 1 1.000000 1 -3.000000
111 2 645.970000 -2751.080000 597.634000 1 1.000000 1 -3.000000
112 2 653.412000 -2756.570000 594.300000 1 1.000000 1 -3.000000
113 2 659.265000 -2764.290000 592.621000 1 1.000000 1 -3.000000
114 2 663.752000 -2772.850000 590.328000 1 1.000000 1 -3.000000
115 2 669.253000 -2780.000000 586.232000 1 1.000000 1 -3.000000
116 2 674.539000 -2786.750000 581.231000 1 1.000000 1 -3.000000
117 2 678.502000 -2794.580000 576.717000 1 1.000000 1 -3.000000
118 2 683.487000 -2801.780000 572.304000 1 1.000000 1 -3.000000
119 2 690.438000 -2803.240000 565.406000 1 1.000000 1 -3.000000
120 2 697.024000 -2802.020000 558.068000 1 1.000000 1 -3.000000
121 2 700.983000 -2804.000000 549.166000 1 1.000000 1 -3.000000
122 2 701.100000 -2806.340000 539.560000 1 1.000000 1 -3.000000
123 2 700.190000 -2810.440000 530.622000 1 1.000000 1 -3.000000
124 2 702.637000 -2816.950000 523.721000 1 1.000000 1 -3.000000
125 2 709.341000 -2822.750000 519.272000 1 1.000000 1 -3.000000
126 2 717.268000 -2828.620000 519.155000 1 1.000000 1 -3.000000
127 2 726.230000 -2833.080000 518.517000 1 1.000000 1 -3.000000
128 2 735.546000 -2836.490000 519.949000 1 1.000000 1 -3.000000
129 2 744.612000 -2838.510000 516.552000 1 1.000000 6 -3.000000
130 1 748.328000 -2853.440000 561.221000 1 1.000000 6 0.000000
131 3 722.494000 -2829.750000 562.790000 1 1.000000 6 0.000000
132 2 737.756000 -2851.970000 607.171000 1 1.000000 6 -3.000000
133 2 727.849000 -2851.850000 606.848000 1 1.000000 1 -3.000000
134 2 718.120000 -2852.860000 608.753000 1 1.000000 1 -3.000000
135 2 710.335000 -2851.210000 614.525000 1 1.000000 1 -3.000000
136 2 702.645000 -2847.740000 619.794000 1 1.000000 1 -3.000000
137 2 695.034000 -2846.970000 626.085000 1 1.000000 1 -3.000000
138 2 686.841000 -2846.460000 631.372000 1 1.000000 1 -3.000000
139 2 678.835000 -2842.510000 635.537000 1 1.000000 1 -3.000000
140 2 669.590000 -2839.910000 637.747000 1 1.000000 1 -3.000000
141 2 661.159000 -2835.990000 641.404000 1 1.000000 1 -3.000000
142 2 653.978000 -2834.740000 647.947000 1 1.000000 1 -3.000000
143 2 644.639000 -2834.370000 651.085000 1 1.000000 1 -3.000000
144 2 636.079000 -2833.530000 656.187000 1 1.000000 1 -3.000000
145 2 627.746000 -2830.480000 660.368000 1 1.000000 1 -3.000000
146 2 618.523000 -2830.640000 664.328000 1 1.000000 1 -3.000000
147 2 610.675000 -2830.520000 670.003000 1 1.000000 1 -3.000000
148 2 603.195000 -2830.950000 676.344000 1 1.000000 1 -3.000000
149 2 596.624000 -2835.810000 681.897000 1 1.000000 1 -3.000000
150 2 593.318000 -2840.790000 689.872000 1 1.000000 1 -3.000000
151 2 588.214000 -2846.440000 696.152000 1 1.000000 1 -3.000000
152 2 582.465000 -2851.950000 702.232000 1 1.000000 1 -3.000000
153 2 577.331000 -2858.030000 708.207000 1 1.000000 1 -3.000000
154 2 574.798000 -2864.500000 715.306000 1 1.000000 1 -3.000000
155 2 571.789000 -2868.520000 723.802000 1 1.000000 1 -3.000000
156 2 573.789000 -2870.310000 733.322000 1 1.000000 7 -3.000000
157 1 589.356000 -2827.210000 744.339000 1 1.000000 7 0.000000
158 3 568.671000 -2821.500000 716.709000 1 1.000000 7 0.000000
159 2 590.201000 -2780.220000 739.712000 1 1.000000 7 -3.000000
160 2 590.211000 -2781.220000 729.850000 1 1.000000 1 -3.000000
161 2 588.046000 -2783.660000 720.344000 1 1.000000 1 -3.000000
162 2 583.470000 -2787.540000 712.421000 1 1.000000 1 -3.000000
163 2 581.230000 -2795.370000 706.925000 1 1.000000 1 -3.000000
164 2 579.369000 -2803.600000 701.532000 1 1.000000 1 -3.000000
165 2 579.111000 -2809.100000 693.213000 1 1.000000 1 -3.000000
166 2 574.576000 -2814.110000 686.061000 1 1.000000 1 -3.000000
167 2 569.104000 -2820.340000 680.613000 1 1.000000 1 -3.000000
168 2 563.441000 -2826.560000 675.602000 1 1.000000 1 -3.000000
169 2 558.471000 -2832.970000 669.769000 1 1.000000 1 -3.000000
170 2 550.786000 -2837.530000 665.628000 1 1.000000 1 -3.000000
171 2 544.659000 -2842.950000 660.087000 1 1.000000 1 -3.000000
172 2 540.297000 -2849.870000 654.652000 1 1.000000 1 -3.000000
173 2 536.989000 -2859.070000 653.410000 1 1.000000 1 -3.000000
174 2 533.966000 -2868.440000 652.169000 1 1.000000 1 -3.000000
175 2 529.280000 -2876.810000 650.166000 1 1.000000 1 -3.000000
176 2 524.676000 -2885.480000 649.671000 1 1.000000 1 -3.000000
177 2 518.671000 -2893.450000 649.127000 1 1.000000 1 -3.000000
178 2 514.713000 -2902.380000 651.544000 1 1.000000 1 -3.000000
179 2 508.672000 -2908.680000 656.283000 1 1.000000 1 -3.000000
180 2 501.813000 -2915.200000 659.385000 1 1.000000 1 -3.000000
181 2 497.245000 -2923.820000 660.447000 1 1.000000 1 -3.000000
182 2 491.571000 -2931.550000 662.443000 1 1.000000 1 -3.000000
183 2 486.820000 -2940.110000 664.000000 1 1.000000 8 -3.000000
184 1 443.653000 -2927.300000 650.038000 1 1.000000 8 0.000000
185 3 464.500000 -2906.780000 630.938000 1 1.000000 8 0.000000
186 2 413.361000 -2902.940000 623.173000 1 1.000000 8 -3.000000
187 2 420.044000 -2897.130000 618.525000 1 1.000000 1 -3.000000
188 2 426.795000 -2892.580000 613.012000 1 1.000000 1 -3.000000
189 2 433.746000 -2887.300000 608.456000 1 1.000000 1 -3.000000
190 2 441.054000 -2881.260000 605.717000 1 1.000000 1 -3.000000
191 2 447.622000 -2874.410000 603.150000 1 1.000000 1 -3.000000
192 2 453.237000 -2866.280000 604.484000 1 1.000000 1 -3.000000
193 2 459.124000 -2858.520000 602.440000 1 1.000000 1 -3.000000
194 2 466.651000 -2852.270000 601.584000 1 1.000000 1 -3.000000
195 2 473.376000 -2844.980000 602.103000 1 1.000000 1 -3.000000
196 2 477.139000 -2835.840000 603.568000 1 1.000000 1 -3.000000
197 2 481.460000 -2827.410000 606.407000 1 1.000000 1 -3.000000
198 2 485.320000 -2818.630000 609.056000 1 1.000000 1 -3.000000
199 2 488.154000 -2809.450000 610.630000 1 1.000000 1 -3.000000
200 2 492.072000 -2800.840000 607.554000 1 1.000000 1 -3.000000
201 2 494.586000 -2794.320000 600.651000 1 1.000000 1 -3.000000
202 2 495.266000 -2785.030000 596.964000 1 1.000000 1 -3.000000
203 2 499.652000 -2778.420000 591.013000 1 1.000000 1 -3.000000
204 2 505.675000 -2772.240000 586.054000 1 1.000000 1 -3.000000
205 2 513.192000 -2766.960000 582.333000 1 1.000000 1 -3.000000
206 2 520.531000 -2762.640000 577.185000 1 1.000000 1 -3.000000
207 2 528.895000 -2763.820000 572.333000 1 1.000000 1 -3.000000
208 2 536.718000 -2765.170000 566.602000 1 1.000000 1 -3.000000
209 2 543.703000 -2766.980000 559.802000 1 1.000000 1 -3.000000
210 2 551.766000 -2767.440000 553.849000 1 1.000000 9 -3.000000
211 1 538.518000 -2812.230000 546.927000 1 1.000000 9 0.000000
212 3 508.314000 -2794.570000 545.901000 1 1.000000 9 0.000000
213 2 506.504000 -2846.300000 540.578000 1 1.000000 9 -3.000000
214 2 501.397000 -2839.370000 535.453000 1 1.000000 1 -3.000000
215 2 497.091000 -2835.660000 527.317000 1 1.000000 1 -3.000000
216 2 492.134000 -2828.310000 522.724000 1 1.000000 1 -3.000000
217 2 486.320000 -2822.110000 517.577000 1 1.000000 1 -3.000000
218 2 480.721000 -2814.140000 515.495000 1 1.000000 1 -3.000000
219 2 479.876000 -2804.210000 514.852000 1 1.000000 1 -3.000000
220 2 477.036000 -2794.790000 514.894000 1 1.000000 1 -3.000000
221 2 475.119000 -2785.360000 512.539000 1 1.000000 1 -3.000000
222 2 474.386000 -2776.920000 507.449000 1 1.000000 1 -3.000000
223 2 474.206000 -2770.390000 499.860000 1 1.000000 1 -3.000000
224 2 469.745000 -2766.330000 491.906000 1 1.000000 1 -3.000000
225 2 467.632000 -2764.040000 482.583000 1 1.000000 1 -3.000000
226 2 467.214000 -2762.170000 472.910000 1 1.000000 1 -3.000000
227 2 465.958000 -2758.570000 463.707000 1 1.000000 1 -3.000000
228 2 468.803000 -2755.610000 454.648000 1 1.000000 1 -3.000000
229 2 472.497000 -2751.730000 446.294000 1 1.000000 1 -3.000000
230 2 479.725000 -2749.480000 439.932000 1 1.000000 1 -3.000000
231 2 487.757000 -2746.660000 435.093000 1 1.000000 1 -3.000000
232 2 496.574000 -2744.040000 431.275000 1 1.000000 1 -3.000000
233 2 505.203000 -2740.690000 428.223000 1 1.000000 1 -3.000000
234 2 514.411000 -2737.730000 425.691000 1 1.000000 1 -3.000000
235 2 522.919000 -2732.780000 423.716000 1 1.000000 1 -3.000000
236 2 531.087000 -2727.280000 423.245000 1 1.000000 1 -3.000000
237 2 539.215000 -2721.890000 423.081000 1 1.000000 10 -3.000000
238 1 520.460000 -2678.720000 426.152000 1 1.000000 10 0.000000
239 3 494.670000 -2699.490000 437.329000 1 1.000000 10 0.000000
240 2 485.410000 -2648.490000 435.377000 1 1.000000 10 -3.000000
241 2 478.758000 -2655.910000 435.790000 1 1.000000 1 -3.000000
242 2 472.458000 -2662.950000 438.654000 1 1.000000 1 -3.000000
243 2 465.691000 -2668.210000 443.573000 1 1.000000 1 -3.000000
244 2 460.169000 -2671.620000 451.021000 1 1.000000 1 -3.000000
245 2 455.950000 -2676.380000 458.675000 1 1.000000 1 -3.000000
246 2 451.315000 -2681.500000 465.741000 1 1.000000 1 -3.000000
247 2 447.131000 -2685.310000 473.778000 1 1.000000 1 -3.000000
248 2 441.105000 -2689.830000 480.199000 1 1.000000 1 -3.000000
249 2 435.681000 -2691.260000 488.431000 1 1.000000 1 -3.000000
250 2 432.164000 -2694.780000 497.105000 1 1.000000 1 -3.000000
251 2 430.275000 -2696.810000 506.654000 1 1.000000 1 -3.000000
252 2 425.812000 -2703.060000 512.711000 1 1.000000 1 -3.000000
253 2 420.476000 -2706.520000 520.280000 1 1.000000 1 -3.000000
254 2 416.895000 -2710.200000 528.721000 1 1.000000 1 -3.000000
255 2 410.721000 -2713.090000 535.795000 1 1.000000 1 -3.000000
256 2 403.461000 -2718.460000 539.955000 1 1.000000 1 -3.000000
257 2 396.867000 -2721.510000 546.462000 1 1.000000 1 -3.000000
258 2 390.480000 -2728.050000 550.563000 1 1.000000 1 -3.000000
259 2 383.414000 -2734.920000 551.777000 1 1.000000 1 -3.000000
260 2 376.649000 -2740.880000 555.843000 1 1.000000 1 -3.000000
261 2 370.814000 -2748.030000 559.791000 1 1.000000 1 -3.000000
262 2 362.906000 -2752.980000 563.104000 1 1.000000 1 -3.000000
263 2 356.349000 -2759.780000 566.385000 1 1.000000 1 -3.000000
264 2 353.589000 -2769.160000 568.250000 1 1.000000 11 -3.000000
265 1 348.551000 -2743.160000 607.225000 1 1.000000 11 0.000000
266 3 357.583000 -2719.540000 583.163000 1 1.000000 11 0.000000
267 2 352.567000 -2703.130000 632.053000 1 1.000000 11 -3.000000
268 2 355.476000 -2694.660000 627.816000 1 1.000000 1 -3.000000
269 2 357.417000 -2685.040000 626.029000 1 1.000000 1 -3.000000
270 2 359.726000 -2675.730000 623.456000 1 1.000000 1 -3.000000
271 2 361.599000 -2666.880000 619.503000 1 1.000000 1 -3.000000
272 2 362.845000 -2658.330000 614.582000 1 1.000000 1 -3.000000
273 2 364.617000 -2649.340000 611.041000 1 1.000000 1 -3.000000
274 2 368.143000 -2640.700000 607.700000 1 1.000000 1 -3.000000
275 2 371.896000 -2631.540000 607.953000 1 1.000000 1 -3.000000
276 2 373.635000 -2621.980000 609.502000 1 1.000000 1 -3.000000
277 2 376.028000 -2612.800000 606.469000 1 1.000000 1 -3.000000
278 2 380.311000 -2608.440000 598.667000 1 1.000000 1 -3.000000
279 2 387.353000 -2604.850000 592.649000 1 1.000000 1 -3.000000
280 2 393.553000 -2601.140000 586.021000 1 1.000000 1 -3.000000
281 2 397.305000 -2599.210000 577.083000 1 1.000000 1 -3.000000
282 2 402.405000 -2599.250000 568.461000 1 1.000000 1 -3.000000
283 2 409.288000 -2598.450000 561.398000 1 1.000000 1 -3.000000
284 2 413.929000 -2599.410000 552.571000 1 1.000000 1 -3.000000
285 2 417.688000 -2598.680000 543.392000 1 1.000000 1 -3.000000
286 2 422.082000 -2600.460000 534.667000 1 1.000000 1 -3.000000
287 2 423.579000 -2599.960000 525.018000 1 1.000000 1 -3.000000
288 2 426.313000 -2597.310000 515.856000 1 1.000000 1 -3.000000
289 2 428.982000 -2593.320000 507.238000 1 1.000000 1 -3.000000
290 2 428.723000 -2587.060000 499.552000 1 1.000000 1 -3.000000
291 2 429.838000 -2584.530000 489.979000 1 1.000000 12 -3.000000
292 1 465.245000 -2555.590000 501.743000 1 1.000000 12 0.000000
293 3 461.744000 -2575.730000 530.026000 1 1.000000 12 0.000000
294 2 497.948000 -2538.560000 531.070000 1 1.000000 12 -3.000000
295 2 493.324000 -2542.090000 539.081000 1 1.000000 1 -3.000000
296 2 490.548000 -2545.160000 548.042000 1 1.000000 1 -3.000000
297 2 487.439000 -2550.480000 555.759000 1 1.000000 1 -3.000000
298 2 484.803000 -2555.090000 564.248000 1 1.000000 1 -3.000000
299 2 483.162000 -2557.700000 573.636000 1 1.000000 1 -3.000000
300 2 481.937000 -2560.790000 583.074000 1 1.000000 1 -3.000000
301 2 477.651000 -2564.270000 591.311000 1 1.000000 1 -3.000000
302 2 471.276000 -2570.470000 595.563000 1 1.000000 1 -3.000000
303 2 465.338000 -2576.150000 601.280000 1 1.000000 1 -3.000000
304 2 460.383000 -2583.350000 605.974000 1 1.000000 1 -3.000000
305 2 456.496000 -2590.670000 611.353000 1 1.000000 1 -3.000000
306 2 457.199000 -2597.910000 617.965000 1 1.000000 1 -3.000000
307 2 457.360000 -2605.320000 624.443000 1 1.000000 1 -3.000000
308 2 458.426000 -2614.400000 628.356000 1 1.000000 1 -3.000000
309 2 461.167000 -2624.020000 628.643000 1 1.000000 1 -3.000000
310 2 461.060000 -2633.920000 629.349000 1 1.000000 1 -3.000000
311 2 461.443000 -2642.380000 634.456000 1 1.000000 1 -3.000000
312 2 462.831000 -2651.710000 637.510000 1 1.000000 1 -3.000000
313 2 461.565000 -2659.650000 643.335000 1 1.000000 1 -3.000000
314 2 463.672000 -2665.860000 650.671000 1 1.000000 1 -3.000000
315 2 466.660000 -2670.540000 658.794000 1 1.000000 1 -3.000000
316 2 471.835000 -2675.450000 665.774000 1 1.000000 1 -3.000000
317 2 474.764000 -2681.680000 672.814000 1 1.000000 1 -3.000000
318 2 480.256000 -2687.760000 678.397000 1 1.000000 13 -3.000000
319 1 500.176000 -2719.010000 649.084000 1 1.000000 13 0.000000
320 3 490.385000 -2692.990000 627.780000 1 1.000000 13 0.000000
321 2 512.006000 -2735.060000 606.274000 1 1.000000 13 -3.000000
322 2 511.872000 -2727.400000 599.949000 1 1.000000 1 -3.000000
323 2 509.396000 -2720.130000 593.740000 1 1.000000 1 -3.000000
324 2 509.242000 -2711.510000 588.910000 1 1.000000 1 -3.000000
325 2 510.856000 -2703.070000 583.886000 1 1.000000 1 -3.000000
326 2 513.652000 -2693.760000 582.475000 1 1.000000 1 -3.000000
327 2 515.782000 -2684.670000 586.032000 1 1.000000 1 -3.000000
328 2 519.970000 -2677.390000 591.296000 1 1.000000 1 -3.000000
329 2 525.394000 -2670.490000 595.909000 1 1.000000 1 -3.000000
330 2 533.235000 -2667.240000 600.984000 1 1.000000 1 -3.000000
331 2 541.238000 -2663.290000 605.557000 1 1.000000 1 -3.000000
332 2 549.544000 -2660.050000 610.074000 1 1.000000 1 -3.000000
333 2 558.904000 -2658.900000 613.170000 1 1.000000 1 -3.000000
334 2 567.977000 -2655.150000 614.137000 1 1.000000 1 -3.000000
335 2 572.238000 -2648.030000 619.711000 1 1.000000 1 -3.000000
336 2 575.331000 -2639.710000 623.993000 1 1.000000 1 -3.000000
337 2 577.546000 -2632.920000 631.065000 1 1.000000 1 -3.000000
338 2 582.970000 -2626.080000 635.788000 1 1.000000 1 -3.000000
339 2 584.422000 -2619.820000 643.282000 1 1.000000 1 -3.000000
340 2 585.101000 -2616.110000 652.413000 1 1.000000 1 -3.000000
341 2 585.265000 -2615.590000 662.254000 1 1.000000 1 -3.000000
342 2 584.453000 -2615.000000 672.164000 1 1.000000 1 -3.000000
343 2 586.930000 -2615.650000 681.686000 1 1.000000 1 -3.000000
344 2 585.103000 -2616.810000 691.352000 1 1.000000 1 -3.000000
345 2 584.068000 -2620.180000 700.508000 1 1.000000 14 -3.000000
346 1 608.605000 -2660.440000 698.574000 1 1.000000 14 0.000000
347 3 610.409000 -2648.380000 665.812000 1 1.000000 14 0.000000
348 2 631.082000 -2695.050000 675.762000 1 1.000000 14 -3.000000
349 2 629.289000 -2693.050000 666.285000 1 1.000000 1 -3.000000
350 2 629.521000 -2689.820000 656.875000 1 1.000000 1 -3.000000
351 2 631.574000 -2685.540000 648.171000 1 1.000000 1 -3.000000
352 2 632.784000 -2681.360000 639.435000 1 1.000000 1 -3.000000
353 2 634.922000 -2674.220000 632.844000 1 1.000000 1 -3.000000
354 2 640.766000 -2673.290000 624.919000 1 1.000000 1 -3.000000
355 2 647.780000 -2675.030000 618.160000 1 1.000000 1 -3.000000
356 2 654.788000 -2677.390000 611.502000 1 1.000000 1 -3.000000
357 2 660.768000 -2680.500000 604.184000 1 1.000000 1 -3.000000
358 2 662.578000 -2682.310000 594.791000 1 1.000000 1 -3.000000
359 2 659.900000 -2682.850000 585.205000 1 1.000000 1 -3.000000
360 2 654.070000 -2680.410000 577.706000 1 1.000000 1 -3.000000
361 2 648.803000 -2678.480000 569.454000 1 1.000000 1 -3.000000
362 2 644.860000 -2676.020000 560.897000 1 1.000000 1 -3.000000
363 2 641.414000 -2671.440000 552.775000 1 1.000000 1 -3.000000
364 2 638.020000 -2668.100000 544.096000 1 1.000000 1 -3.000000
365 2 636.803000 -2665.330000 534.720000 1 1.000000 1 -3.000000
366 2 636.456000 -2664.390000 524.886000 1 1.000000 1 -3.000000
367 2 635.314000 -2661.180000 515.471000 1 1.000000 1 -3.000000
368 2 632.684000 -2654.920000 508.236000 1 1.000000 1 -3.000000
369 2 630.271000 -2647.220000 502.411000 1 1.000000 1 -3.000000
370 2 624.545000 -2639.220000 501.297000 1 1.000000 1 -3.000000
371 2 618.311000 -2631.510000 501.329000 1 1.000000 1 -3.000000
372 2 613.152000 -2624.050000 505.369000 1 1.000000 15 -3.000000
373 1 572.008000 -2617.510000 483.233000 1 1.000000 15 0.000000
374 3 592.464000 -2630.340000 458.083000 1 1.000000 15 0.000000
375 2 542.827000 -2621.460000 446.391000 1 1.000000 15 -3.000000
376 2 547.731000 -2625.380000 438.697000 1 1.000000 1 -3.000000
377 2 552.121000 -2626.910000 429.959000 1 1.000000 1 -3.000000
378 2 555.780000 -2624.780000 420.910000 1 1.000000 1 -3.000000
379 2 559.579000 -2621.550000 412.445000 1 1.000000 1 -3.000000
380 2 564.553000 -2616.730000 405.279000 1 1.000000 1 -3.000000
381 2 567.567000 -2611.960000 397.121000 1 1.000000 1 -3.000000
382 2 571.840000 -2604.370000 392.536000 1 1.000000 1 -3.000000
383 2 575.054000 -2596.730000 387.087000 1 1.000000 1 -3.000000
384 2 572.034000 -2590.870000 379.831000 1 1.000000 1 -3.000000
385 2 571.103000 -2584.760000 372.068000 1 1.000000 1 -3.000000
386 2 567.847000 -2577.970000 365.667000 1 1.000000 1 -3.000000
387 2 561.716000 -2573.630000 359.116000 1 1.000000 1 -3.000000
388 2 555.945000 -2572.700000 351.077000 1 1.000000 1 -3.000000
389 2 549.703000 -2573.130000 343.391000 1 1.000000 1 -3.000000
390 2 541.009000 -2574.960000 338.707000 1 1.000000 1 -3.000000
391 2 532.641000 -2579.070000 335.601000 1 1.000000 1 -3.000000
392 2 524.394000 -2584.420000 333.805000 1 1.000000 1 -3.000000
393 2 516.337000 -2589.870000 335.926000 1 1.000000 1 -3.000000
394 2 510.640000 -2597.860000 336.022000 1 1.000000 1 -3.000000
395 2 508.111000 -2607.290000 335.394000 1 1.000000 1 -3.000000
396 2 503.202000 -2615.820000 334.079000 1 1.000000 1 -3.000000
397 2 497.625000 -2623.820000 331.898000 1 1.000000 1 -3.000000
398 2 491.181000 -2630.830000 329.700000 1 1.000000 1 -3.000000
399 2 483.310000 -2636.690000 328.076000 1 1.000000 16 -3.000000
400 1 454.353000 -2620.900000 361.767000 1 1.000000 16 0.000000
401 3 469.825000 -2591.690000 349.914000 1 1.000000 16 0.000000
402 2 435.437000 -2587.100000 388.776000 1 1.000000 16 -3.000000
403 2 440.172000 -2580.440000 383.219000 1 1.000000 1 -3.000000
404 2 444.455000 -2573.580000 377.596000 1 1.000000 1 -3.000000
405 2 447.268000 -2565.830000 372.068000 1 1.000000 1 -3.000000
406 2 449.078000 -2558.070000 366.217000 1 1.000000 1 -3.000000
407 2 450.525000 -2551.600000 358.934000 1 1.000000 1 -3.000000
408 2 451.307000 -2541.900000 357.191000 1 1.000000 1 -3.000000
409 2 450.840000 -2532.200000 355.347000 1 1.000000 1 -3.000000
410 2 449.780000 -2522.460000 354.315000 1 1.000000 1 -3.000000
411 2 448.681000 -2512.690000 355.860000 1 1.000000 1 -3.000000
412 2 446.827000 -2503.670000 359.438000 1 1.000000 1 -3.000000
413 2 445.548000 -2495.130000 364.272000 1 1.000000 1 -3.000000
414 2 447.719000 -2486.250000 367.697000 1 1.000000 1 -3.000000
415 2 446.941000 -2477.740000 372.555000 1 1.000000 1 -3.000000
416 2 443.663000 -2469.180000 376.344000 1 1.000000 1 -3.000000
417 2 436.751000 -2462.140000 376.942000 1 1.000000 1 -3.000000
418 2 430.036000 -2454.960000 377.256000 1 1.000000 1 -3.000000
419 2 423.443000 -2447.790000 375.554000 1 1.000000 1 -3.000000
420 2 419.843000 -2439.200000 372.340000 1 1.000000 1 -3.000000
421 2 416.296000 -2430.380000 369.540000 1 1.000000 1 -3.000000
422 2 412.447000 -2423.060000 364.093000 1 1.000000 1 -3.000000
423 2 405.035000 -2416.450000 365.032000 1 1.000000 1 -3.000000
424 2 398.179000 -2409.340000 365.560000 1 1.000000 1 -3.000000
425 2 390.956000 -2402.970000 368.147000 1 1.000000 1 -3.000000
426 2 385.763000 -2395.000000 370.729000 1 1.000000 17 -3.000000
427 1 410.047000 -2354.560000 371.009000 1 1.000000 17 0.000000
428 3 434.951000 -2378.710000 374.798000 1 1.000000 17 0.000000
429 2 449.988000 -2329.330000 370.258000 1 1.000000 17 -3.000000
430 2 454.078000 -2333.820000 378.023000 1 1.000000 1 -3.000000
431 2 460.084000 -2335.750000 385.662000 1 1.000000 1 -3.000000
432 2 462.364000 -2335.570000 395.259000 1 1.000000 1 -3.000000
433 2 462.048000 -2333.360000 404.843000 1 1.000000 1 -3.000000
434 2 460.304000 -2329.630000 413.878000 1 1.000000 1 -3.000000
435 2 458.199000 -2324.370000 422.054000 1 1.000000 1 -3.000000
436 2 457.096000 -2318.990000 430.259000 1 1.000000 1 -3.000000
437 2 456.766000 -2315.260000 439.474000 1 1.000000 1 -3.000000
438 2 460.845000 -2310.420000 447.117000 1 1.000000 1 -3.000000
439 2 463.893000 -2305.810000 455.317000 1 1.000000 1 -3.000000
440 2 463.638000 -2299.860000 463.242000 1 1.000000 1 -3.000000
441 2 463.408000 -2293.490000 470.848000 1 1.000000 1 -3.000000
442 2 463.352000 -2287.770000 479.040000 1 1.000000 1 -3.000000
443 2 463.000000 -2278.820000 483.072000 1 1.000000 1 -3.000000
444 2 462.789000 -2269.120000 485.585000 1 1.000000 1 -3.000000
445 2 464.540000 -2259.650000 483.352000 1 1.000000 1 -3.000000
446 2 468.323000 -2251.040000 480.387000 1 1.000000 1 -3.000000
447 2 470.769000 -2241.600000 479.232000 1 1.000000 1 -3.000000
448 2 476.223000 -2233.360000 479.064000 1 1.000000 1 -3.000000
449 2 482.890000 -2226.940000 482.394000 1 1.000000 1 -3.000000
450 2 489.058000 -2221.780000 488.199000 1 1.000000 1 -3.000000
451 2 495.954000 -2215.530000 491.587000 1 1.000000 1 -3.000000
452 2 503.907000 -2209.950000 493.431000 1 1.000000 1 -3.000000
453 2 510.297000 -2202.460000 493.927000 1 1.000000 18 -3.000000
454 1 482.960000 -2165.680000 505.568000 1 1.000000 18 0.000000
455 3 459.859000 -2190.820000 497.428000 1 1.000000 18 0.000000
456 2 441.344000 -2143.540000 508.334000 1 1.000000 18 -3.000000
457 2 435.110000 -2150.750000 511.574000 1 1.000000 1 -3.000000
458 2 429.583000 -2157.080000 516.561000 1 1.000000 1 -3.000000
459 2 425.552000 -2165.840000 518.849000 1 1.000000 1 -3.000000
460 2 418.726000 -2172.150000 522.202000 1 1.000000 1 -3.000000
461 2 410.432000 -2175.880000 525.869000 1 1.000000 1 -3.000000
462 2 402.135000 -2181.110000 526.159000 1 1.000000 1 -3.000000
463 2 393.676000 -2185.640000 528.073000 1 1.000000 1 -3.000000
464 2 384.913000 -2190.300000 528.962000 1 1.000000 1 -3.000000
465 2 377.093000 -2194.460000 533.050000 1 1.000000 1 -3.000000