LAMMPS data file

4067 atoms
4067 ellipsoids
4516 bonds
8882 angles
0 dihedrals

3 atom types
5 bond types
12 angle types
0 dihedral types

-4631.092947 4670.465898 xlo xhi
-4631.092947 4670.465898 ylo yhi
-4631.092947 4670.465898 zlo zhi

Masses

1 196016.000000
2 1950.000000
3 19500.000000

Atoms

1 2 339.918000 -3189.110000 614.677000 1 1.000000 1 -3.000000
2 2 349.295000 -3191.870000 615.828000 1 1.000000 1 -3.000000
3 2 357.700000 -3192.630000 621.075000 1 1.000000 1 -3.000000
4 2 365.735000 -3191.900000 626.814000 1 1.000000 1 -3.000000
5 2 373.782000 -3190.070000 632.009000 1 1.000000 1 -3.000000
6 2 382.304000 -3188.810000 636.964000 1 1.000000 1 -3.000000
7 2 390.927000 -3186.200000 640.948000 1 1.000000 1 -3.000000
8 2 400.032000 -3185.270000 644.613000 1 1.000000 1 -3.000000
9 2 409.409000 -3184.740000 647.186000 1 1.000000 1 -3.000000
10 2 418.550000 -3184.490000 650.956000 1 1.000000 1 -3.000000
11 2 428.294000 -3183.270000 652.033000 1 1.000000 1 -3.000000
12 2 435.424000 -3177.640000 655.882000 1 1.000000 1 -3.000000
13 2 443.252000 -3171.890000 657.101000 1 1.000000 1 -3.000000
14 2 450.682000 -3165.480000 655.399000 1 1.000000 1 -3.000000
15 2 456.113000 -3158.350000 651.425000 1 1.000000 1 -3.000000
16 2 460.767000 -3153.440000 644.242000 1 1.000000 1 -3.000000
17 2 465.978000 -3150.920000 636.135000 1 1.000000 1 -3.000000
18 2 469.181000 -3144.090000 629.805000 1 1.000000 1 -3.000000
19 2 469.117000 -3137.000000 622.908000 1 1.000000 1 -3.000000
20 2 471.984000 -3129.320000 617.228000 1 1.000000 1 -3.000000
21 2 473.628000 -3122.560000 610.105000 1 1.000000 2 -3.000000
22 1 453.009000 -3087.440000 633.835000 1 1.000000 2 0.000000
23 3 456.746000 -3112.330000 658.182000 1 1.000000 2 0.000000
24 2 436.363000 -3066.890000 672.887000 1 1.000000 2 -3.000000
25 2 439.742000 -3073.150000 679.723000 1 1.000000 1 -3.000000
26 2 443.604000 -3080.410000 685.016000 1 1.000000 1 -3.000000
27 2 445.769000 -3089.030000 689.341000 1 1.000000 1 -3.000000
28 2 449.132000 -3097.690000 692.332000 1 1.000000 1 -3.000000
29 2 452.356000 -3106.910000 694.421000 1 1.000000 1 -3.000000
30 2 454.389000 -3116.320000 696.798000 1 1.000000 1 -3.000000
31 2 455.104000 -3126.220000 698.074000 1 1.000000 1 -3.000000
32 2 458.767000 -3134.450000 702.192000 1 1.000000 1 -3.000000
33 2 462.913000 -3139.760000 709.270000 1 1.000000 1 -3.000000
34 2 467.642000 -3142.950000 717.373000 1 1.000000 1 -3.000000
35 2 474.398000 -3143.970000 724.593000 1 1.000000 1 -3.000000
36 2 479.926000 -3145.060000 732.759000 1 1.000000 1 -3.000000
37 2 483.285000 -3149.460000 741.101000 1 1.000000 1 -3.000000
38 2 487.431000 -3154.970000 748.240000 1 1.000000 1 -3.000000
39 2 492.180000 -3161.450000 753.815000 1 1.000000 1 -3.000000
40 2 496.038000 -3167.050000 761.081000 1 1.000000 1 -3.000000
41 2 500.515000 -3174.830000 765.135000 1 1.000000 1 -3.000000
42 2 500.369000 -3184.280000 767.978000 1 1.000000 1 -3.000000
43 2 500.116000 -3194.050000 769.356000 1 1.000000 1 -3.000000
44 2 500.389000 -3203.990000 769.706000 1 1.000000 1 -3.000000
45 2 498.290000 -3213.830000 769.955000 1 1.000000 1 -3.000000
46 2 493.315000 -3222.020000 767.817000 1 1.000000 1 -3.000000
47 2 486.689000 -3228.990000 765.674000 1 1.000000 1 -3.000000
48 2 484.112000 -3238.320000 763.587000 1 1.000000 3 -3.000000
49 1 489.390000 -3235.710000 716.759000 1 1.000000 3 0.000000
50 3 498.177000 -3203.690000 727.720000 1 1.000000 3 0.000000
51 2 501.732000 -3213.810000 676.826000 1 1.000000 3 -3.000000
52 2 506.763000 -3206.310000 681.112000 1 1.000000 1 -3.000000
53 2 511.662000 -3199.330000 686.124000 1 1.000000 1 -3.000000
54 2 514.467000 -3190.030000 688.001000 1 1.000000 1 -3.000000
55 2 512.300000 -3180.870000 691.158000 1 1.000000 1 -3.000000
56 2 515.064000 -3172.340000 695.650000 1 1.000000 1 -3.000000
57 2 518.440000 -3163.160000 697.366000 1 1.000000 1 -3.000000
58 2 522.086000 -3154.050000 699.185000 1 1.000000 1 -3.000000
59 2 524.164000 -3145.790000 704.219000 1 1.000000 1 -3.000000
60 2 523.313000 -3139.370000 711.829000 1 1.000000 1 -3.000000
61 2 522.517000 -3131.980000 718.500000 1 1.000000 1 -3.000000
62 2 519.649000 -3126.220000 725.900000 1 1.000000 1 -3.000000
63 2 512.780000 -3122.420000 732.085000 1 1.000000 1 -3.000000
64 2 506.488000 -3116.830000 737.400000 1 1.000000 1 -3.000000
65 2 501.532000 -3111.760000 744.277000 1 1.000000 1 -3.000000
66 2 495.476000 -3105.810000 749.318000 1 1.000000 1 -3.000000
67 2 487.860000 -3100.900000 753.263000 1 1.000000 1 -3.000000
68 2 478.540000 -3098.200000 755.137000 1 1.000000 1 -3.000000
69 2 468.848000 -3097.180000 757.143000 1 1.000000 1 -3.000000
70 2 460.115000 -3092.730000 758.335000 1 1.000000 1 -3.000000
71 2 450.496000 -3090.340000 759.194000 1 1.000000 1 -3.000000
72 2 441.086000 -3088.870000 762.161000 1 1.000000 1 -3.000000
73 2 431.508000 -3087.170000 763.316000 1 1.000000 1 -3.000000
74 2 422.400000 -3085.340000 766.649000 1 1.000000 1 -3.000000
75 2 413.248000 -3082.070000 768.560000 1 1.000000 4 -3.000000
76 1 424.550000 -3039.360000 752.054000 1 1.000000 4 0.000000
77 3 449.298000 -3060.050000 738.367000 1 1.000000 4 0.000000
78 2 450.491000 -3009.380000 726.499000 1 1.000000 4 -3.000000
79 2 458.149000 -3015.550000 725.390000 1 1.000000 1 -3.000000
80 2 464.774000 -3022.670000 723.832000 1 1.000000 1 -3.000000
81 2 472.153000 -3028.600000 720.902000 1 1.000000 1 -3.000000
82 2 478.886000 -3035.690000 720.778000 1 1.000000 1 -3.000000
83 2 484.505000 -3043.490000 722.906000 1 1.000000 1 -3.000000
84 2 489.988000 -3051.560000 724.280000 1 1.000000 1 -3.000000
85 2 495.377000 -3058.630000 728.629000 1 1.000000 1 -3.000000
86 2 500.637000 -3064.710000 734.386000 1 1.000000 1 -3.000000
87 2 504.157000 -3071.090000 741.116000 1 1.000000 1 -3.000000
88 2 504.079000 -3074.550000 750.449000 1 1.000000 1 -3.000000
89 2 502.089000 -3076.840000 759.754000 1 1.000000 1 -3.000000
90 2 501.508000 -3077.340000 769.600000 1 1.000000 1 -3.000000
91 2 501.195000 -3077.370000 779.487000 1 1.000000 1 -3.000000
92 2 502.315000 -3076.880000 789.293000 1 1.000000 1 -3.000000
93 2 504.325000 -3075.410000 798.868000 1 1.000000 1 -3.000000
94 2 507.969000 -3075.240000 808.012000 1 1.000000 1 -3.000000
95 2 512.731000 -3075.430000 816.609000 1 1.000000 1 -3.000000
96 2 516.197000 -3074.270000 825.796000 1 1.000000 1 -3.000000
97 2 520.189000 -3075.840000 834.815000 1 1.000000 1 -3.000000
98 2 519.804000 -3074.660000 844.757000 1 1.000000 1 -3.000000
99 2 518.685000 -3076.150000 854.539000 1 1.000000 1 -3.000000
100 2 513.530000 -3076.480000 862.940000 1 1.000000 1 -3.000000
101 2 509.681000 -3079.600000 871.475000 1 1.000000 1 -3.000000
102 2 507.881000 -3084.470000 879.928000 1 1.000000 5 -3.000000
103 1 553.654000 -3088.190000 890.881000 1 1.000000 5 0.000000
104 3 553.527000 -3064.530000 865.201000 1 1.000000 5 0.000000
105 2 598.658000 -3074.190000 888.683000 1 1.000000 5 -3.000000
106 2 596.678000 -3066.720000 882.440000 1 1.000000 1 -3.000000
107 2 595.794000 -3061.030000 874.433000 1 1.000000 1 -3.000000
108 2 596.111000 -3057.900000 865.175000 1 1.000000 1 -3.000000
109 2 595.198000 -3051.790000 857.401000 1 1.000000 1 -3.000000
110 2 591.837000 -3046.100000 849.979000 1 1.000000 1 -3.000000
111 2 586.763000 -3038.590000 845.898000 1 1.000000 1 -3.000000
112 2 580.605000 -3031.420000 843.072000 1 1.000000 1 -3.000000
113 2 575.086000 -3025.040000 837.889000 1 1.000000 1 -3.000000
114 2 571.160000 -3016.610000 834.635000 1 1.000000 1 -3.000000
115 2 568.903000 -3008.260000 829.809000 1 1.000000 1 -3.000000
116 2 566.368000 -3001.020000 823.679000 1 1.000000 1 -3.000000
117 2 561.423000 -2994.400000 818.016000 1 1.000000 1 -3.000000
118 2 559.879000 -2986.750000 811.709000 1 1.000000 1 -3.000000
119 2 558.501000 -2980.380000 804.282000 1 1.000000 1 -3.000000
120 2 556.585000 -2973.440000 797.521000 1 1.000000 1 -3.000000
121 2 554.397000 -2966.400000 790.937000 1 1.000000 1 -3.000000
122 2 554.747000 -2958.360000 785.157000 1 1.000000 1 -3.000000
123 2 554.659000 -2949.980000 779.837000 1 1.000000 1 -3.000000
124 2 553.854000 -2940.870000 775.854000 1 1.000000 1 -3.000000
125 2 553.083000 -2931.440000 773.090000 1 1.000000 1 -3.000000
126 2 553.038000 -2921.790000 770.763000 1 1.000000 1 -3.000000
127 2 549.986000 -2912.960000 767.426000 1 1.000000 1 -3.000000
128 2 545.264000 -2906.420000 761.787000 1 1.000000 1 -3.000000
129 2 539.674000 -2898.450000 760.409000 1 1.000000 6 -3.000000
130 1 566.930000 -2875.060000 791.109000 1 1.000000 6 0.000000
131 3 588.710000 -2881.830000 764.671000 1 1.000000 6 0.000000
132 2 608.257000 -2858.310000 806.602000 1 1.000000 6 -3.000000
133 2 612.300000 -2857.900000 797.474000 1 1.000000 1 -3.000000
134 2 615.466000 -2856.050000 788.283000 1 1.000000 1 -3.000000
135 2 617.571000 -2853.560000 778.973000 1 1.000000 1 -3.000000
136 2 619.629000 -2852.590000 769.257000 1 1.000000 1 -3.000000
137 2 623.394000 -2853.600000 760.144000 1 1.000000 1 -3.000000
138 2 627.084000 -2852.770000 751.019000 1 1.000000 1 -3.000000
139 2 629.821000 -2854.730000 741.707000 1 1.000000 1 -3.000000
140 2 633.529000 -2859.270000 733.611000 1 1.000000 1 -3.000000
141 2 639.753000 -2863.890000 727.618000 1 1.000000 1 -3.000000
142 2 646.459000 -2870.210000 724.374000 1 1.000000 1 -3.000000
143 2 653.693000 -2876.740000 722.214000 1 1.000000 1 -3.000000
144 2 657.186000 -2885.890000 722.636000 1 1.000000 1 -3.000000
145 2 660.870000 -2895.010000 723.646000 1 1.000000 1 -3.000000
146 2 660.230000 -2904.560000 725.605000 1 1.000000 1 -3.000000
147 2 659.528000 -2913.890000 728.829000 1 1.000000 1 -3.000000
148 2 660.122000 -2920.220000 736.294000 1 1.000000 1 -3.000000
149 2 661.811000 -2928.570000 741.459000 1 1.000000 1 -3.000000
150 2 663.418000 -2937.090000 746.028000 1 1.000000 1 -3.000000
151 2 662.248000 -2945.120000 751.781000 1 1.000000 1 -3.000000
152 2 661.834000 -2954.090000 756.169000 1 1.000000 1 -3.000000
153 2 663.491000 -2963.420000 758.818000 1 1.000000 1 -3.000000
154 2 665.705000 -2972.940000 760.028000 1 1.000000 1 -3.000000
155 2 667.678000 -2982.480000 761.537000 1 1.000000 1 -3.000000
156 2 670.069000 -2992.060000 762.715000 1 1.000000 7 -3.000000
157 1 714.868000 -2989.450000 748.319000 1 1.000000 7 0.000000
158 3 705.887000 -2955.730000 752.573000 1 1.000000 7 0.000000
159 2 753.836000 -2966.180000 735.441000 1 1.000000 7 -3.000000
160 2 750.774000 -2956.900000 733.512000 1 1.000000 1 -3.000000
161 2 748.873000 -2947.590000 730.758000 1 1.000000 1 -3.000000
162 2 746.279000 -2938.360000 728.233000 1 1.000000 1 -3.000000
163 2 743.139000 -2929.040000 727.377000 1 1.000000 1 -3.000000
164 2 739.373000 -2920.050000 725.644000 1 1.000000 1 -3.000000
165 2 737.275000 -2911.340000 721.314000 1 1.000000 1 -3.000000
166 2 736.181000 -2904.660000 714.303000 1 1.000000 1 -3.000000
167 2 729.755000 -2898.880000 709.635000 1 1.000000 1 -3.000000
168 2 724.978000 -2890.940000 706.221000 1 1.000000 1 -3.000000
169 2 723.487000 -2882.720000 700.764000 1 1.000000 1 -3.000000
170 2 721.336000 -2875.980000 693.793000 1 1.000000 1 -3.000000
171 2 717.041000 -2870.570000 686.724000 1 1.000000 1 -3.000000
172 2 712.826000 -2865.290000 679.549000 1 1.000000 1 -3.000000
173 2 708.842000 -2860.170000 672.018000 1 1.000000 1 -3.000000
174 2 705.567000 -2854.920000 664.317000 1 1.000000 1 -3.000000
175 2 702.940000 -2848.800000 656.825000 1 1.000000 1 -3.000000
176 2 699.563000 -2843.930000 648.855000 1 1.000000 1 -3.000000
177 2 702.224000 -2838.180000 641.275000 1 1.000000 1 -3.000000
178 2 706.391000 -2835.490000 632.795000 1 1.000000 1 -3.000000
179 2 712.407000 -2831.700000 625.722000 1 1.000000 1 -3.000000
180 2 719.747000 -2827.000000 620.902000 1 1.000000 1 -3.000000
181 2 723.445000 -2819.630000 615.573000 1 1.000000 1 -3.000000
182 2 727.658000 -2813.380000 608.922000 1 1.000000 1 -3.000000
183 2 732.214000 -2805.770000 604.356000 1 1.000000 8 -3.000000
184 1 773.062000 -2807.130000 627.893000 1 1.000000 8 0.000000
185 3 759.290000 -2838.760000 633.888000 1 1.000000 8 0.000000
186 2 805.146000 -2827.740000 655.644000 1 1.000000 8 -3.000000
187 2 799.793000 -2834.900000 651.119000 1 1.000000 1 -3.000000
188 2 791.735000 -2839.180000 647.029000 1 1.000000 1 -3.000000
189 2 783.763000 -2843.240000 642.880000 1 1.000000 1 -3.000000
190 2 776.968000 -2847.570000 637.204000 1 1.000000 1 -3.000000
191 2 771.144000 -2853.110000 631.270000 1 1.000000 1 -3.000000
192 2 763.740000 -2858.500000 627.307000 1 1.000000 1 -3.000000
193 2 755.684000 -2863.230000 624.028000 1 1.000000 1 -3.000000
194 2 747.532000 -2865.530000 618.866000 1 1.000000 1 -3.000000
195 2 739.020000 -2864.690000 613.830000 1 1.000000 1 -3.000000
196 2 731.596000 -2862.070000 607.843000 1 1.000000 1 -3.000000
197 2 725.572000 -2857.040000 601.770000 1 1.000000 1 -3.000000
198 2 719.051000 -2853.880000 595.098000 1 1.000000 1 -3.000000
199 2 711.723000 -2852.390000 588.665000 1 1.000000 1 -3.000000
200 2 704.216000 -2849.580000 582.923000 1 1.000000 1 -3.000000
201 2 696.702000 -2845.530000 577.565000 1 1.000000 1 -3.000000
202 2 689.909000 -2841.650000 571.514000 1 1.000000 1 -3.000000
203 2 684.638000 -2839.020000 563.519000 1 1.000000 1 -3.000000
204 2 677.182000 -2835.530000 557.970000 1 1.000000 1 -3.000000
205 2 668.926000 -2831.320000 554.416000 1 1.000000 1 -3.000000
206 2 662.423000 -2827.390000 547.933000 1 1.000000 1 -3.000000
207 2 656.183000 -2821.140000 543.470000 1 1.000000 1 -3.000000
208 2 649.661000 -2813.970000 541.746000 1 1.000000 1 -3.000000
209 2 645.117000 -2805.100000 540.448000 1 1.000000 1 -3.000000
210 2 639.922000 -2797.800000 536.233000 1 1.000000 9 -3.000000
211 1 604.867000 -2812.840000 508.404000 1 1.000000 9 0.000000
212 3 630.590000 -2835.540000 501.873000 1 1.000000 9 0.000000
213 2 584.801000 -2843.860000 478.981000 1 1.000000 9 -3.000000
214 2 592.963000 -2848.530000 476.182000 1 1.000000 1 -3.000000
215 2 600.742000 -2853.350000 472.239000 1 1.000000 1 -3.000000
216 2 607.358000 -2859.020000 467.765000 1 1.000000 1 -3.000000
217 2 610.308000 -2866.000000 461.440000 1 1.000000 1 -3.000000
218 2 616.221000 -2870.690000 455.192000 1 1.000000 1 -3.000000
219 2 621.708000 -2873.070000 447.340000 1 1.000000 1 -3.000000
220 2 627.882000 -2876.000000 440.183000 1 1.000000 1 -3.000000
221 2 632.720000 -2873.810000 431.680000 1 1.000000 1 -3.000000
222 2 632.804000 -2870.890000 422.305000 1 1.000000 1 -3.000000
223 2 632.856000 -2869.580000 412.559000 1 1.000000 1 -3.000000
224 2 632.072000 -2869.180000 402.724000 1 1.000000 1 -3.000000
225 2 629.245000 -2867.250000 393.457000 1 1.000000 1 -3.000000
226 2 624.118000 -2864.750000 385.263000 1 1.000000 1 -3.000000
227 2 620.182000 -2863.520000 376.228000 1 1.000000 1 -3.000000
228 2 615.884000 -2861.150000 367.521000 1 1.000000 1 -3.000000
229 2 610.388000 -2858.280000 359.851000 1 1.000000 1 -3.000000
230 2 609.256000 -2852.590000 351.887000 1 1.000000 1 -3.000000
231 2 609.319000 -2848.900000 342.722000 1 1.000000 1 -3.000000
232 2 612.937000 -2845.700000 334.117000 1 1.000000 1 -3.000000
233 2 615.613000 -2844.970000 324.587000 1 1.000000 1 -3.000000
234 2 615.977000 -2842.160000 315.156000 1 1.000000 1 -3.000000
235 2 617.606000 -2837.230000 306.900000 1 1.000000 1 -3.000000
236 2 619.237000 -2829.810000 300.492000 1 1.000000 1 -3.000000
237 2 619.342000 -2822.290000 293.984000 1 1.000000 10 -3.000000
238 1 573.310000 -2815.350000 286.599000 1 1.000000 10 0.000000
239 3 574.129000 -2831.410000 317.726000 1 1.000000 10 0.000000
240 2 527.886000 -2816.730000 299.148000 1 1.000000 10 -3.000000
241 2 526.598000 -2820.800000 308.089000 1 1.000000 1 -3.000000
242 2 527.400000 -2822.740000 317.844000 1 1.000000 1 -3.000000
243 2 529.361000 -2823.220000 327.428000 1 1.000000 1 -3.000000
244 2 532.677000 -2824.640000 336.625000 1 1.000000 1 -3.000000
245 2 534.622000 -2826.570000 346.157000 1 1.000000 1 -3.000000
246 2 536.755000 -2825.180000 355.782000 1 1.000000 1 -3.000000
247 2 538.141000 -2823.610000 365.413000 1 1.000000 1 -3.000000
248 2 538.368000 -2819.580000 374.493000 1 1.000000 1 -3.000000
249 2 540.767000 -2813.680000 382.188000 1 1.000000 1 -3.000000
250 2 542.034000 -2807.620000 389.922000 1 1.000000 1 -3.000000
251 2 540.820000 -2801.780000 397.637000 1 1.000000 1 -3.000000
252 2 540.944000 -2793.950000 403.746000 1 1.000000 1 -3.000000
253 2 537.103000 -2785.610000 407.698000 1 1.000000 1 -3.000000
254 2 529.689000 -2780.010000 411.194000 1 1.000000 1 -3.000000
255 2 525.141000 -2771.230000 412.235000 1 1.000000 1 -3.000000
256 2 518.554000 -2763.850000 412.200000 1 1.000000 1 -3.000000
257 2 510.467000 -2758.250000 411.332000 1 1.000000 1 -3.000000
258 2 504.716000 -2751.300000 407.260000 1 1.000000 1 -3.000000
259 2 499.510000 -2743.280000 405.051000 1 1.000000 1 -3.000000
260 2 491.960000 -2737.270000 402.748000 1 1.000000 1 -3.000000
261 2 483.897000 -2731.380000 403.617000 1 1.000000 1 -3.000000
262 2 474.950000 -2727.440000 404.687000 1 1.000000 1 -3.000000
263 2 466.095000 -2726.730000 408.794000 1 1.000000 1 -3.000000
264 2 456.452000 -2725.580000 410.844000 1 1.000000 11 -3.000000
265 1 454.744000 -2757.780000 376.457000 1 1.000000 11 0.000000
266 3 480.767000 -2736.760000 366.305000 1 1.000000 11 0.000000
267 2 470.114000 -2778.120000 336.653000 1 1.000000 11 -3.000000
268 2 474.951000 -2770.260000 333.098000 1 1.000000 1 -3.000000
269 2 483.520000 -2765.470000 331.859000 1 1.000000 1 -3.000000
270 2 492.159000 -2762.050000 328.359000 1 1.000000 1 -3.000000
271 2 499.840000 -2759.560000 322.520000 1 1.000000 1 -3.000000
272 2 505.354000 -2755.840000 315.414000 1 1.000000 1 -3.000000
273 2 511.592000 -2753.040000 308.301000 1 1.000000 1 -3.000000
274 2 518.075000 -2747.670000 302.886000 1 1.000000 1 -3.000000
275 2 524.276000 -2743.930000 296.054000 1 1.000000 1 -3.000000
276 2 531.038000 -2738.900000 290.888000 1 1.000000 1 -3.000000
277 2 538.559000 -2735.300000 285.709000 1 1.000000 1 -3.000000
278 2 546.552000 -2732.180000 280.761000 1 1.000000 1 -3.000000
279 2 551.634000 -2729.180000 272.850000 1 1.000000 1 -3.000000
280 2 556.833000 -2722.450000 267.871000 1 1.000000 1 -3.000000
281 2 556.001000 -2715.290000 261.054000 1 1.000000 1 -3.000000
282 2 555.909000 -2707.050000 255.678000 1 1.000000 1 -3.000000
283 2 559.086000 -2698.400000 252.178000 1 1.000000 1 -3.000000
284 2 562.405000 -2689.640000 248.894000 1 1.000000 1 -3.000000
285 2 565.147000 -2681.380000 244.470000 1 1.000000 1 -3.000000
286 2 564.716000 -2673.870000 237.933000 1 1.000000 1 -3.000000
287 2 562.644000 -2665.110000 233.874000 1 1.000000 1 -3.000000
288 2 561.216000 -2655.540000 231.814000 1 1.000000 1 -3.000000
289 2 561.409000 -2645.610000 232.384000 1 1.000000 1 -3.000000
290 2 563.605000 -2635.910000 232.728000 1 1.000000 1 -3.000000
291 2 563.053000 -2625.980000 231.760000 1 1.000000 12 -3.000000
292 1 603.117000 -2611.990000 252.628000 1 1.000000 12 0.000000
293 3 589.450000 -2634.500000 275.721000 1 1.000000 12 0.000000
294 2 632.331000 -2608.630000 289.570000 1 1.000000 12 -3.000000
295 2 624.985000 -2610.440000 296.070000 1 1.000000 1 -3.000000
296 2 616.125000 -2609.890000 300.545000 1 1.000000 1 -3.000000
297 2 607.171000 -2607.410000 303.883000 1 1.000000 1 -3.000000
298 2 598.959000 -2602.210000 305.253000 1 1.000000 1 -3.000000
299 2 589.521000 -2599.820000 303.654000 1 1.000000 1 -3.000000
300 2 582.179000 -2594.310000 299.971000 1 1.000000 1 -3.000000
301 2 573.575000 -2590.680000 296.716000 1 1.000000 1 -3.000000
302 2 564.536000 -2588.370000 292.968000 1 1.000000 1 -3.000000
303 2 556.076000 -2585.450000 288.855000 1 1.000000 1 -3.000000
304 2 546.638000 -2582.380000 290.328000 1 1.000000 1 -3.000000
305 2 537.890000 -2578.040000 289.907000 1 1.000000 1 -3.000000
306 2 528.256000 -2575.920000 289.087000 1 1.000000 1 -3.000000
307 2 519.026000 -2572.620000 290.579000 1 1.000000 1 -3.000000
308 2 509.744000 -2568.920000 290.618000 1 1.000000 1 -3.000000
309 2 500.475000 -2565.520000 288.983000 1 1.000000 1 -3.000000
310 2 491.683000 -2561.530000 287.411000 1 1.000000 1 -3.000000
311 2 483.458000 -2556.010000 286.815000 1 1.000000 1 -3.000000
312 2 475.837000 -2549.680000 286.736000 1 1.000000 1 -3.000000
313 2 467.161000 -2545.480000 284.541000 1 1.000000 1 -3.000000
314 2 457.777000 -2542.600000 283.077000 1 1.000000 1 -3.000000
315 2 448.635000 -2540.780000 279.512000 1 1.000000 1 -3.000000
316 2 440.529000 -2535.360000 278.224000 1 1.000000 1 -3.000000
317 2 433.691000 -2530.520000 272.868000 1 1.000000 1 -3.000000
318 2 427.666000 -2526.910000 265.871000 1 1.000000 13 -3.000000
319 1 457.728000 -2539.600000 231.740000 1 1.000000 13 0.000000
320 3 478.947000 -2528.920000 257.507000 1 1.000000 13 0.000000
321 2 500.835000 -2543.110000 212.800000 1 1.000000 13 -3.000000
322 2 504.834000 -2545.710000 221.548000 1 1.000000 1 -3.000000
323 2 510.592000 -2543.810000 229.218000 1 1.000000 1 -3.000000
324 2 517.529000 -2544.650000 236.192000 1 1.000000 1 -3.000000
325 2 522.284000 -2545.100000 244.789000 1 1.000000 1 -3.000000
326 2 523.845000 -2542.850000 254.332000 1 1.000000 1 -3.000000
327 2 524.046000 -2537.170000 262.542000 1 1.000000 1 -3.000000
328 2 522.926000 -2528.970000 267.823000 1 1.000000 1 -3.000000
329 2 521.161000 -2521.120000 273.632000 1 1.000000 1 -3.000000
330 2 518.105000 -2512.710000 278.025000 1 1.000000 1 -3.000000
331 2 513.249000 -2505.220000 282.217000 1 1.000000 1 -3.000000
332 2 508.626000 -2497.200000 285.624000 1 1.000000 1 -3.000000
333 2 505.759000 -2488.550000 289.202000 1 1.000000 1 -3.000000
334 2 500.868000 -2480.350000 292.159000 1 1.000000 1 -3.000000
335 2 496.159000 -2472.810000 296.673000 1 1.000000 1 -3.000000
336 2 491.049000 -2465.170000 300.483000 1 1.000000 1 -3.000000
337 2 486.440000 -2456.680000 302.446000 1 1.000000 1 -3.000000
338 2 480.615000 -2448.820000 303.343000 1 1.000000 1 -3.000000
339 2 478.404000 -2439.220000 304.531000 1 1.000000 1 -3.000000
340 2 475.522000 -2430.440000 307.819000 1 1.000000 1 -3.000000
341 2 474.594000 -2420.640000 309.229000 1 1.000000 1 -3.000000
342 2 472.558000 -2411.030000 308.979000 1 1.000000 1 -3.000000
343 2 468.544000 -2402.010000 310.236000 1 1.000000 1 -3.000000
344 2 466.490000 -2392.580000 312.424000 1 1.000000 1 -3.000000
345 2 466.638000 -2382.680000 312.606000 1 1.000000 14 -3.000000
346 1 430.661000 -2365.070000 337.664000 1 1.000000 14 0.000000
347 3 421.021000 -2398.150000 331.626000 1 1.000000 14 0.000000
348 2 390.340000 -2368.830000 361.758000 1 1.000000 14 -3.000000
349 2 391.573000 -2378.660000 362.750000 1 1.000000 1 -3.000000
350 2 391.689000 -2387.970000 365.949000 1 1.000000 1 -3.000000
351 2 393.483000 -2397.790000 366.214000 1 1.000000 1 -3.000000
352 2 395.731000 -2407.350000 367.118000 1 1.000000 1 -3.000000
353 2 394.299000 -2417.100000 366.390000 1 1.000000 1 -3.000000
354 2 395.026000 -2426.860000 365.399000 1 1.000000 1 -3.000000
355 2 395.779000 -2436.500000 367.721000 1 1.000000 1 -3.000000
356 2 392.555000 -2445.620000 369.771000 1 1.000000 1 -3.000000
357 2 390.942000 -2455.180000 371.561000 1 1.000000 1 -3.000000
358 2 388.225000 -2464.500000 373.616000 1 1.000000 1 -3.000000
359 2 388.888000 -2473.330000 378.181000 1 1.000000 1 -3.000000
360 2 388.183000 -2480.270000 385.248000 1 1.000000 1 -3.000000
361 2 386.610000 -2485.370000 393.592000 1 1.000000 1 -3.000000
362 2 388.419000 -2490.990000 401.480000 1 1.000000 1 -3.000000
363 2 387.309000 -2496.880000 409.509000 1 1.000000 1 -3.000000
364 2 384.111000 -2501.230000 417.785000 1 1.000000 1 -3.000000
365 2 381.713000 -2509.110000 423.312000 1 1.000000 1 -3.000000
366 2 379.918000 -2516.300000 429.814000 1 1.000000 1 -3.000000
367 2 376.308000 -2523.740000 435.336000 1 1.000000 1 -3.000000
368 2 376.525000 -2530.590000 442.388000 1 1.000000 1 -3.000000
369 2 377.341000 -2539.670000 446.559000 1 1.000000 1 -3.000000
370 2 379.774000 -2548.570000 450.188000 1 1.000000 1 -3.000000
371 2 383.021000 -2556.470000 455.101000 1 1.000000 1 -3.000000
372 2 386.239000 -2565.090000 458.569000 1 1.000000 15 -3.000000
373 1 431.147000 -2554.420000 468.356000 1 1.000000 15 0.000000
374 3 420.148000 -2527.110000 449.276000 1 1.000000 15 0.000000
375 2 468.765000 -2525.940000 467.875000 1 1.000000 15 -3.000000
376 2 464.571000 -2520.650000 460.462000 1 1.000000 1 -3.000000
377 2 460.052000 -2514.260000 454.447000 1 1.000000 1 -3.000000
378 2 456.754000 -2505.350000 451.492000 1 1.000000 1 -3.000000
379 2 454.924000 -2496.070000 448.552000 1 1.000000 1 -3.000000
380 2 453.114000 -2488.440000 442.528000 1 1.000000 1 -3.000000
381 2 453.673000 -2479.600000 438.210000 1 1.000000 1 -3.000000
382 2 456.760000 -2470.860000 434.634000 1 1.000000 1 -3.000000
383 2 464.109000 -2464.280000 433.470000 1 1.000000 1 -3.000000
384 2 470.099000 -2458.030000 428.696000 1 1.000000 1 -3.000000
385 2 475.650000 -2451.360000 423.990000 1 1.000000 1 -3.000000
386 2 481.559000 -2444.610000 419.502000 1 1.000000 1 -3.000000
387 2 486.407000 -2437.240000 415.144000 1 1.000000 1 -3.000000
388 2 493.949000 -2431.050000 414.800000 1 1.000000 1 -3.000000
389 2 501.758000 -2425.150000 413.819000 1 1.000000 1 -3.000000
390 2 510.097000 -2420.070000 413.218000 1 1.000000 1 -3.000000
391 2 517.901000 -2414.300000 410.864000 1 1.000000 1 -3.000000
392 2 526.354000 -2410.370000 407.374000 1 1.000000 1 -3.000000
393 2 534.011000 -2404.060000 406.571000 1 1.000000 1 -3.000000
394 2 541.648000 -2398.410000 409.309000 1 1.000000 1 -3.000000
395 2 547.337000 -2391.620000 413.666000 1 1.000000 1 -3.000000
396 2 552.797000 -2384.270000 417.248000 1 1.000000 1 -3.000000
397 2 558.144000 -2376.890000 420.914000 1 1.000000 1 -3.000000
398 2 561.456000 -2367.600000 421.749000 1 1.000000 1 -3.000000
399 2 566.171000 -2358.830000 421.328000 1 1.000000 16 -3.000000
400 1 612.214000 -2352.020000 413.684000 1 1.000000 16 0.000000
401 3 611.305000 -2382.780000 430.567000 1 1.000000 16 0.000000
402 2 657.775000 -2363.210000 418.711000 1 1.000000 16 -3.000000
403 2 655.914000 -2372.530000 421.529000 1 1.000000 1 -3.000000
404 2 653.359000 -2381.290000 425.360000 1 1.000000 1 -3.000000
405 2 652.438000 -2390.420000 429.091000 1 1.000000 1 -3.000000
406 2 650.736000 -2398.350000 434.668000 1 1.000000 1 -3.000000
407 2 649.577000 -2407.750000 437.635000 1 1.000000 1 -3.000000
408 2 649.746000 -2417.460000 439.709000 1 1.000000 1 -3.000000
409 2 649.160000 -2427.340000 439.145000 1 1.000000 1 -3.000000
410 2 641.794000 -2433.500000 441.987000 1 1.000000 1 -3.000000
411 2 635.029000 -2439.870000 445.260000 1 1.000000 1 -3.000000
412 2 628.947000 -2444.670000 451.466000 1 1.000000 1 -3.000000
413 2 623.040000 -2449.540000 457.659000 1 1.000000 1 -3.000000
414 2 620.086000 -2456.240000 464.339000 1 1.000000 1 -3.000000
415 2 618.589000 -2464.260000 469.858000 1 1.000000 1 -3.000000
416 2 614.217000 -2469.580000 476.888000 1 1.000000 1 -3.000000
417 2 610.984000 -2472.600000 485.693000 1 1.000000 1 -3.000000
418 2 605.685000 -2475.680000 493.503000 1 1.000000 1 -3.000000
419 2 602.553000 -2480.510000 501.551000 1 1.000000 1 -3.000000
420 2 598.245000 -2486.570000 508.092000 1 1.000000 1 -3.000000
421 2 597.242000 -2492.330000 515.963000 1 1.000000 1 -3.000000
422 2 596.547000 -2497.130000 524.515000 1 1.000000 1 -3.000000
423 2 596.171000 -2499.620000 534.134000 1 1.000000 1 -3.000000
424 2 601.053000 -2501.020000 542.654000 1 1.000000 1 -3.000000
425 2 605.909000 -2503.340000 550.961000 1 1.000000 1 -3.000000
426 2 611.331000 -2505.550000 558.884000 1 1.000000 17 -3.000000
427 1 624.446000 -2548.260000 543.721000 1 1.000000 17 0.000000
428 3 616.977000 -2531.130000 514.155000 1 1.000000 17 0.000000
429 2 630.919000 -2581.230000 510.724000 1 1.000000 17 -3.000000
430 2 632.421000 -2573.340000 504.836000 1 1.000000 1 -3.000000
431 2 635.552000 -2566.360000 498.392000 1 1.000000 1 -3.000000
432 2 638.473000 -2559.340000 492.244000 1 1.000000 1 -3.000000
433 2 643.140000 -2552.980000 486.125000 1 1.000000 1 -3.000000
434 2 648.084000 -2548.720000 478.673000 1 1.000000 1 -3.000000
435 2 649.597000 -2542.520000 471.122000 1 1.000000 1 -3.000000
436 2 652.941000 -2534.340000 466.669000 1 1.000000 1 -3.000000
437 2 658.220000 -2526.590000 463.491000 1 1.000000 1 -3.000000
438 2 663.587000 -2518.360000 462.114000 1 1.000000 1 -3.000000
439 2 669.790000 -2511.280000 465.217000 1 1.000000 1 -3.000000
440 2 678.099000 -2507.810000 469.425000 1 1.000000 1 -3.000000
441 2 684.181000 -2501.680000 474.215000 1 1.000000 1 -3.000000
442 2 683.930000 -2492.140000 476.943000 1 1.000000 1 -3.000000
443 2 682.765000 -2482.610000 479.093000 1 1.000000 1 -3.000000
444 2 678.401000 -2473.920000 481.027000 1 1.000000 1 -3.000000
445 2 672.797000 -2466.000000 483.062000 1 1.000000 1 -3.000000
446 2 668.413000 -2457.690000 486.230000 1 1.000000 1 -3.000000
447 2 664.994000 -2449.430000 490.531000 1 1.000000 1 -3.000000
448 2 663.215000 -2440.960000 495.110000 1 1.000000 1 -3.000000
449 2 660.840000 -2431.410000 496.376000 1 1.000000 1 -3.000000
450 2 662.747000 -2421.870000 497.543000 1 1.000000 1 -3.000000
451 2 664.340000 -2412.180000 496.417000 1 1.000000 1 -3.000000
452 2 669.842000 -2404.070000 497.738000 1 1.000000 1 -3.000000
453 2 674.513000 -2395.760000 500.442000 1 1.000000 18 -3.000000
454 1 704.916000 -2394.900000 464.438000 1 1.000000 18 0.000000
455 3 687.634000 -2425.080000 459.712000 1 1.000000 18 0.000000
456 2 724.064000 -2412.120000 424.865000 1 1.000000 18 -3.000000
457 2 717.729000 -2419.460000 423.089000 1 1.000000 1 -3.000000
458 2 712.723000 -2427.910000 423.630000 1 1.000000 1 -3.000000
459 2 708.308000 -2436.250000 426.610000 1 1.000000 1 -3.000000
460 2 700.977000 -2442.780000 427.174000 1 1.000000 1 -3.000000
461 2 692.690000 -2448.050000 425.532000 1 1.000000 1 -3.000000
462 2 686.647000 -2454.930000 421.685000 1 1.000000 1 -3.000000
463 2 681.909000 -2461.890000 416.377000 1 1.000000 1 -3.000000
464 2 681.432000 -2468.450000 408.926000 1 1.000000 1 -3.000000
465 2 683.229000 -2473.970000 400.930000 1 1.000000 1 -3.000000