LAMMPS data file

4067 atoms
4067 ellipsoids
4516 bonds
8882 angles
0 dihedrals

3 atom types
5 bond types
12 angle types
0 dihedral types

-4631.092947 4670.465898 xlo xhi
-4631.092947 4670.465898 ylo yhi
-4631.092947 4670.465898 zlo zhi

Masses

1 196016.000000
2 1950.000000
3 19500.000000

Atoms

1 2 742.019000 -2765.580000 667.506000 1 1.000000 1 -3.000000
2 2 744.922000 -2769.480000 676.141000 1 1.000000 1 -3.000000
3 2 748.733000 -2773.360000 684.314000 1 1.000000 1 -3.000000
4 2 750.376000 -2778.540000 692.735000 1 1.000000 1 -3.000000
5 2 750.302000 -2786.140000 698.959000 1 1.000000 1 -3.000000
6 2 751.910000 -2793.270000 705.586000 1 1.000000 1 -3.000000
7 2 753.796000 -2802.330000 709.291000 1 1.000000 1 -3.000000
8 2 757.323000 -2810.400000 713.700000 1 1.000000 1 -3.000000
9 2 762.310000 -2818.320000 716.783000 1 1.000000 1 -3.000000
10 2 765.805000 -2827.450000 715.123000 1 1.000000 1 -3.000000
11 2 769.656000 -2836.270000 712.886000 1 1.000000 1 -3.000000
12 2 773.193000 -2844.120000 708.200000 1 1.000000 1 -3.000000
13 2 776.769000 -2851.760000 702.928000 1 1.000000 1 -3.000000
14 2 783.508000 -2857.690000 698.870000 1 1.000000 1 -3.000000
15 2 790.618000 -2863.680000 695.640000 1 1.000000 1 -3.000000
16 2 798.886000 -2867.700000 691.957000 1 1.000000 1 -3.000000
17 2 805.209000 -2873.320000 686.984000 1 1.000000 1 -3.000000
18 2 810.923000 -2880.740000 684.174000 1 1.000000 1 -3.000000
19 2 815.765000 -2888.830000 681.273000 1 1.000000 1 -3.000000
20 2 818.339000 -2898.300000 680.120000 1 1.000000 1 -3.000000
21 2 822.078000 -2907.620000 679.741000 1 1.000000 2 -3.000000
22 1 785.873000 -2936.370000 689.376000 1 1.000000 2 0.000000
23 3 771.435000 -2904.510000 691.224000 1 1.000000 2 0.000000
24 2 740.057000 -2945.690000 695.452000 1 1.000000 2 -3.000000
25 2 737.806000 -2936.800000 691.520000 1 1.000000 1 -3.000000
26 2 733.382000 -2927.990000 689.445000 1 1.000000 1 -3.000000
27 2 732.257000 -2919.170000 685.067000 1 1.000000 1 -3.000000
28 2 730.224000 -2910.290000 681.433000 1 1.000000 1 -3.000000
29 2 730.113000 -2900.500000 680.417000 1 1.000000 1 -3.000000
30 2 730.727000 -2891.080000 677.610000 1 1.000000 1 -3.000000
31 2 732.409000 -2882.520000 672.704000 1 1.000000 1 -3.000000
32 2 732.720000 -2874.920000 666.380000 1 1.000000 1 -3.000000
33 2 731.545000 -2871.440000 657.211000 1 1.000000 1 -3.000000
34 2 730.326000 -2868.610000 647.780000 1 1.000000 1 -3.000000
35 2 726.870000 -2868.130000 638.469000 1 1.000000 1 -3.000000
36 2 722.294000 -2866.760000 629.745000 1 1.000000 1 -3.000000
37 2 718.038000 -2868.800000 621.076000 1 1.000000 1 -3.000000
38 2 713.976000 -2869.930000 611.995000 1 1.000000 1 -3.000000
39 2 707.955000 -2867.930000 604.436000 1 1.000000 1 -3.000000
40 2 699.710000 -2867.740000 598.970000 1 1.000000 1 -3.000000
41 2 691.384000 -2866.020000 593.721000 1 1.000000 1 -3.000000
42 2 683.319000 -2865.990000 588.043000 1 1.000000 1 -3.000000
43 2 675.716000 -2865.200000 581.766000 1 1.000000 1 -3.000000
44 2 669.150000 -2866.110000 574.495000 1 1.000000 1 -3.000000
45 2 664.489000 -2869.580000 566.468000 1 1.000000 1 -3.000000
46 2 658.941000 -2873.890000 559.474000 1 1.000000 1 -3.000000
47 2 655.663000 -2878.080000 551.061000 1 1.000000 1 -3.000000
48 2 651.187000 -2883.840000 544.458000 1 1.000000 3 -3.000000
49 1 663.588000 -2867.450000 502.009000 1 1.000000 3 0.000000
50 3 674.711000 -2842.460000 523.676000 1 1.000000 3 0.000000
51 2 681.060000 -2834.750000 472.876000 1 1.000000 3 -3.000000
52 2 684.392000 -2827.910000 479.163000 1 1.000000 1 -3.000000
53 2 690.662000 -2824.910000 486.365000 1 1.000000 1 -3.000000
54 2 697.545000 -2821.150000 492.459000 1 1.000000 1 -3.000000
55 2 701.874000 -2815.940000 499.757000 1 1.000000 1 -3.000000
56 2 704.088000 -2813.880000 509.106000 1 1.000000 1 -3.000000
57 2 706.481000 -2813.990000 518.889000 1 1.000000 1 -3.000000
58 2 710.719000 -2812.720000 527.864000 1 1.000000 1 -3.000000
59 2 713.897000 -2813.850000 537.276000 1 1.000000 1 -3.000000
60 2 720.570000 -2817.500000 543.630000 1 1.000000 1 -3.000000
61 2 726.427000 -2824.620000 547.291000 1 1.000000 1 -3.000000
62 2 731.914000 -2832.390000 549.869000 1 1.000000 1 -3.000000
63 2 738.859000 -2838.410000 553.334000 1 1.000000 1 -3.000000
64 2 746.100000 -2844.240000 556.722000 1 1.000000 1 -3.000000
65 2 753.867000 -2850.250000 558.299000 1 1.000000 1 -3.000000
66 2 761.870000 -2852.830000 563.466000 1 1.000000 1 -3.000000
67 2 768.203000 -2856.930000 569.724000 1 1.000000 1 -3.000000
68 2 776.138000 -2858.010000 575.564000 1 1.000000 1 -3.000000
69 2 782.208000 -2861.690000 582.451000 1 1.000000 1 -3.000000
70 2 789.093000 -2863.900000 589.011000 1 1.000000 1 -3.000000
71 2 797.941000 -2862.850000 593.498000 1 1.000000 1 -3.000000
72 2 807.205000 -2863.620000 596.640000 1 1.000000 1 -3.000000
73 2 816.305000 -2865.390000 600.092000 1 1.000000 1 -3.000000
74 2 826.028000 -2866.810000 600.119000 1 1.000000 1 -3.000000
75 2 835.593000 -2868.520000 601.661000 1 1.000000 4 -3.000000
76 1 830.057000 -2901.570000 634.772000 1 1.000000 4 0.000000
77 3 801.973000 -2905.810000 614.336000 1 1.000000 4 0.000000
78 2 805.466000 -2935.210000 657.111000 1 1.000000 4 -3.000000
79 2 800.039000 -2936.480000 648.921000 1 1.000000 1 -3.000000
80 2 798.365000 -2938.670000 639.462000 1 1.000000 1 -3.000000
81 2 794.688000 -2944.080000 632.044000 1 1.000000 1 -3.000000
82 2 793.771000 -2947.160000 622.755000 1 1.000000 1 -3.000000
83 2 793.861000 -2953.420000 614.945000 1 1.000000 1 -3.000000
84 2 793.635000 -2956.630000 605.613000 1 1.000000 1 -3.000000
85 2 789.338000 -2959.050000 597.114000 1 1.000000 1 -3.000000
86 2 785.388000 -2961.740000 588.388000 1 1.000000 1 -3.000000
87 2 778.812000 -2962.700000 580.977000 1 1.000000 1 -3.000000
88 2 771.882000 -2962.130000 573.909000 1 1.000000 1 -3.000000
89 2 767.293000 -2961.070000 565.270000 1 1.000000 1 -3.000000
90 2 761.812000 -2960.890000 557.117000 1 1.000000 1 -3.000000
91 2 758.076000 -2960.270000 547.995000 1 1.000000 1 -3.000000
92 2 753.532000 -2962.640000 539.578000 1 1.000000 1 -3.000000
93 2 748.053000 -2969.090000 534.567000 1 1.000000 1 -3.000000
94 2 742.706000 -2976.230000 530.268000 1 1.000000 1 -3.000000
95 2 735.464000 -2982.210000 527.077000 1 1.000000 1 -3.000000
96 2 729.800000 -2990.230000 525.811000 1 1.000000 1 -3.000000
97 2 724.560000 -2998.670000 526.034000 1 1.000000 1 -3.000000
98 2 720.479000 -3007.560000 527.909000 1 1.000000 1 -3.000000
99 2 714.550000 -3014.290000 532.132000 1 1.000000 1 -3.000000
100 2 708.424000 -3020.540000 536.848000 1 1.000000 1 -3.000000
101 2 703.580000 -3026.520000 543.167000 1 1.000000 1 -3.000000
102 2 697.821000 -3031.890000 549.316000 1 1.000000 5 -3.000000
103 1 686.294000 -2997.610000 579.748000 1 1.000000 5 0.000000
104 3 694.824000 -2980.090000 550.722000 1 1.000000 5 0.000000
105 2 676.143000 -2952.820000 590.721000 1 1.000000 5 -3.000000
106 2 680.104000 -2953.570000 581.681000 1 1.000000 1 -3.000000
107 2 682.326000 -2951.250000 572.336000 1 1.000000 1 -3.000000
108 2 685.334000 -2946.400000 564.162000 1 1.000000 1 -3.000000
109 2 688.821000 -2940.310000 557.251000 1 1.000000 1 -3.000000
110 2 690.953000 -2932.870000 550.930000 1 1.000000 1 -3.000000
111 2 694.338000 -2927.240000 543.423000 1 1.000000 1 -3.000000
112 2 696.790000 -2922.510000 535.097000 1 1.000000 1 -3.000000
113 2 698.961000 -2919.230000 525.948000 1 1.000000 1 -3.000000
114 2 699.523000 -2918.340000 516.133000 1 1.000000 1 -3.000000
115 2 701.464000 -2918.970000 506.459000 1 1.000000 1 -3.000000
116 2 702.254000 -2920.760000 496.742000 1 1.000000 1 -3.000000
117 2 701.188000 -2922.470000 487.113000 1 1.000000 1 -3.000000
118 2 698.027000 -2923.710000 477.790000 1 1.000000 1 -3.000000
119 2 698.662000 -2921.900000 467.963000 1 1.000000 1 -3.000000
120 2 695.942000 -2919.580000 458.692000 1 1.000000 1 -3.000000
121 2 694.136000 -2917.870000 449.245000 1 1.000000 1 -3.000000
122 2 693.729000 -2918.810000 439.385000 1 1.000000 1 -3.000000
123 2 691.446000 -2919.030000 429.672000 1 1.000000 1 -3.000000
124 2 685.980000 -2922.910000 422.443000 1 1.000000 1 -3.000000
125 2 684.295000 -2928.690000 414.501000 1 1.000000 1 -3.000000
126 2 684.494000 -2935.890000 407.656000 1 1.000000 1 -3.000000
127 2 684.951000 -2942.640000 400.454000 1 1.000000 1 -3.000000
128 2 685.198000 -2951.240000 395.433000 1 1.000000 1 -3.000000
129 2 685.939000 -2959.480000 390.187000 1 1.000000 6 -3.000000
130 1 721.839000 -2981.600000 411.352000 1 1.000000 6 0.000000
131 3 713.074000 -2956.860000 434.398000 1 1.000000 6 0.000000
132 2 752.374000 -2988.570000 446.627000 1 1.000000 6 -3.000000
133 2 749.429000 -2979.390000 448.779000 1 1.000000 1 -3.000000
134 2 746.133000 -2970.070000 448.653000 1 1.000000 1 -3.000000
135 2 746.535000 -2960.150000 449.058000 1 1.000000 1 -3.000000
136 2 747.743000 -2951.220000 452.990000 1 1.000000 1 -3.000000
137 2 749.408000 -2941.610000 454.367000 1 1.000000 1 -3.000000
138 2 753.371000 -2932.540000 455.364000 1 1.000000 1 -3.000000
139 2 759.372000 -2925.180000 452.449000 1 1.000000 1 -3.000000
140 2 763.948000 -2917.050000 449.230000 1 1.000000 1 -3.000000
141 2 765.285000 -2909.420000 443.143000 1 1.000000 1 -3.000000
142 2 767.961000 -2903.010000 435.998000 1 1.000000 1 -3.000000
143 2 772.337000 -2896.500000 429.887000 1 1.000000 1 -3.000000
144 2 778.539000 -2891.070000 424.507000 1 1.000000 1 -3.000000
145 2 786.251000 -2884.980000 422.918000 1 1.000000 1 -3.000000
146 2 791.317000 -2876.460000 422.775000 1 1.000000 1 -3.000000
147 2 795.993000 -2867.760000 423.659000 1 1.000000 1 -3.000000
148 2 801.616000 -2859.540000 424.840000 1 1.000000 1 -3.000000
149 2 808.049000 -2852.100000 424.383000 1 1.000000 1 -3.000000
150 2 816.667000 -2847.440000 422.736000 1 1.000000 1 -3.000000
151 2 825.464000 -2842.900000 422.632000 1 1.000000 1 -3.000000
152 2 833.790000 -2837.720000 421.151000 1 1.000000 1 -3.000000
153 2 840.827000 -2831.050000 418.904000 1 1.000000 1 -3.000000
154 2 846.096000 -2823.980000 414.182000 1 1.000000 1 -3.000000
155 2 847.672000 -2814.310000 413.329000 1 1.000000 1 -3.000000
156 2 849.502000 -2804.920000 410.994000 1 1.000000 7 -3.000000
157 1 857.008000 -2808.250000 457.464000 1 1.000000 7 0.000000
158 3 839.590000 -2837.680000 449.770000 1 1.000000 7 0.000000
159 2 855.991000 -2830.850000 498.871000 1 1.000000 7 -3.000000
160 2 852.989000 -2839.950000 496.249000 1 1.000000 1 -3.000000
161 2 848.403000 -2847.890000 492.547000 1 1.000000 1 -3.000000
162 2 843.132000 -2855.690000 489.331000 1 1.000000 1 -3.000000
163 2 834.310000 -2859.950000 487.669000 1 1.000000 1 -3.000000
164 2 825.263000 -2862.570000 484.626000 1 1.000000 1 -3.000000
165 2 815.538000 -2862.940000 482.904000 1 1.000000 1 -3.000000
166 2 806.447000 -2858.990000 482.610000 1 1.000000 1 -3.000000
167 2 797.838000 -2854.540000 480.492000 1 1.000000 1 -3.000000
168 2 789.515000 -2850.130000 477.640000 1 1.000000 1 -3.000000
169 2 782.242000 -2844.840000 473.278000 1 1.000000 1 -3.000000
170 2 776.456000 -2838.610000 468.014000 1 1.000000 1 -3.000000
171 2 770.170000 -2831.530000 465.304000 1 1.000000 1 -3.000000
172 2 762.136000 -2825.960000 463.298000 1 1.000000 1 -3.000000
173 2 753.417000 -2822.740000 459.836000 1 1.000000 1 -3.000000
174 2 744.058000 -2819.140000 458.524000 1 1.000000 1 -3.000000
175 2 735.682000 -2814.850000 455.707000 1 1.000000 1 -3.000000
176 2 726.119000 -2812.320000 455.544000 1 1.000000 1 -3.000000
177 2 716.365000 -2812.520000 454.158000 1 1.000000 1 -3.000000
178 2 707.176000 -2810.310000 451.089000 1 1.000000 1 -3.000000
179 2 698.901000 -2807.080000 446.663000 1 1.000000 1 -3.000000
180 2 691.329000 -2803.600000 441.177000 1 1.000000 1 -3.000000
181 2 684.509000 -2800.650000 434.565000 1 1.000000 1 -3.000000
182 2 680.209000 -2795.260000 427.512000 1 1.000000 1 -3.000000
183 2 674.965000 -2790.330000 420.744000 1 1.000000 8 -3.000000
184 1 707.890000 -2760.830000 403.817000 1 1.000000 8 0.000000
185 3 726.370000 -2783.570000 423.099000 1 1.000000 8 0.000000
186 2 751.581000 -2743.170000 402.164000 1 1.000000 8 -3.000000
187 2 755.876000 -2752.020000 401.480000 1 1.000000 1 -3.000000
188 2 757.682000 -2760.750000 397.102000 1 1.000000 1 -3.000000
189 2 759.747000 -2767.840000 390.540000 1 1.000000 1 -3.000000
190 2 763.277000 -2774.170000 383.794000 1 1.000000 1 -3.000000
191 2 766.782000 -2777.190000 375.014000 1 1.000000 1 -3.000000
192 2 772.389000 -2781.700000 368.197000 1 1.000000 1 -3.000000
193 2 777.347000 -2788.290000 362.615000 1 1.000000 1 -3.000000
194 2 777.965000 -2792.670000 353.789000 1 1.000000 1 -3.000000
195 2 779.017000 -2797.700000 345.289000 1 1.000000 1 -3.000000
196 2 782.675000 -2801.470000 336.851000 1 1.000000 1 -3.000000
197 2 786.304000 -2803.530000 328.053000 1 1.000000 1 -3.000000
198 2 788.387000 -2803.970000 318.434000 1 1.000000 1 -3.000000
199 2 791.415000 -2800.710000 309.733000 1 1.000000 1 -3.000000
200 2 794.807000 -2796.530000 301.356000 1 1.000000 1 -3.000000
201 2 798.003000 -2790.920000 293.900000 1 1.000000 1 -3.000000
202 2 804.148000 -2787.630000 286.919000 1 1.000000 1 -3.000000
203 2 812.435000 -2787.030000 281.461000 1 1.000000 1 -3.000000
204 2 821.064000 -2785.540000 276.896000 1 1.000000 1 -3.000000
205 2 828.966000 -2788.140000 271.395000 1 1.000000 1 -3.000000
206 2 836.914000 -2790.860000 266.249000 1 1.000000 1 -3.000000
207 2 844.153000 -2796.780000 262.771000 1 1.000000 1 -3.000000
208 2 849.126000 -2802.870000 256.790000 1 1.000000 1 -3.000000
209 2 855.789000 -2807.470000 251.304000 1 1.000000 1 -3.000000
210 2 863.269000 -2813.090000 248.051000 1 1.000000 9 -3.000000
211 1 876.176000 -2785.000000 212.366000 1 1.000000 9 0.000000
212 3 860.291000 -2763.060000 234.422000 1 1.000000 9 0.000000
213 2 877.984000 -2743.660000 189.678000 1 1.000000 9 -3.000000
214 2 876.010000 -2738.470000 197.961000 1 1.000000 1 -3.000000
215 2 873.894000 -2731.330000 204.600000 1 1.000000 1 -3.000000
216 2 869.975000 -2725.230000 211.436000 1 1.000000 1 -3.000000
217 2 865.859000 -2720.040000 218.711000 1 1.000000 1 -3.000000
218 2 862.534000 -2718.180000 227.827000 1 1.000000 1 -3.000000
219 2 861.169000 -2718.570000 237.630000 1 1.000000 1 -3.000000
220 2 859.937000 -2719.080000 247.470000 1 1.000000 1 -3.000000
221 2 859.444000 -2722.890000 256.565000 1 1.000000 1 -3.000000
222 2 863.468000 -2723.820000 265.722000 1 1.000000 1 -3.000000
223 2 869.270000 -2724.700000 273.642000 1 1.000000 1 -3.000000
224 2 874.769000 -2721.660000 281.338000 1 1.000000 1 -3.000000
225 2 881.489000 -2720.600000 288.361000 1 1.000000 1 -3.000000
226 2 882.302000 -2714.190000 295.835000 1 1.000000 1 -3.000000
227 2 881.897000 -2705.070000 299.816000 1 1.000000 1 -3.000000
228 2 877.840000 -2696.450000 302.329000 1 1.000000 1 -3.000000
229 2 874.920000 -2687.470000 304.981000 1 1.000000 1 -3.000000
230 2 869.441000 -2679.910000 308.205000 1 1.000000 1 -3.000000
231 2 863.175000 -2672.490000 309.872000 1 1.000000 1 -3.000000
232 2 854.398000 -2667.820000 311.134000 1 1.000000 1 -3.000000
233 2 845.940000 -2662.740000 311.597000 1 1.000000 1 -3.000000
234 2 836.719000 -2659.560000 310.359000 1 1.000000 1 -3.000000
235 2 826.864000 -2658.740000 308.967000 1 1.000000 1 -3.000000
236 2 817.264000 -2656.270000 308.187000 1 1.000000 1 -3.000000
237 2 807.492000 -2657.040000 309.321000 1 1.000000 10 -3.000000
238 1 796.120000 -2623.570000 340.492000 1 1.000000 10 0.000000
239 3 826.782000 -2635.510000 352.485000 1 1.000000 10 0.000000
240 2 804.749000 -2595.600000 377.437000 1 1.000000 10 -3.000000
241 2 814.124000 -2597.510000 374.652000 1 1.000000 1 -3.000000
242 2 823.880000 -2598.790000 375.700000 1 1.000000 1 -3.000000
243 2 833.417000 -2601.110000 377.101000 1 1.000000 1 -3.000000
244 2 842.064000 -2604.070000 380.819000 1 1.000000 1 -3.000000
245 2 846.429000 -2608.040000 388.631000 1 1.000000 1 -3.000000
246 2 853.888000 -2609.610000 394.864000 1 1.000000 1 -3.000000
247 2 861.450000 -2610.970000 401.259000 1 1.000000 1 -3.000000
248 2 869.884000 -2614.120000 405.313000 1 1.000000 1 -3.000000
249 2 877.728000 -2615.310000 411.148000 1 1.000000 1 -3.000000
250 2 886.611000 -2616.300000 415.519000 1 1.000000 1 -3.000000
251 2 895.198000 -2616.730000 420.461000 1 1.000000 1 -3.000000
252 2 900.518000 -2619.890000 428.149000 1 1.000000 1 -3.000000
253 2 904.210000 -2626.100000 435.014000 1 1.000000 1 -3.000000
254 2 909.966000 -2630.250000 441.787000 1 1.000000 1 -3.000000
255 2 916.162000 -2635.800000 446.927000 1 1.000000 1 -3.000000
256 2 921.477000 -2639.480000 454.571000 1 1.000000 1 -3.000000
257 2 927.931000 -2642.220000 461.640000 1 1.000000 1 -3.000000
258 2 933.795000 -2644.980000 469.116000 1 1.000000 1 -3.000000
259 2 939.066000 -2644.900000 477.488000 1 1.000000 1 -3.000000
260 2 944.487000 -2646.460000 485.578000 1 1.000000 1 -3.000000
261 2 951.411000 -2647.320000 492.613000 1 1.000000 1 -3.000000
262 2 956.353000 -2650.410000 500.640000 1 1.000000 1 -3.000000
263 2 962.775000 -2651.670000 508.147000 1 1.000000 1 -3.000000
264 2 969.523000 -2653.500000 515.134000 1 1.000000 11 -3.000000
265 1 945.603000 -2693.920000 519.508000 1 1.000000 11 0.000000
266 3 929.191000 -2677.490000 493.309000 1 1.000000 11 0.000000
267 2 910.667000 -2723.670000 508.367000 1 1.000000 11 -3.000000
268 2 907.016000 -2720.770000 499.724000 1 1.000000 1 -3.000000
269 2 901.110000 -2716.210000 493.115000 1 1.000000 1 -3.000000
270 2 893.258000 -2714.110000 487.241000 1 1.000000 1 -3.000000
271 2 885.290000 -2711.600000 482.147000 1 1.000000 1 -3.000000
272 2 878.467000 -2707.530000 476.286000 1 1.000000 1 -3.000000
273 2 872.422000 -2701.850000 470.854000 1 1.000000 1 -3.000000
274 2 864.304000 -2698.130000 466.564000 1 1.000000 1 -3.000000
275 2 857.365000 -2691.080000 465.149000 1 1.000000 1 -3.000000
276 2 851.806000 -2683.230000 467.431000 1 1.000000 1 -3.000000
277 2 848.186000 -2674.320000 470.228000 1 1.000000 1 -3.000000
278 2 849.038000 -2664.600000 472.564000 1 1.000000 1 -3.000000
279 2 852.659000 -2655.320000 471.784000 1 1.000000 1 -3.000000
280 2 856.324000 -2646.550000 474.519000 1 1.000000 1 -3.000000
281 2 858.316000 -2637.440000 477.670000 1 1.000000 1 -3.000000
282 2 860.312000 -2628.800000 482.197000 1 1.000000 1 -3.000000
283 2 860.335000 -2619.650000 486.301000 1 1.000000 1 -3.000000
284 2 861.695000 -2611.090000 491.015000 1 1.000000 1 -3.000000
285 2 861.918000 -2602.940000 496.389000 1 1.000000 1 -3.000000
286 2 863.789000 -2594.030000 500.396000 1 1.000000 1 -3.000000
287 2 865.291000 -2584.780000 503.534000 1 1.000000 1 -3.000000
288 2 868.083000 -2577.720000 509.941000 1 1.000000 1 -3.000000
289 2 870.884000 -2570.240000 515.685000 1 1.000000 1 -3.000000
290 2 870.672000 -2563.590000 523.036000 1 1.000000 1 -3.000000
291 2 870.384000 -2557.420000 530.835000 1 1.000000 12 -3.000000
292 1 847.147000 -2527.520000 502.554000 1 1.000000 12 0.000000
293 3 834.607000 -2558.850000 493.278000 1 1.000000 12 0.000000
294 2 812.740000 -2516.710000 472.151000 1 1.000000 12 -3.000000
295 2 806.271000 -2523.080000 475.890000 1 1.000000 1 -3.000000
296 2 799.863000 -2530.530000 477.346000 1 1.000000 1 -3.000000
297 2 796.540000 -2539.780000 477.127000 1 1.000000 1 -3.000000
298 2 795.326000 -2549.520000 479.053000 1 1.000000 1 -3.000000
299 2 791.505000 -2558.010000 482.255000 1 1.000000 1 -3.000000
300 2 787.623000 -2565.810000 486.941000 1 1.000000 1 -3.000000
301 2 781.456000 -2572.130000 491.342000 1 1.000000 1 -3.000000
302 2 774.605000 -2578.770000 494.234000 1 1.000000 1 -3.000000
303 2 766.741000 -2584.880000 493.956000 1 1.000000 1 -3.000000
304 2 757.427000 -2587.050000 491.523000 1 1.000000 1 -3.000000
305 2 747.689000 -2588.610000 490.376000 1 1.000000 1 -3.000000
306 2 739.707000 -2593.330000 487.083000 1 1.000000 1 -3.000000
307 2 730.359000 -2596.760000 486.125000 1 1.000000 1 -3.000000
308 2 721.535000 -2600.750000 484.235000 1 1.000000 1 -3.000000
309 2 712.248000 -2603.980000 484.143000 1 1.000000 1 -3.000000
310 2 703.305000 -2608.230000 484.820000 1 1.000000 1 -3.000000
311 2 696.888000 -2615.810000 484.782000 1 1.000000 1 -3.000000
312 2 689.097000 -2621.630000 486.918000 1 1.000000 1 -3.000000
313 2 680.770000 -2626.920000 488.552000 1 1.000000 1 -3.000000
314 2 677.168000 -2636.050000 489.179000 1 1.000000 1 -3.000000
315 2 675.480000 -2645.800000 488.539000 1 1.000000 1 -3.000000
316 2 673.031000 -2654.540000 484.706000 1 1.000000 1 -3.000000
317 2 668.604000 -2662.270000 480.521000 1 1.000000 1 -3.000000
318 2 660.083000 -2666.170000 477.463000 1 1.000000 13 -3.000000
319 1 645.974000 -2647.820000 436.423000 1 1.000000 13 0.000000
320 3 670.526000 -2625.290000 447.237000 1 1.000000 13 0.000000
321 2 645.405000 -2614.300000 403.200000 1 1.000000 13 -3.000000
322 2 650.411000 -2607.780000 408.611000 1 1.000000 1 -3.000000
323 2 656.466000 -2600.620000 411.621000 1 1.000000 1 -3.000000
324 2 665.656000 -2597.280000 412.872000 1 1.000000 1 -3.000000
325 2 674.287000 -2595.130000 417.329000 1 1.000000 1 -3.000000
326 2 680.839000 -2591.310000 423.700000 1 1.000000 1 -3.000000
327 2 687.747000 -2587.430000 429.711000 1 1.000000 1 -3.000000
328 2 693.962000 -2583.040000 435.917000 1 1.000000 1 -3.000000
329 2 699.402000 -2577.870000 442.273000 1 1.000000 1 -3.000000
330 2 703.053000 -2572.560000 449.857000 1 1.000000 1 -3.000000
331 2 706.618000 -2567.100000 457.269000 1 1.000000 1 -3.000000
332 2 709.622000 -2563.240000 466.010000 1 1.000000 1 -3.000000
333 2 709.034000 -2561.170000 475.537000 1 1.000000 1 -3.000000
334 2 708.789000 -2560.530000 485.394000 1 1.000000 1 -3.000000
335 2 709.169000 -2558.120000 494.959000 1 1.000000 1 -3.000000
336 2 712.432000 -2552.660000 502.580000 1 1.000000 1 -3.000000
337 2 716.145000 -2548.990000 510.949000 1 1.000000 1 -3.000000
338 2 720.834000 -2544.120000 518.204000 1 1.000000 1 -3.000000
339 2 726.391000 -2537.890000 523.383000 1 1.000000 1 -3.000000
340 2 731.480000 -2530.360000 527.221000 1 1.000000 1 -3.000000
341 2 736.091000 -2524.630000 533.844000 1 1.000000 1 -3.000000
342 2 742.232000 -2520.370000 540.298000 1 1.000000 1 -3.000000
343 2 749.258000 -2519.770000 547.250000 1 1.000000 1 -3.000000
344 2 755.630000 -2517.450000 554.817000 1 1.000000 1 -3.000000
345 2 762.666000 -2513.190000 560.319000 1 1.000000 14 -3.000000
346 1 736.012000 -2527.910000 596.342000 1 1.000000 14 0.000000
347 3 718.060000 -2538.780000 568.209000 1 1.000000 14 0.000000
348 2 696.976000 -2546.660000 614.994000 1 1.000000 14 -3.000000
349 2 693.651000 -2550.040000 606.397000 1 1.000000 1 -3.000000
350 2 687.941000 -2554.410000 599.520000 1 1.000000 1 -3.000000
351 2 683.868000 -2559.270000 591.896000 1 1.000000 1 -3.000000
352 2 679.042000 -2563.380000 584.293000 1 1.000000 1 -3.000000
353 2 675.877000 -2569.280000 577.104000 1 1.000000 1 -3.000000
354 2 670.471000 -2572.370000 569.278000 1 1.000000 1 -3.000000
355 2 664.343000 -2573.090000 561.493000 1 1.000000 1 -3.000000
356 2 657.189000 -2571.400000 554.840000 1 1.000000 1 -3.000000
357 2 650.957000 -2569.170000 547.683000 1 1.000000 1 -3.000000
358 2 648.157000 -2569.380000 538.317000 1 1.000000 1 -3.000000
359 2 645.215000 -2568.520000 529.011000 1 1.000000 1 -3.000000
360 2 646.126000 -2567.040000 519.207000 1 1.000000 1 -3.000000
361 2 645.109000 -2565.050000 509.586000 1 1.000000 1 -3.000000
362 2 644.256000 -2565.920000 499.751000 1 1.000000 1 -3.000000
363 2 644.362000 -2567.090000 489.892000 1 1.000000 1 -3.000000
364 2 645.600000 -2569.010000 480.151000 1 1.000000 1 -3.000000
365 2 642.870000 -2568.000000 470.640000 1 1.000000 1 -3.000000
366 2 641.653000 -2567.350000 460.806000 1 1.000000 1 -3.000000
367 2 642.116000 -2568.000000 450.954000 1 1.000000 1 -3.000000
368 2 643.855000 -2565.310000 441.559000 1 1.000000 1 -3.000000
369 2 644.136000 -2563.110000 431.957000 1 1.000000 1 -3.000000
370 2 642.424000 -2561.090000 422.406000 1 1.000000 1 -3.000000
371 2 640.637000 -2563.920000 413.029000 1 1.000000 1 -3.000000
372 2 637.380000 -2564.730000 403.689000 1 1.000000 15 -3.000000
373 1 592.156000 -2578.140000 405.049000 1 1.000000 15 0.000000
374 3 599.971000 -2572.790000 438.647000 1 1.000000 15 0.000000
375 2 551.439000 -2587.280000 427.043000 1 1.000000 15 -3.000000
376 2 558.527000 -2591.180000 432.611000 1 1.000000 1 -3.000000
377 2 563.430000 -2598.240000 437.718000 1 1.000000 1 -3.000000
378 2 566.562000 -2604.570000 444.849000 1 1.000000 1 -3.000000
379 2 566.424000 -2607.570000 454.205000 1 1.000000 1 -3.000000
380 2 563.756000 -2610.520000 463.216000 1 1.000000 1 -3.000000
381 2 560.476000 -2611.780000 472.518000 1 1.000000 1 -3.000000
382 2 557.644000 -2612.240000 482.148000 1 1.000000 1 -3.000000
383 2 553.835000 -2615.050000 490.730000 1 1.000000 1 -3.000000
384 2 551.343000 -2619.440000 499.247000 1 1.000000 1 -3.000000
385 2 550.915000 -2624.750000 507.652000 1 1.000000 1 -3.000000
386 2 548.327000 -2629.560000 515.789000 1 1.000000 1 -3.000000
387 2 547.193000 -2635.250000 523.818000 1 1.000000 1 -3.000000
388 2 550.630000 -2640.590000 531.502000 1 1.000000 1 -3.000000
389 2 554.225000 -2647.990000 537.080000 1 1.000000 1 -3.000000
390 2 560.025000 -2654.160000 542.287000 1 1.000000 1 -3.000000
391 2 566.292000 -2660.670000 546.228000 1 1.000000 1 -3.000000
392 2 572.299000 -2667.950000 549.167000 1 1.000000 1 -3.000000
393 2 580.027000 -2674.080000 550.078000 1 1.000000 1 -3.000000
394 2 587.331000 -2680.600000 550.718000 1 1.000000 1 -3.000000
395 2 592.544000 -2688.870000 549.110000 1 1.000000 1 -3.000000
396 2 594.218000 -2698.650000 549.414000 1 1.000000 1 -3.000000
397 2 596.870000 -2708.050000 547.474000 1 1.000000 1 -3.000000
398 2 598.660000 -2717.530000 545.217000 1 1.000000 1 -3.000000
399 2 598.581000 -2727.380000 544.222000 1 1.000000 16 -3.000000
400 1 617.245000 -2744.700000 504.509000 1 1.000000 16 0.000000
401 3 600.365000 -2715.950000 493.555000 1 1.000000 16 0.000000
402 2 624.902000 -2744.950000 457.986000 1 1.000000 16 -3.000000
403 2 623.735000 -2735.120000 458.206000 1 1.000000 1 -3.000000
404 2 622.206000 -2725.980000 462.010000 1 1.000000 1 -3.000000
405 2 620.882000 -2716.590000 464.721000 1 1.000000 1 -3.000000
406 2 619.590000 -2706.880000 466.332000 1 1.000000 1 -3.000000
407 2 614.437000 -2698.740000 468.537000 1 1.000000 1 -3.000000
408 2 608.475000 -2692.090000 472.889000 1 1.000000 1 -3.000000
409 2 602.526000 -2684.470000 475.380000 1 1.000000 1 -3.000000
410 2 596.037000 -2676.940000 474.289000 1 1.000000 1 -3.000000
411 2 589.607000 -2669.800000 472.307000 1 1.000000 1 -3.000000
412 2 581.250000 -2664.600000 472.578000 1 1.000000 1 -3.000000
413 2 573.058000 -2659.560000 470.441000 1 1.000000 1 -3.000000
414 2 563.640000 -2656.320000 470.711000 1 1.000000 1 -3.000000
415 2 554.901000 -2651.780000 470.439000 1 1.000000 1 -3.000000
416 2 545.493000 -2649.290000 472.804000 1 1.000000 1 -3.000000
417 2 536.568000 -2644.990000 473.092000 1 1.000000 1 -3.000000
418 2 530.548000 -2637.700000 475.993000 1 1.000000 1 -3.000000
419 2 525.288000 -2630.100000 479.650000 1 1.000000 1 -3.000000
420 2 523.256000 -2621.450000 483.828000 1 1.000000 1 -3.000000
421 2 520.338000 -2612.380000 486.580000 1 1.000000 1 -3.000000
422 2 515.279000 -2606.440000 492.623000 1 1.000000 1 -3.000000
423 2 511.078000 -2598.150000 496.213000 1 1.000000 1 -3.000000
424 2 508.318000 -2589.750000 500.375000 1 1.000000 1 -3.000000
425 2 508.402000 -2581.420000 505.868000 1 1.000000 1 -3.000000
426 2 512.840000 -2573.510000 509.864000 1 1.000000 17 -3.000000
427 1 472.677000 -2549.750000 516.691000 1 1.000000 17 0.000000
428 3 464.592000 -2571.840000 490.601000 1 1.000000 17 0.000000
429 2 428.063000 -2538.370000 506.410000 1 1.000000 17 -3.000000
430 2 424.848000 -2546.230000 501.338000 1 1.000000 1 -3.000000
431 2 427.284000 -2549.260000 492.180000 1 1.000000 1 -3.000000
432 2 428.292000 -2549.190000 482.364000 1 1.000000 1 -3.000000
433 2 431.626000 -2545.850000 473.529000 1 1.000000 1 -3.000000
434 2 435.768000 -2543.100000 464.986000 1 1.000000 1 -3.000000
435 2 438.521000 -2540.180000 455.938000 1 1.000000 1 -3.000000
436 2 443.432000 -2541.200000 447.303000 1 1.000000 1 -3.000000
437 2 451.745000 -2543.400000 442.715000 1 1.000000 1 -3.000000
438 2 461.139000 -2543.970000 439.663000 1 1.000000 1 -3.000000
439 2 470.641000 -2546.820000 439.281000 1 1.000000 1 -3.000000
440 2 479.938000 -2550.070000 438.220000 1 1.000000 1 -3.000000
441 2 488.932000 -2552.360000 434.918000 1 1.000000 1 -3.000000
442 2 496.047000 -2553.350000 428.082000 1 1.000000 1 -3.000000
443 2 505.138000 -2555.130000 424.814000 1 1.000000 1 -3.000000
444 2 514.875000 -2553.230000 423.100000 1 1.000000 1 -3.000000
445 2 524.752000 -2553.180000 423.666000 1 1.000000 1 -3.000000
446 2 533.694000 -2549.620000 426.004000 1 1.000000 1 -3.000000
447 2 541.779000 -2544.080000 426.184000 1 1.000000 1 -3.000000
448 2 550.188000 -2538.810000 426.445000 1 1.000000 1 -3.000000
449 2 557.698000 -2532.280000 427.357000 1 1.000000 1 -3.000000
450 2 563.534000 -2524.400000 428.227000 1 1.000000 1 -3.000000
451 2 569.924000 -2517.160000 426.328000 1 1.000000 1 -3.000000
452 2 576.661000 -2510.020000 424.708000 1 1.000000 1 -3.000000
453 2 583.659000 -2502.930000 423.622000 1 1.000000 18 -3.000000
454 1 592.274000 -2511.600000 378.081000 1 1.000000 18 0.000000
455 3 561.810000 -2528.020000 383.736000 1 1.000000 18 0.000000
456 2 581.846000 -2529.950000 335.861000 1 1.000000 18 -3.000000
457 2 573.804000 -2534.850000 338.474000 1 1.000000 1 -3.000000
458 2 566.119000 -2538.900000 342.927000 1 1.000000 1 -3.000000
459 2 557.780000 -2542.570000 346.739000 1 1.000000 1 -3.000000
460 2 547.888000 -2543.300000 346.202000 1 1.000000 1 -3.000000
461 2 538.377000 -2540.820000 347.462000 1 1.000000 1 -3.000000
462 2 528.946000 -2539.450000 349.771000 1 1.000000 1 -3.000000
463 2 520.178000 -2535.100000 351.522000 1 1.000000 1 -3.000000
464 2 510.647000 -2532.560000 351.886000 1 1.000000 1 -3.000000
465 2 501.401000 -2529.650000 353.656000 1 1.000000 1 -3.000000