LAMMPS data file

4067 atoms
4067 ellipsoids
4516 bonds
8882 angles
0 dihedrals

3 atom types
5 bond types
12 angle types
0 dihedral types

-4631.092947 4670.465898 xlo xhi
-4631.092947 4670.465898 ylo yhi
-4631.092947 4670.465898 zlo zhi

Masses

1 196016.000000
2 1950.000000
3 19500.000000

Atoms

1 2 588.919000 -3147.430000 607.423000 1 1.000000 1 -3.000000
2 2 594.519000 -3142.020000 601.410000 1 1.000000 1 -3.000000
3 2 599.295000 -3135.770000 595.373000 1 1.000000 1 -3.000000
4 2 605.522000 -3131.170000 589.057000 1 1.000000 1 -3.000000
5 2 610.576000 -3129.640000 580.685000 1 1.000000 1 -3.000000
6 2 616.591000 -3127.430000 573.023000 1 1.000000 1 -3.000000
7 2 622.130000 -3125.600000 564.956000 1 1.000000 1 -3.000000
8 2 630.871000 -3122.840000 561.411000 1 1.000000 1 -3.000000
9 2 639.055000 -3119.410000 557.072000 1 1.000000 1 -3.000000
10 2 647.129000 -3118.020000 551.517000 1 1.000000 1 -3.000000
11 2 653.886000 -3114.200000 545.275000 1 1.000000 1 -3.000000
12 2 661.354000 -3110.830000 539.859000 1 1.000000 1 -3.000000
13 2 667.584000 -3107.780000 532.789000 1 1.000000 1 -3.000000
14 2 674.980000 -3107.520000 525.996000 1 1.000000 1 -3.000000
15 2 682.749000 -3105.370000 520.176000 1 1.000000 1 -3.000000
16 2 690.893000 -3103.080000 515.217000 1 1.000000 1 -3.000000
17 2 699.620000 -3103.000000 510.478000 1 1.000000 1 -3.000000
18 2 708.306000 -3103.600000 505.667000 1 1.000000 1 -3.000000
19 2 717.850000 -3104.160000 503.485000 1 1.000000 1 -3.000000
20 2 727.142000 -3106.990000 501.442000 1 1.000000 1 -3.000000
21 2 735.910000 -3111.370000 501.528000 1 1.000000 2 -3.000000
22 1 723.608000 -3146.830000 472.853000 1 1.000000 2 0.000000
23 3 692.804000 -3134.260000 483.716000 1 1.000000 2 0.000000
24 2 692.207000 -3174.310000 450.831000 1 1.000000 2 -3.000000
25 2 684.584000 -3168.840000 454.442000 1 1.000000 1 -3.000000
26 2 676.395000 -3163.990000 457.223000 1 1.000000 1 -3.000000
27 2 668.774000 -3158.480000 460.409000 1 1.000000 1 -3.000000
28 2 661.990000 -3152.490000 464.413000 1 1.000000 1 -3.000000
29 2 653.822000 -3148.700000 468.578000 1 1.000000 1 -3.000000
30 2 645.762000 -3143.060000 470.253000 1 1.000000 1 -3.000000
31 2 636.803000 -3138.710000 471.334000 1 1.000000 1 -3.000000
32 2 628.257000 -3135.010000 467.947000 1 1.000000 1 -3.000000
33 2 622.046000 -3130.170000 462.187000 1 1.000000 1 -3.000000
34 2 614.798000 -3126.470000 456.445000 1 1.000000 1 -3.000000
35 2 612.908000 -3121.520000 448.228000 1 1.000000 1 -3.000000
36 2 610.204000 -3119.450000 438.802000 1 1.000000 1 -3.000000
37 2 609.156000 -3118.960000 429.071000 1 1.000000 1 -3.000000
38 2 608.501000 -3115.870000 419.675000 1 1.000000 1 -3.000000
39 2 609.830000 -3113.110000 410.134000 1 1.000000 1 -3.000000
40 2 607.542000 -3112.260000 400.621000 1 1.000000 1 -3.000000
41 2 603.178000 -3115.030000 392.270000 1 1.000000 1 -3.000000
42 2 595.809000 -3117.060000 385.968000 1 1.000000 1 -3.000000
43 2 589.704000 -3115.680000 378.267000 1 1.000000 1 -3.000000
44 2 585.480000 -3112.820000 369.751000 1 1.000000 1 -3.000000
45 2 585.188000 -3113.680000 359.918000 1 1.000000 1 -3.000000
46 2 583.564000 -3115.760000 350.447000 1 1.000000 1 -3.000000
47 2 582.544000 -3119.700000 341.392000 1 1.000000 1 -3.000000
48 2 580.861000 -3125.080000 333.154000 1 1.000000 3 -3.000000
49 1 623.655000 -3111.330000 318.619000 1 1.000000 3 0.000000
50 3 627.789000 -3115.060000 353.369000 1 1.000000 3 0.000000
51 2 668.749000 -3099.470000 325.595000 1 1.000000 3 -3.000000
52 2 666.498000 -3093.560000 333.415000 1 1.000000 1 -3.000000
53 2 666.164000 -3090.750000 342.930000 1 1.000000 1 -3.000000
54 2 666.149000 -3086.800000 352.167000 1 1.000000 1 -3.000000
55 2 666.734000 -3081.360000 360.360000 1 1.000000 1 -3.000000
56 2 669.612000 -3075.340000 367.718000 1 1.000000 1 -3.000000
57 2 669.647000 -3070.820000 376.563000 1 1.000000 1 -3.000000
58 2 671.946000 -3066.400000 384.967000 1 1.000000 1 -3.000000
59 2 673.445000 -3066.570000 394.762000 1 1.000000 1 -3.000000
60 2 676.593000 -3068.760000 403.932000 1 1.000000 1 -3.000000
61 2 682.587000 -3071.920000 411.228000 1 1.000000 1 -3.000000
62 2 689.808000 -3075.270000 417.187000 1 1.000000 1 -3.000000
63 2 696.270000 -3077.700000 424.078000 1 1.000000 1 -3.000000
64 2 703.905000 -3081.160000 429.265000 1 1.000000 1 -3.000000
65 2 712.353000 -3085.190000 432.644000 1 1.000000 1 -3.000000
66 2 721.403000 -3088.690000 434.488000 1 1.000000 1 -3.000000
67 2 729.883000 -3092.270000 437.851000 1 1.000000 1 -3.000000
68 2 735.995000 -3095.410000 444.896000 1 1.000000 1 -3.000000
69 2 744.385000 -3097.630000 449.668000 1 1.000000 1 -3.000000
70 2 752.033000 -3098.030000 456.032000 1 1.000000 1 -3.000000
71 2 759.686000 -3097.890000 462.082000 1 1.000000 1 -3.000000
72 2 766.851000 -3100.110000 468.549000 1 1.000000 1 -3.000000
73 2 774.323000 -3100.200000 475.032000 1 1.000000 1 -3.000000
74 2 782.424000 -3099.170000 480.412000 1 1.000000 1 -3.000000
75 2 791.461000 -3099.130000 484.906000 1 1.000000 4 -3.000000
76 1 823.354000 -3101.240000 450.315000 1 1.000000 4 0.000000
77 3 793.092000 -3097.850000 433.124000 1 1.000000 4 0.000000
78 2 836.571000 -3102.730000 405.037000 1 1.000000 4 -3.000000
79 2 828.431000 -3102.230000 399.563000 1 1.000000 1 -3.000000
80 2 819.816000 -3100.000000 395.195000 1 1.000000 1 -3.000000
81 2 811.019000 -3101.210000 390.734000 1 1.000000 1 -3.000000
82 2 801.394000 -3100.530000 388.432000 1 1.000000 1 -3.000000
83 2 791.524000 -3099.580000 387.494000 1 1.000000 1 -3.000000
84 2 782.026000 -3098.610000 390.352000 1 1.000000 1 -3.000000
85 2 772.369000 -3097.840000 392.433000 1 1.000000 1 -3.000000
86 2 762.534000 -3096.850000 391.665000 1 1.000000 1 -3.000000
87 2 754.292000 -3092.120000 394.906000 1 1.000000 1 -3.000000
88 2 748.320000 -3085.020000 398.102000 1 1.000000 1 -3.000000
89 2 742.817000 -3078.900000 403.431000 1 1.000000 1 -3.000000
90 2 739.144000 -3070.070000 405.752000 1 1.000000 1 -3.000000
91 2 733.498000 -3061.980000 404.497000 1 1.000000 1 -3.000000
92 2 727.175000 -3054.250000 403.269000 1 1.000000 1 -3.000000
93 2 722.042000 -3045.840000 403.619000 1 1.000000 1 -3.000000
94 2 715.425000 -3038.790000 405.869000 1 1.000000 1 -3.000000
95 2 709.287000 -3031.170000 407.272000 1 1.000000 1 -3.000000
96 2 701.812000 -3024.890000 408.487000 1 1.000000 1 -3.000000
97 2 694.377000 -3020.860000 413.460000 1 1.000000 1 -3.000000
98 2 688.660000 -3012.830000 413.841000 1 1.000000 1 -3.000000
99 2 680.057000 -3008.450000 411.569000 1 1.000000 1 -3.000000
100 2 671.274000 -3003.980000 410.899000 1 1.000000 1 -3.000000
101 2 662.994000 -2998.520000 410.052000 1 1.000000 1 -3.000000
102 2 654.961000 -2995.360000 405.257000 1 1.000000 5 -3.000000
103 1 672.556000 -2955.850000 386.448000 1 1.000000 5 0.000000
104 3 701.117000 -2973.680000 395.451000 1 1.000000 5 0.000000
105 2 707.532000 -2926.650000 374.266000 1 1.000000 5 -3.000000
106 2 715.707000 -2931.630000 376.855000 1 1.000000 1 -3.000000
107 2 722.241000 -2938.950000 377.422000 1 1.000000 1 -3.000000
108 2 729.110000 -2946.050000 378.027000 1 1.000000 1 -3.000000
109 2 736.026000 -2952.240000 381.382000 1 1.000000 1 -3.000000
110 2 741.261000 -2959.300000 386.056000 1 1.000000 1 -3.000000
111 2 750.089000 -2962.200000 389.542000 1 1.000000 1 -3.000000
112 2 758.640000 -2959.470000 393.538000 1 1.000000 1 -3.000000
113 2 767.854000 -2956.120000 395.091000 1 1.000000 1 -3.000000
114 2 776.387000 -2951.580000 397.106000 1 1.000000 1 -3.000000
115 2 785.665000 -2948.880000 399.588000 1 1.000000 1 -3.000000
116 2 795.240000 -2946.990000 401.575000 1 1.000000 1 -3.000000
117 2 800.391000 -2940.750000 407.167000 1 1.000000 1 -3.000000
118 2 803.697000 -2934.130000 413.721000 1 1.000000 1 -3.000000
119 2 807.941000 -2927.760000 420.020000 1 1.000000 1 -3.000000
120 2 812.828000 -2920.460000 424.693000 1 1.000000 1 -3.000000
121 2 816.704000 -2912.990000 429.761000 1 1.000000 1 -3.000000
122 2 820.945000 -2906.110000 435.448000 1 1.000000 1 -3.000000
123 2 825.511000 -2900.660000 442.467000 1 1.000000 1 -3.000000
124 2 829.829000 -2897.190000 450.761000 1 1.000000 1 -3.000000
125 2 835.241000 -2893.660000 458.331000 1 1.000000 1 -3.000000
126 2 840.430000 -2893.720000 466.617000 1 1.000000 1 -3.000000
127 2 845.917000 -2893.970000 474.858000 1 1.000000 1 -3.000000
128 2 852.038000 -2896.040000 482.218000 1 1.000000 1 -3.000000
129 2 854.864000 -2901.930000 489.628000 1 1.000000 6 -3.000000
130 1 809.907000 -2904.830000 503.614000 1 1.000000 6 0.000000
131 3 809.465000 -2877.680000 481.543000 1 1.000000 6 0.000000
132 2 764.360000 -2892.790000 501.970000 1 1.000000 6 -3.000000
133 2 763.580000 -2886.960000 494.084000 1 1.000000 1 -3.000000
134 2 762.160000 -2880.970000 486.321000 1 1.000000 1 -3.000000
135 2 763.669000 -2874.130000 479.360000 1 1.000000 1 -3.000000
136 2 768.107000 -2867.590000 473.469000 1 1.000000 1 -3.000000
137 2 771.416000 -2861.480000 466.596000 1 1.000000 1 -3.000000
138 2 775.136000 -2856.810000 458.694000 1 1.000000 1 -3.000000
139 2 779.156000 -2850.800000 451.948000 1 1.000000 1 -3.000000
140 2 783.549000 -2847.660000 443.695000 1 1.000000 1 -3.000000
141 2 785.991000 -2844.980000 434.529000 1 1.000000 1 -3.000000
142 2 790.347000 -2842.150000 426.066000 1 1.000000 1 -3.000000
143 2 795.003000 -2845.070000 417.954000 1 1.000000 1 -3.000000
144 2 799.936000 -2845.950000 409.439000 1 1.000000 1 -3.000000
145 2 801.835000 -2845.940000 399.696000 1 1.000000 1 -3.000000
146 2 802.394000 -2850.110000 390.780000 1 1.000000 1 -3.000000
147 2 806.947000 -2856.550000 384.562000 1 1.000000 1 -3.000000
148 2 812.922000 -2861.050000 377.968000 1 1.000000 1 -3.000000
149 2 817.806000 -2865.010000 370.276000 1 1.000000 1 -3.000000
150 2 819.213000 -2872.990000 364.532000 1 1.000000 1 -3.000000
151 2 821.693000 -2878.930000 357.047000 1 1.000000 1 -3.000000
152 2 825.155000 -2886.230000 351.212000 1 1.000000 1 -3.000000
153 2 828.345000 -2892.660000 344.474000 1 1.000000 1 -3.000000
154 2 830.439000 -2900.830000 339.405000 1 1.000000 1 -3.000000
155 2 833.135000 -2909.800000 335.949000 1 1.000000 1 -3.000000
156 2 833.027000 -2919.060000 332.355000 1 1.000000 7 -3.000000
157 1 788.310000 -2921.740000 347.200000 1 1.000000 7 0.000000
158 3 796.618000 -2888.110000 352.138000 1 1.000000 7 0.000000
159 2 748.169000 -2903.210000 363.662000 1 1.000000 7 -3.000000
160 2 750.852000 -2894.160000 366.517000 1 1.000000 1 -3.000000
161 2 751.737000 -2884.310000 366.763000 1 1.000000 1 -3.000000
162 2 755.121000 -2875.350000 369.463000 1 1.000000 1 -3.000000
163 2 755.488000 -2865.440000 370.621000 1 1.000000 1 -3.000000
164 2 757.477000 -2855.790000 370.686000 1 1.000000 1 -3.000000
165 2 760.370000 -2847.200000 374.434000 1 1.000000 1 -3.000000
166 2 761.715000 -2838.860000 379.537000 1 1.000000 1 -3.000000
167 2 763.394000 -2831.490000 385.838000 1 1.000000 1 -3.000000
168 2 766.174000 -2825.770000 393.473000 1 1.000000 1 -3.000000
169 2 767.396000 -2817.830000 399.208000 1 1.000000 1 -3.000000
170 2 765.139000 -2813.080000 407.574000 1 1.000000 1 -3.000000
171 2 764.930000 -2807.380000 415.683000 1 1.000000 1 -3.000000
172 2 767.656000 -2802.670000 423.923000 1 1.000000 1 -3.000000
173 2 772.023000 -2797.060000 430.996000 1 1.000000 1 -3.000000
174 2 776.987000 -2795.850000 439.324000 1 1.000000 1 -3.000000
175 2 779.348000 -2792.360000 448.236000 1 1.000000 1 -3.000000
176 2 784.352000 -2789.110000 456.066000 1 1.000000 1 -3.000000
177 2 788.820000 -2789.240000 464.909000 1 1.000000 1 -3.000000
178 2 793.281000 -2795.550000 471.144000 1 1.000000 1 -3.000000
179 2 799.868000 -2802.040000 475.093000 1 1.000000 1 -3.000000
180 2 804.205000 -2808.010000 481.602000 1 1.000000 1 -3.000000
181 2 811.695000 -2814.180000 483.186000 1 1.000000 1 -3.000000
182 2 820.034000 -2815.540000 488.539000 1 1.000000 1 -3.000000
183 2 828.865000 -2815.790000 492.833000 1 1.000000 8 -3.000000
184 1 859.874000 -2784.040000 476.663000 1 1.000000 8 0.000000
185 3 828.815000 -2768.760000 471.194000 1 1.000000 8 0.000000
186 2 871.749000 -2741.730000 459.628000 1 1.000000 8 -3.000000
187 2 862.192000 -2739.330000 461.007000 1 1.000000 1 -3.000000
188 2 853.372000 -2735.120000 462.396000 1 1.000000 1 -3.000000
189 2 848.529000 -2728.950000 468.394000 1 1.000000 1 -3.000000
190 2 842.878000 -2723.840000 474.582000 1 1.000000 1 -3.000000
191 2 839.881000 -2718.640000 482.468000 1 1.000000 1 -3.000000
192 2 835.363000 -2713.320000 489.379000 1 1.000000 1 -3.000000
193 2 830.280000 -2705.190000 491.646000 1 1.000000 1 -3.000000
194 2 827.030000 -2695.810000 492.196000 1 1.000000 1 -3.000000
195 2 823.860000 -2686.550000 493.565000 1 1.000000 1 -3.000000
196 2 819.965000 -2677.600000 495.647000 1 1.000000 1 -3.000000
197 2 813.283000 -2670.280000 497.639000 1 1.000000 1 -3.000000
198 2 806.597000 -2664.880000 502.290000 1 1.000000 1 -3.000000
199 2 798.955000 -2659.590000 505.775000 1 1.000000 1 -3.000000
200 2 793.369000 -2654.700000 512.059000 1 1.000000 1 -3.000000
201 2 787.433000 -2649.880000 518.435000 1 1.000000 1 -3.000000
202 2 781.797000 -2644.540000 524.542000 1 1.000000 1 -3.000000
203 2 776.499000 -2637.530000 528.911000 1 1.000000 1 -3.000000
204 2 772.092000 -2629.040000 531.362000 1 1.000000 1 -3.000000
205 2 771.398000 -2620.520000 536.387000 1 1.000000 1 -3.000000
206 2 769.093000 -2612.420000 541.496000 1 1.000000 1 -3.000000
207 2 769.960000 -2602.990000 544.407000 1 1.000000 1 -3.000000
208 2 769.095000 -2593.240000 545.439000 1 1.000000 1 -3.000000
209 2 768.420000 -2583.430000 546.935000 1 1.000000 1 -3.000000
210 2 764.211000 -2575.000000 549.526000 1 1.000000 9 -3.000000
211 1 726.837000 -2594.310000 570.820000 1 1.000000 9 0.000000
212 3 749.275000 -2621.080000 568.318000 1 1.000000 9 0.000000
213 2 703.212000 -2630.040000 590.618000 1 1.000000 9 -3.000000
214 2 710.578000 -2634.790000 586.032000 1 1.000000 1 -3.000000
215 2 718.907000 -2639.590000 583.843000 1 1.000000 1 -3.000000
216 2 725.298000 -2645.160000 578.668000 1 1.000000 1 -3.000000
217 2 730.389000 -2653.040000 575.458000 1 1.000000 1 -3.000000
218 2 732.902000 -2662.530000 574.692000 1 1.000000 1 -3.000000
219 2 736.616000 -2671.540000 574.321000 1 1.000000 1 -3.000000
220 2 738.754000 -2680.990000 572.425000 1 1.000000 1 -3.000000
221 2 739.839000 -2690.580000 569.964000 1 1.000000 1 -3.000000
222 2 739.502000 -2700.310000 568.566000 1 1.000000 1 -3.000000
223 2 740.290000 -2709.800000 566.265000 1 1.000000 1 -3.000000
224 2 739.005000 -2719.520000 564.560000 1 1.000000 1 -3.000000
225 2 740.013000 -2728.980000 567.275000 1 1.000000 1 -3.000000
226 2 740.062000 -2738.420000 570.234000 1 1.000000 1 -3.000000
227 2 743.530000 -2745.830000 575.757000 1 1.000000 1 -3.000000
228 2 744.708000 -2754.760000 579.876000 1 1.000000 1 -3.000000
229 2 747.149000 -2763.320000 584.345000 1 1.000000 1 -3.000000
230 2 747.723000 -2770.820000 590.632000 1 1.000000 1 -3.000000
231 2 748.492000 -2780.150000 593.454000 1 1.000000 1 -3.000000
232 2 747.555000 -2787.950000 599.453000 1 1.000000 1 -3.000000
233 2 745.898000 -2793.250000 607.642000 1 1.000000 1 -3.000000
234 2 740.982000 -2799.770000 613.111000 1 1.000000 1 -3.000000
235 2 737.054000 -2808.750000 614.492000 1 1.000000 1 -3.000000
236 2 735.753000 -2818.580000 615.568000 1 1.000000 1 -3.000000
237 2 736.600000 -2828.030000 618.608000 1 1.000000 10 -3.000000
238 1 696.699000 -2847.820000 603.198000 1 1.000000 10 0.000000
239 3 699.554000 -2819.060000 583.365000 1 1.000000 10 0.000000
240 2 660.247000 -2851.690000 573.541000 1 1.000000 10 -3.000000
241 2 662.623000 -2845.450000 566.204000 1 1.000000 1 -3.000000
242 2 667.473000 -2839.720000 559.901000 1 1.000000 1 -3.000000
243 2 671.348000 -2832.780000 553.991000 1 1.000000 1 -3.000000
244 2 674.887000 -2826.060000 547.554000 1 1.000000 1 -3.000000
245 2 679.489000 -2822.840000 539.351000 1 1.000000 1 -3.000000
246 2 683.638000 -2818.340000 531.665000 1 1.000000 1 -3.000000
247 2 684.309000 -2810.840000 525.237000 1 1.000000 1 -3.000000
248 2 684.536000 -2802.570000 519.905000 1 1.000000 1 -3.000000
249 2 682.705000 -2792.900000 518.454000 1 1.000000 1 -3.000000
250 2 683.163000 -2783.220000 516.052000 1 1.000000 1 -3.000000
251 2 684.089000 -2773.770000 513.166000 1 1.000000 1 -3.000000
252 2 684.004000 -2764.750000 508.860000 1 1.000000 1 -3.000000
253 2 686.656000 -2755.660000 505.937000 1 1.000000 1 -3.000000
254 2 689.532000 -2746.360000 504.275000 1 1.000000 1 -3.000000
255 2 693.022000 -2737.580000 507.076000 1 1.000000 1 -3.000000
256 2 696.411000 -2728.350000 506.270000 1 1.000000 1 -3.000000
257 2 697.961000 -2719.660000 501.768000 1 1.000000 1 -3.000000
258 2 700.118000 -2711.520000 496.592000 1 1.000000 1 -3.000000
259 2 701.297000 -2703.360000 491.029000 1 1.000000 1 -3.000000
260 2 701.631000 -2694.530000 486.635000 1 1.000000 1 -3.000000
261 2 701.173000 -2684.650000 485.741000 1 1.000000 1 -3.000000
262 2 702.013000 -2675.000000 487.787000 1 1.000000 1 -3.000000
263 2 703.626000 -2666.450000 492.418000 1 1.000000 1 -3.000000
264 2 706.354000 -2658.160000 497.020000 1 1.000000 11 -3.000000
265 1 702.165000 -2664.950000 543.472000 1 1.000000 11 0.000000
266 3 715.091000 -2695.440000 532.205000 1 1.000000 11 0.000000
267 2 706.319000 -2690.200000 583.010000 1 1.000000 11 -3.000000
268 2 705.165000 -2697.990000 577.073000 1 1.000000 1 -3.000000
269 2 701.803000 -2705.160000 571.224000 1 1.000000 1 -3.000000
270 2 694.816000 -2705.850000 564.184000 1 1.000000 1 -3.000000
271 2 687.252000 -2710.270000 559.468000 1 1.000000 1 -3.000000
272 2 680.458000 -2714.830000 553.891000 1 1.000000 1 -3.000000
273 2 672.176000 -2718.630000 549.915000 1 1.000000 1 -3.000000
274 2 665.018000 -2724.630000 546.545000 1 1.000000 1 -3.000000
275 2 656.815000 -2726.340000 541.216000 1 1.000000 1 -3.000000
276 2 649.906000 -2726.790000 534.214000 1 1.000000 1 -3.000000
277 2 644.444000 -2731.070000 527.196000 1 1.000000 1 -3.000000
278 2 640.747000 -2736.060000 519.452000 1 1.000000 1 -3.000000
279 2 637.297000 -2735.450000 510.136000 1 1.000000 1 -3.000000
280 2 635.010000 -2734.130000 500.479000 1 1.000000 1 -3.000000
281 2 630.999000 -2733.540000 491.495000 1 1.000000 1 -3.000000
282 2 627.884000 -2731.000000 482.525000 1 1.000000 1 -3.000000
283 2 625.998000 -2725.970000 474.299000 1 1.000000 1 -3.000000
284 2 626.168000 -2722.680000 464.962000 1 1.000000 1 -3.000000
285 2 624.062000 -2720.770000 455.520000 1 1.000000 1 -3.000000
286 2 621.717000 -2721.330000 445.995000 1 1.000000 1 -3.000000
287 2 620.403000 -2723.150000 436.292000 1 1.000000 1 -3.000000
288 2 620.997000 -2723.590000 426.509000 1 1.000000 1 -3.000000
289 2 624.215000 -2728.640000 418.652000 1 1.000000 1 -3.000000
290 2 624.714000 -2732.180000 409.527000 1 1.000000 1 -3.000000
291 2 620.926000 -2738.960000 403.229000 1 1.000000 12 -3.000000
292 1 620.696000 -2776.430000 432.001000 1 1.000000 12 0.000000
293 3 599.301000 -2753.900000 448.034000 1 1.000000 12 0.000000
294 2 606.911000 -2800.150000 470.297000 1 1.000000 12 -3.000000
295 2 597.984000 -2795.480000 470.400000 1 1.000000 1 -3.000000
296 2 591.087000 -2788.260000 470.486000 1 1.000000 1 -3.000000
297 2 584.683000 -2780.940000 471.393000 1 1.000000 1 -3.000000
298 2 577.753000 -2774.380000 473.042000 1 1.000000 1 -3.000000
299 2 572.577000 -2766.830000 476.557000 1 1.000000 1 -3.000000
300 2 567.893000 -2758.530000 479.441000 1 1.000000 1 -3.000000
301 2 564.760000 -2749.520000 482.143000 1 1.000000 1 -3.000000
302 2 558.647000 -2742.750000 486.012000 1 1.000000 1 -3.000000
303 2 554.860000 -2733.830000 488.284000 1 1.000000 1 -3.000000
304 2 551.473000 -2724.830000 490.433000 1 1.000000 1 -3.000000
305 2 552.419000 -2715.050000 490.270000 1 1.000000 1 -3.000000
306 2 550.968000 -2705.490000 488.256000 1 1.000000 1 -3.000000
307 2 548.632000 -2696.080000 489.627000 1 1.000000 1 -3.000000
308 2 545.462000 -2687.090000 492.157000 1 1.000000 1 -3.000000
309 2 540.748000 -2680.670000 498.128000 1 1.000000 1 -3.000000
310 2 537.724000 -2676.630000 506.724000 1 1.000000 1 -3.000000
311 2 533.928000 -2676.120000 515.840000 1 1.000000 1 -3.000000
312 2 529.641000 -2676.450000 524.830000 1 1.000000 1 -3.000000
313 2 523.918000 -2675.650000 532.923000 1 1.000000 1 -3.000000
314 2 518.563000 -2675.760000 541.256000 1 1.000000 1 -3.000000
315 2 512.236000 -2675.330000 548.905000 1 1.000000 1 -3.000000
316 2 505.857000 -2676.690000 556.274000 1 1.000000 1 -3.000000
317 2 503.098000 -2678.880000 565.535000 1 1.000000 1 -3.000000
318 2 498.635000 -2681.820000 573.914000 1 1.000000 13 -3.000000
319 1 501.815000 -2643.320000 601.021000 1 1.000000 13 0.000000
320 3 516.963000 -2633.400000 571.078000 1 1.000000 13 0.000000
321 2 511.997000 -2597.960000 608.708000 1 1.000000 13 -3.000000
322 2 516.201000 -2601.010000 600.167000 1 1.000000 1 -3.000000
323 2 522.369000 -2603.180000 592.875000 1 1.000000 1 -3.000000
324 2 528.491000 -2607.010000 586.072000 1 1.000000 1 -3.000000
325 2 532.122000 -2611.200000 577.884000 1 1.000000 1 -3.000000
326 2 534.669000 -2615.890000 569.533000 1 1.000000 1 -3.000000
327 2 535.579000 -2617.880000 559.862000 1 1.000000 1 -3.000000
328 2 538.124000 -2620.190000 550.630000 1 1.000000 1 -3.000000
329 2 539.119000 -2620.760000 540.624000 1 1.000000 1 -3.000000
330 2 538.266000 -2623.020000 531.132000 1 1.000000 1 -3.000000
331 2 533.571000 -2621.410000 522.558000 1 1.000000 1 -3.000000
332 2 529.153000 -2618.610000 514.199000 1 1.000000 1 -3.000000
333 2 522.691000 -2614.340000 508.096000 1 1.000000 1 -3.000000
334 2 516.998000 -2607.740000 503.419000 1 1.000000 1 -3.000000
335 2 511.251000 -2600.340000 500.473000 1 1.000000 1 -3.000000
336 2 504.258000 -2593.990000 497.624000 1 1.000000 1 -3.000000
337 2 495.035000 -2590.100000 497.125000 1 1.000000 1 -3.000000
338 2 486.223000 -2585.680000 498.322000 1 1.000000 1 -3.000000
339 2 478.728000 -2580.670000 502.419000 1 1.000000 1 -3.000000
340 2 471.295000 -2574.390000 504.224000 1 1.000000 1 -3.000000
341 2 463.470000 -2570.720000 508.994000 1 1.000000 1 -3.000000
342 2 455.304000 -2569.620000 514.413000 1 1.000000 1 -3.000000
343 2 448.475000 -2568.220000 521.343000 1 1.000000 1 -3.000000
344 2 442.653000 -2570.560000 528.873000 1 1.000000 1 -3.000000
345 2 436.636000 -2575.620000 534.993000 1 1.000000 14 -3.000000
346 1 404.107000 -2593.930000 506.160000 1 1.000000 14 0.000000
347 3 434.266000 -2600.220000 489.472000 1 1.000000 14 0.000000
348 2 390.581000 -2617.850000 467.770000 1 1.000000 14 -3.000000
349 2 398.490000 -2615.820000 462.305000 1 1.000000 1 -3.000000
350 2 406.017000 -2615.180000 456.080000 1 1.000000 1 -3.000000
351 2 414.631000 -2613.530000 451.221000 1 1.000000 1 -3.000000
352 2 422.998000 -2612.180000 446.237000 1 1.000000 1 -3.000000
353 2 428.360000 -2605.900000 440.906000 1 1.000000 1 -3.000000
354 2 434.964000 -2602.480000 434.354000 1 1.000000 1 -3.000000
355 2 441.882000 -2603.570000 427.348000 1 1.000000 1 -3.000000
356 2 448.317000 -2601.840000 420.125000 1 1.000000 1 -3.000000
357 2 455.967000 -2598.730000 414.508000 1 1.000000 1 -3.000000
358 2 461.381000 -2596.490000 406.554000 1 1.000000 1 -3.000000
359 2 468.540000 -2597.890000 399.807000 1 1.000000 1 -3.000000
360 2 475.697000 -2601.710000 393.953000 1 1.000000 1 -3.000000
361 2 482.227000 -2605.170000 387.456000 1 1.000000 1 -3.000000
362 2 486.548000 -2611.860000 381.695000 1 1.000000 1 -3.000000
363 2 493.204000 -2619.050000 380.042000 1 1.000000 1 -3.000000
364 2 498.926000 -2626.890000 381.438000 1 1.000000 1 -3.000000
365 2 505.321000 -2633.930000 384.125000 1 1.000000 1 -3.000000
366 2 511.842000 -2640.700000 387.244000 1 1.000000 1 -3.000000
367 2 519.381000 -2646.800000 389.289000 1 1.000000 1 -3.000000
368 2 526.664000 -2653.440000 389.507000 1 1.000000 1 -3.000000
369 2 532.149000 -2661.560000 390.739000 1 1.000000 1 -3.000000
370 2 537.820000 -2669.630000 391.590000 1 1.000000 1 -3.000000
371 2 543.412000 -2677.090000 388.533000 1 1.000000 1 -3.000000
372 2 548.611000 -2685.440000 387.282000 1 1.000000 15 -3.000000
373 1 578.833000 -2671.180000 420.623000 1 1.000000 15 0.000000
374 3 556.161000 -2644.630000 418.595000 1 1.000000 15 0.000000
375 2 594.531000 -2640.900000 453.163000 1 1.000000 15 -3.000000
376 2 589.224000 -2633.020000 450.459000 1 1.000000 1 -3.000000
377 2 583.252000 -2625.230000 449.551000 1 1.000000 1 -3.000000
378 2 577.203000 -2617.440000 448.327000 1 1.000000 1 -3.000000
379 2 567.875000 -2614.080000 447.702000 1 1.000000 1 -3.000000
380 2 558.075000 -2613.000000 449.702000 1 1.000000 1 -3.000000
381 2 548.678000 -2610.670000 447.766000 1 1.000000 1 -3.000000
382 2 539.402000 -2607.830000 445.584000 1 1.000000 1 -3.000000
383 2 532.063000 -2601.280000 444.923000 1 1.000000 1 -3.000000
384 2 524.798000 -2596.370000 440.487000 1 1.000000 1 -3.000000
385 2 517.979000 -2592.820000 434.270000 1 1.000000 1 -3.000000
386 2 510.283000 -2588.280000 430.030000 1 1.000000 1 -3.000000
387 2 503.481000 -2585.840000 423.085000 1 1.000000 1 -3.000000
388 2 494.780000 -2584.090000 418.707000 1 1.000000 1 -3.000000
389 2 486.044000 -2581.500000 414.897000 1 1.000000 1 -3.000000
390 2 477.521000 -2576.720000 414.563000 1 1.000000 1 -3.000000
391 2 470.259000 -2570.180000 415.810000 1 1.000000 1 -3.000000
392 2 462.339000 -2564.960000 418.295000 1 1.000000 1 -3.000000
393 2 456.500000 -2557.530000 421.010000 1 1.000000 1 -3.000000
394 2 449.372000 -2551.100000 422.838000 1 1.000000 1 -3.000000
395 2 443.066000 -2545.380000 427.876000 1 1.000000 1 -3.000000
396 2 434.043000 -2542.060000 430.326000 1 1.000000 1 -3.000000
397 2 425.165000 -2538.610000 432.851000 1 1.000000 1 -3.000000
398 2 415.789000 -2535.580000 434.834000 1 1.000000 1 -3.000000
399 2 406.249000 -2533.090000 434.054000 1 1.000000 16 -3.000000
400 1 399.684000 -2515.340000 477.243000 1 1.000000 16 0.000000
401 3 434.015000 -2522.480000 476.787000 1 1.000000 16 0.000000
402 2 414.070000 -2502.450000 520.289000 1 1.000000 16 -3.000000
403 2 423.544000 -2502.930000 517.652000 1 1.000000 1 -3.000000
404 2 432.433000 -2500.490000 514.171000 1 1.000000 1 -3.000000
405 2 440.992000 -2495.870000 512.806000 1 1.000000 1 -3.000000
406 2 449.382000 -2490.660000 514.338000 1 1.000000 1 -3.000000
407 2 458.733000 -2491.470000 517.431000 1 1.000000 1 -3.000000
408 2 468.327000 -2491.200000 519.820000 1 1.000000 1 -3.000000
409 2 477.776000 -2492.680000 522.485000 1 1.000000 1 -3.000000
410 2 484.262000 -2495.920000 529.152000 1 1.000000 1 -3.000000
411 2 490.459000 -2497.170000 536.839000 1 1.000000 1 -3.000000
412 2 498.110000 -2500.940000 541.887000 1 1.000000 1 -3.000000
413 2 505.831000 -2505.260000 546.131000 1 1.000000 1 -3.000000
414 2 512.961000 -2509.810000 551.414000 1 1.000000 1 -3.000000
415 2 521.040000 -2514.600000 554.343000 1 1.000000 1 -3.000000
416 2 528.631000 -2514.880000 560.750000 1 1.000000 1 -3.000000
417 2 537.553000 -2517.900000 563.871000 1 1.000000 1 -3.000000
418 2 542.425000 -2523.360000 570.416000 1 1.000000 1 -3.000000
419 2 548.362000 -2525.870000 578.084000 1 1.000000 1 -3.000000
420 2 552.224000 -2531.630000 585.154000 1 1.000000 1 -3.000000
421 2 556.335000 -2534.230000 593.855000 1 1.000000 1 -3.000000
422 2 560.970000 -2533.590000 602.599000 1 1.000000 1 -3.000000
423 2 567.961000 -2532.880000 609.539000 1 1.000000 1 -3.000000
424 2 572.905000 -2536.420000 617.367000 1 1.000000 1 -3.000000
425 2 577.214000 -2542.530000 623.765000 1 1.000000 1 -3.000000
426 2 583.695000 -2547.610000 629.228000 1 1.000000 17 -3.000000
427 1 590.199000 -2587.310000 604.716000 1 1.000000 17 0.000000
428 3 585.625000 -2563.110000 579.818000 1 1.000000 17 0.000000
429 2 595.899000 -2611.760000 564.722000 1 1.000000 17 -3.000000
430 2 590.431000 -2605.530000 559.198000 1 1.000000 1 -3.000000
431 2 586.788000 -2598.740000 552.913000 1 1.000000 1 -3.000000
432 2 585.586000 -2592.970000 545.009000 1 1.000000 1 -3.000000
433 2 584.376000 -2587.210000 537.035000 1 1.000000 1 -3.000000
434 2 582.538000 -2581.630000 529.016000 1 1.000000 1 -3.000000
435 2 578.462000 -2575.420000 522.372000 1 1.000000 1 -3.000000
436 2 573.387000 -2569.390000 516.424000 1 1.000000 1 -3.000000
437 2 568.561000 -2562.750000 510.944000 1 1.000000 1 -3.000000
438 2 562.459000 -2555.510000 508.080000 1 1.000000 1 -3.000000
439 2 559.410000 -2547.220000 503.701000 1 1.000000 1 -3.000000
440 2 557.225000 -2538.380000 499.695000 1 1.000000 1 -3.000000
441 2 555.699000 -2530.060000 494.403000 1 1.000000 1 -3.000000
442 2 555.575000 -2520.910000 490.886000 1 1.000000 1 -3.000000
443 2 555.662000 -2511.590000 487.548000 1 1.000000 1 -3.000000
444 2 555.106000 -2502.480000 483.651000 1 1.000000 1 -3.000000
445 2 556.671000 -2492.880000 481.346000 1 1.000000 1 -3.000000
446 2 556.933000 -2483.140000 479.553000 1 1.000000 1 -3.000000
447 2 556.913000 -2473.420000 478.630000 1 1.000000 1 -3.000000
448 2 557.144000 -2463.820000 476.746000 1 1.000000 1 -3.000000
449 2 554.199000 -2455.400000 472.603000 1 1.000000 1 -3.000000
450 2 549.801000 -2448.660000 466.845000 1 1.000000 1 -3.000000
451 2 545.138000 -2440.130000 464.864000 1 1.000000 1 -3.000000
452 2 541.077000 -2431.150000 465.893000 1 1.000000 1 -3.000000
453 2 539.683000 -2421.500000 464.562000 1 1.000000 18 -3.000000
454 1 492.503000 -2422.690000 463.606000 1 1.000000 18 0.000000
455 3 501.092000 -2451.470000 481.641000 1 1.000000 18 0.000000
456 2 450.706000 -2442.600000 472.579000 1 1.000000 18 -3.000000
457 2 457.651000 -2449.510000 473.522000 1 1.000000 1 -3.000000
458 2 464.420000 -2455.570000 469.735000 1 1.000000 1 -3.000000
459 2 472.149000 -2459.320000 464.921000 1 1.000000 1 -3.000000
460 2 479.503000 -2461.700000 458.670000 1 1.000000 1 -3.000000
461 2 486.630000 -2462.280000 451.706000 1 1.000000 1 -3.000000
462 2 492.499000 -2464.530000 443.984000 1 1.000000 1 -3.000000
463 2 498.590000 -2461.520000 436.826000 1 1.000000 1 -3.000000
464 2 505.175000 -2457.940000 430.453000 1 1.000000 1 -3.000000
465 2 513.871000 -2457.340000 425.889000 1 1.000000 1 -3.000000