LAMMPS data file

4067 atoms
4067 ellipsoids
4516 bonds
8882 angles
0 dihedrals

3 atom types
5 bond types
12 angle types
0 dihedral types

-4631.092947 4670.465898 xlo xhi
-4631.092947 4670.465898 ylo yhi
-4631.092947 4670.465898 zlo zhi

Masses

1 196016.000000
2 1950.000000
3 19500.000000

Atoms

1 2 703.102000 -3290.850000 297.812000 1 1.000000 1 -3.000000
2 2 705.504000 -3282.210000 293.606000 1 1.000000 1 -3.000000
3 2 707.729000 -3272.540000 293.719000 1 1.000000 1 -3.000000
4 2 707.773000 -3263.050000 291.085000 1 1.000000 1 -3.000000
5 2 707.456000 -3253.860000 287.459000 1 1.000000 1 -3.000000
6 2 707.853000 -3244.520000 284.458000 1 1.000000 1 -3.000000
7 2 709.026000 -3234.680000 283.528000 1 1.000000 1 -3.000000
8 2 710.005000 -3224.810000 283.347000 1 1.000000 1 -3.000000
9 2 707.709000 -3215.070000 283.874000 1 1.000000 1 -3.000000
10 2 703.324000 -3206.220000 285.044000 1 1.000000 1 -3.000000
11 2 699.491000 -3197.220000 286.077000 1 1.000000 1 -3.000000
12 2 693.793000 -3189.430000 283.749000 1 1.000000 1 -3.000000
13 2 685.844000 -3184.010000 281.455000 1 1.000000 1 -3.000000
14 2 681.125000 -3176.780000 276.497000 1 1.000000 1 -3.000000
15 2 677.920000 -3168.320000 272.517000 1 1.000000 1 -3.000000
16 2 674.828000 -3161.250000 266.373000 1 1.000000 1 -3.000000
17 2 671.362000 -3155.910000 258.918000 1 1.000000 1 -3.000000
18 2 666.049000 -3150.440000 252.425000 1 1.000000 1 -3.000000
19 2 662.852000 -3145.340000 244.574000 1 1.000000 1 -3.000000
20 2 659.175000 -3141.020000 236.485000 1 1.000000 1 -3.000000
21 2 657.109000 -3134.930000 228.891000 1 1.000000 2 -3.000000
22 1 629.054000 -3109.190000 256.776000 1 1.000000 2 0.000000
23 3 647.412000 -3128.510000 279.320000 1 1.000000 2 0.000000
24 2 612.862000 -3094.780000 298.614000 1 1.000000 2 -3.000000
25 2 615.195000 -3101.120000 305.912000 1 1.000000 1 -3.000000
26 2 620.073000 -3107.990000 311.219000 1 1.000000 1 -3.000000
27 2 622.457000 -3116.140000 316.503000 1 1.000000 1 -3.000000
28 2 624.905000 -3124.430000 321.352000 1 1.000000 1 -3.000000
29 2 627.129000 -3132.370000 326.810000 1 1.000000 1 -3.000000
30 2 631.632000 -3139.170000 332.728000 1 1.000000 1 -3.000000
31 2 636.262000 -3145.730000 338.467000 1 1.000000 1 -3.000000
32 2 641.643000 -3151.510000 344.489000 1 1.000000 1 -3.000000
33 2 648.800000 -3156.320000 349.077000 1 1.000000 1 -3.000000
34 2 655.223000 -3161.610000 354.441000 1 1.000000 1 -3.000000
35 2 658.700000 -3167.750000 361.432000 1 1.000000 1 -3.000000
36 2 661.287000 -3168.910000 370.915000 1 1.000000 1 -3.000000
37 2 665.962000 -3171.810000 379.189000 1 1.000000 1 -3.000000
38 2 670.854000 -3175.120000 387.304000 1 1.000000 1 -3.000000
39 2 674.113000 -3177.680000 396.344000 1 1.000000 1 -3.000000
40 2 678.504000 -3176.590000 405.050000 1 1.000000 1 -3.000000
41 2 684.578000 -3175.410000 412.656000 1 1.000000 1 -3.000000
42 2 689.308000 -3169.670000 419.276000 1 1.000000 1 -3.000000
43 2 695.015000 -3164.270000 425.273000 1 1.000000 1 -3.000000
44 2 701.602000 -3156.960000 424.751000 1 1.000000 1 -3.000000
45 2 709.891000 -3152.140000 422.353000 1 1.000000 1 -3.000000
46 2 717.109000 -3147.550000 417.443000 1 1.000000 1 -3.000000
47 2 723.372000 -3146.720000 409.637000 1 1.000000 1 -3.000000
48 2 732.152000 -3147.510000 405.157000 1 1.000000 3 -3.000000
49 1 708.035000 -3122.430000 373.391000 1 1.000000 3 0.000000
50 3 683.202000 -3132.500000 395.831000 1 1.000000 3 0.000000
51 2 668.914000 -3102.680000 355.972000 1 1.000000 3 -3.000000
52 2 664.823000 -3102.230000 364.938000 1 1.000000 1 -3.000000
53 2 660.583000 -3101.610000 373.819000 1 1.000000 1 -3.000000
54 2 653.813000 -3100.520000 380.987000 1 1.000000 1 -3.000000
55 2 645.667000 -3102.740000 386.129000 1 1.000000 1 -3.000000
56 2 636.417000 -3104.400000 389.071000 1 1.000000 1 -3.000000
57 2 628.070000 -3106.950000 393.934000 1 1.000000 1 -3.000000
58 2 619.539000 -3110.560000 397.043000 1 1.000000 1 -3.000000
59 2 610.453000 -3111.240000 401.342000 1 1.000000 1 -3.000000
60 2 602.579000 -3112.910000 407.114000 1 1.000000 1 -3.000000
61 2 593.932000 -3115.880000 410.893000 1 1.000000 1 -3.000000
62 2 584.453000 -3113.840000 412.902000 1 1.000000 1 -3.000000
63 2 575.040000 -3110.950000 414.655000 1 1.000000 1 -3.000000
64 2 565.341000 -3111.220000 416.028000 1 1.000000 1 -3.000000
65 2 555.945000 -3114.530000 415.626000 1 1.000000 1 -3.000000
66 2 546.575000 -3117.320000 416.660000 1 1.000000 1 -3.000000
67 2 536.913000 -3119.200000 416.955000 1 1.000000 1 -3.000000
68 2 528.113000 -3123.050000 419.029000 1 1.000000 1 -3.000000
69 2 520.987000 -3128.880000 422.620000 1 1.000000 1 -3.000000
70 2 511.872000 -3131.020000 419.206000 1 1.000000 1 -3.000000
71 2 505.351000 -3136.990000 414.629000 1 1.000000 1 -3.000000
72 2 497.886000 -3142.270000 410.856000 1 1.000000 1 -3.000000
73 2 490.186000 -3147.840000 407.767000 1 1.000000 1 -3.000000
74 2 480.565000 -3148.910000 406.555000 1 1.000000 1 -3.000000
75 2 470.884000 -3147.340000 406.862000 1 1.000000 4 -3.000000
76 1 459.160000 -3103.900000 392.789000 1 1.000000 4 0.000000
77 3 493.665000 -3104.740000 387.989000 1 1.000000 4 0.000000
78 2 468.435000 -3061.360000 374.615000 1 1.000000 4 -3.000000
79 2 475.844000 -3060.030000 381.085000 1 1.000000 1 -3.000000
80 2 484.285000 -3057.290000 385.206000 1 1.000000 1 -3.000000
81 2 492.386000 -3055.970000 390.637000 1 1.000000 1 -3.000000
82 2 499.739000 -3053.140000 396.562000 1 1.000000 1 -3.000000
83 2 507.241000 -3049.670000 402.009000 1 1.000000 1 -3.000000
84 2 516.086000 -3045.710000 403.503000 1 1.000000 1 -3.000000
85 2 525.415000 -3044.810000 406.876000 1 1.000000 1 -3.000000
86 2 534.435000 -3047.460000 410.089000 1 1.000000 1 -3.000000
87 2 543.012000 -3047.290000 415.051000 1 1.000000 1 -3.000000
88 2 549.518000 -3048.890000 422.332000 1 1.000000 1 -3.000000
89 2 555.870000 -3052.900000 428.575000 1 1.000000 1 -3.000000
90 2 560.863000 -3057.900000 435.377000 1 1.000000 1 -3.000000
91 2 568.599000 -3061.030000 440.614000 1 1.000000 1 -3.000000
92 2 576.908000 -3061.060000 445.755000 1 1.000000 1 -3.000000
93 2 585.187000 -3061.980000 451.039000 1 1.000000 1 -3.000000
94 2 592.801000 -3065.650000 456.245000 1 1.000000 1 -3.000000
95 2 600.624000 -3068.890000 461.408000 1 1.000000 1 -3.000000
96 2 605.837000 -3075.490000 466.586000 1 1.000000 1 -3.000000
97 2 609.345000 -3082.370000 472.829000 1 1.000000 1 -3.000000
98 2 614.079000 -3089.920000 476.993000 1 1.000000 1 -3.000000
99 2 621.004000 -3096.880000 477.917000 1 1.000000 1 -3.000000
100 2 628.373000 -3102.430000 481.691000 1 1.000000 1 -3.000000
101 2 635.057000 -3109.590000 482.970000 1 1.000000 1 -3.000000
102 2 641.403000 -3117.000000 484.181000 1 1.000000 5 -3.000000
103 1 601.955000 -3142.070000 490.464000 1 1.000000 5 0.000000
104 3 590.680000 -3113.380000 474.056000 1 1.000000 5 0.000000
105 2 555.814000 -3150.300000 484.996000 1 1.000000 5 -3.000000
106 2 552.490000 -3140.920000 486.051000 1 1.000000 1 -3.000000
107 2 552.522000 -3131.010000 487.097000 1 1.000000 1 -3.000000
108 2 551.708000 -3121.290000 488.275000 1 1.000000 1 -3.000000
109 2 551.373000 -3111.550000 486.130000 1 1.000000 1 -3.000000
110 2 554.497000 -3102.320000 487.651000 1 1.000000 1 -3.000000
111 2 556.786000 -3092.650000 488.350000 1 1.000000 1 -3.000000
112 2 558.465000 -3082.860000 488.012000 1 1.000000 1 -3.000000
113 2 556.343000 -3073.140000 488.343000 1 1.000000 1 -3.000000
114 2 556.624000 -3063.130000 487.616000 1 1.000000 1 -3.000000
115 2 559.163000 -3054.210000 484.039000 1 1.000000 1 -3.000000
116 2 563.668000 -3045.510000 482.065000 1 1.000000 1 -3.000000
117 2 567.424000 -3036.510000 480.281000 1 1.000000 1 -3.000000
118 2 574.026000 -3029.240000 478.784000 1 1.000000 1 -3.000000
119 2 580.159000 -3021.410000 478.906000 1 1.000000 1 -3.000000
120 2 586.594000 -3013.950000 478.440000 1 1.000000 1 -3.000000
121 2 588.429000 -3004.520000 476.613000 1 1.000000 1 -3.000000
122 2 587.147000 -2994.790000 476.750000 1 1.000000 1 -3.000000
123 2 588.283000 -2985.500000 479.953000 1 1.000000 1 -3.000000
124 2 587.431000 -2976.310000 483.533000 1 1.000000 1 -3.000000
125 2 587.359000 -2967.510000 487.997000 1 1.000000 1 -3.000000
126 2 587.172000 -2959.470000 493.644000 1 1.000000 1 -3.000000
127 2 587.216000 -2950.030000 496.196000 1 1.000000 1 -3.000000
128 2 587.028000 -2943.500000 503.673000 1 1.000000 1 -3.000000
129 2 585.562000 -2935.320000 509.342000 1 1.000000 6 -3.000000
130 1 622.884000 -2925.500000 536.491000 1 1.000000 6 0.000000
131 3 634.236000 -2951.920000 516.548000 1 1.000000 6 0.000000
132 2 666.922000 -2932.500000 551.764000 1 1.000000 6 -3.000000
133 2 671.781000 -2937.980000 545.054000 1 1.000000 1 -3.000000
134 2 675.906000 -2941.580000 536.726000 1 1.000000 1 -3.000000
135 2 681.542000 -2942.370000 528.640000 1 1.000000 1 -3.000000
136 2 689.472000 -2944.330000 522.814000 1 1.000000 1 -3.000000
137 2 697.971000 -2947.940000 519.107000 1 1.000000 1 -3.000000
138 2 706.177000 -2952.240000 515.536000 1 1.000000 1 -3.000000
139 2 714.467000 -2955.960000 511.802000 1 1.000000 1 -3.000000
140 2 723.584000 -2958.700000 508.905000 1 1.000000 1 -3.000000
141 2 732.398000 -2963.110000 509.842000 1 1.000000 1 -3.000000
142 2 742.098000 -2965.190000 510.460000 1 1.000000 1 -3.000000
143 2 750.749000 -2966.460000 514.872000 1 1.000000 1 -3.000000
144 2 760.340000 -2968.440000 514.953000 1 1.000000 1 -3.000000
145 2 768.079000 -2972.500000 510.085000 1 1.000000 1 -3.000000
146 2 777.145000 -2976.180000 510.107000 1 1.000000 1 -3.000000
147 2 786.662000 -2977.930000 508.242000 1 1.000000 1 -3.000000
148 2 795.838000 -2980.030000 505.366000 1 1.000000 1 -3.000000
149 2 805.322000 -2982.950000 504.262000 1 1.000000 1 -3.000000
150 2 814.451000 -2986.370000 503.284000 1 1.000000 1 -3.000000
151 2 822.097000 -2992.780000 502.092000 1 1.000000 1 -3.000000
152 2 828.911000 -2999.900000 501.008000 1 1.000000 1 -3.000000
153 2 835.230000 -3006.040000 496.455000 1 1.000000 1 -3.000000
154 2 841.112000 -3012.560000 491.938000 1 1.000000 1 -3.000000
155 2 847.125000 -3020.280000 490.607000 1 1.000000 1 -3.000000
156 2 853.337000 -3027.640000 488.221000 1 1.000000 7 -3.000000
157 1 890.963000 -3001.320000 477.138000 1 1.000000 7 0.000000
158 3 868.856000 -2978.310000 491.485000 1 1.000000 7 0.000000
159 2 914.024000 -2960.390000 472.991000 1 1.000000 7 -3.000000
160 2 907.773000 -2955.090000 478.625000 1 1.000000 1 -3.000000
161 2 901.390000 -2947.900000 480.519000 1 1.000000 1 -3.000000
162 2 893.068000 -2942.670000 482.049000 1 1.000000 1 -3.000000
163 2 888.247000 -2935.580000 487.138000 1 1.000000 1 -3.000000
164 2 883.445000 -2929.410000 493.205000 1 1.000000 1 -3.000000
165 2 879.840000 -2921.150000 497.138000 1 1.000000 1 -3.000000
166 2 876.090000 -2912.190000 498.937000 1 1.000000 1 -3.000000
167 2 872.155000 -2903.160000 499.628000 1 1.000000 1 -3.000000
168 2 865.524000 -2895.850000 498.901000 1 1.000000 1 -3.000000
169 2 859.319000 -2888.580000 496.362000 1 1.000000 1 -3.000000
170 2 851.217000 -2883.380000 494.703000 1 1.000000 1 -3.000000
171 2 844.293000 -2879.150000 488.955000 1 1.000000 1 -3.000000
172 2 836.218000 -2877.510000 483.601000 1 1.000000 1 -3.000000
173 2 829.205000 -2877.680000 476.791000 1 1.000000 1 -3.000000
174 2 822.181000 -2876.690000 469.829000 1 1.000000 1 -3.000000
175 2 815.799000 -2877.820000 462.437000 1 1.000000 1 -3.000000
176 2 809.001000 -2879.990000 455.556000 1 1.000000 1 -3.000000
177 2 804.488000 -2883.810000 447.545000 1 1.000000 1 -3.000000
178 2 798.130000 -2890.400000 443.704000 1 1.000000 1 -3.000000
179 2 790.160000 -2896.140000 445.125000 1 1.000000 1 -3.000000
180 2 783.802000 -2903.620000 446.968000 1 1.000000 1 -3.000000
181 2 777.576000 -2911.010000 449.159000 1 1.000000 1 -3.000000
182 2 770.261000 -2916.500000 452.789000 1 1.000000 1 -3.000000
183 2 765.288000 -2924.530000 455.652000 1 1.000000 8 -3.000000
184 1 768.590000 -2910.640000 500.679000 1 1.000000 8 0.000000
185 3 779.232000 -2882.360000 482.905000 1 1.000000 8 0.000000
186 2 779.266000 -2879.900000 534.766000 1 1.000000 8 -3.000000
187 2 783.538000 -2871.800000 530.977000 1 1.000000 1 -3.000000
188 2 787.730000 -2867.780000 523.055000 1 1.000000 1 -3.000000
189 2 792.295000 -2862.920000 515.771000 1 1.000000 1 -3.000000
190 2 797.262000 -2856.080000 510.576000 1 1.000000 1 -3.000000
191 2 797.457000 -2849.940000 502.705000 1 1.000000 1 -3.000000
192 2 796.344000 -2842.360000 496.286000 1 1.000000 1 -3.000000
193 2 794.523000 -2833.360000 492.872000 1 1.000000 1 -3.000000
194 2 789.996000 -2825.790000 488.280000 1 1.000000 1 -3.000000
195 2 784.211000 -2818.150000 485.574000 1 1.000000 1 -3.000000
196 2 780.197000 -2809.460000 483.002000 1 1.000000 1 -3.000000
197 2 774.928000 -2801.010000 483.467000 1 1.000000 1 -3.000000
198 2 767.107000 -2794.960000 484.191000 1 1.000000 1 -3.000000
199 2 760.346000 -2787.650000 483.726000 1 1.000000 1 -3.000000
200 2 754.779000 -2780.320000 487.659000 1 1.000000 1 -3.000000
201 2 749.028000 -2773.060000 491.255000 1 1.000000 1 -3.000000
202 2 744.925000 -2764.060000 492.273000 1 1.000000 1 -3.000000
203 2 740.778000 -2754.930000 492.140000 1 1.000000 1 -3.000000
204 2 741.353000 -2745.970000 487.827000 1 1.000000 1 -3.000000
205 2 742.607000 -2736.280000 486.175000 1 1.000000 1 -3.000000
206 2 739.624000 -2726.960000 484.735000 1 1.000000 1 -3.000000
207 2 732.957000 -2720.010000 482.053000 1 1.000000 1 -3.000000
208 2 726.120000 -2712.780000 481.804000 1 1.000000 1 -3.000000
209 2 721.306000 -2704.250000 482.033000 1 1.000000 1 -3.000000
210 2 716.541000 -2695.700000 483.394000 1 1.000000 9 -3.000000
211 1 739.068000 -2668.720000 451.940000 1 1.000000 9 0.000000
212 3 750.759000 -2700.960000 444.711000 1 1.000000 9 0.000000
213 2 768.244000 -2661.690000 415.599000 1 1.000000 9 -3.000000
214 2 769.466000 -2669.350000 409.433000 1 1.000000 1 -3.000000
215 2 773.941000 -2678.100000 407.847000 1 1.000000 1 -3.000000
216 2 775.932000 -2687.720000 407.243000 1 1.000000 1 -3.000000
217 2 776.513000 -2697.590000 408.269000 1 1.000000 1 -3.000000
218 2 774.260000 -2707.130000 407.867000 1 1.000000 1 -3.000000
219 2 771.438000 -2716.580000 408.516000 1 1.000000 1 -3.000000
220 2 767.909000 -2725.470000 405.783000 1 1.000000 1 -3.000000
221 2 763.519000 -2733.870000 402.858000 1 1.000000 1 -3.000000
222 2 762.212000 -2742.970000 399.043000 1 1.000000 1 -3.000000
223 2 762.330000 -2751.940000 394.695000 1 1.000000 1 -3.000000
224 2 764.676000 -2760.600000 390.539000 1 1.000000 1 -3.000000
225 2 765.996000 -2769.190000 385.640000 1 1.000000 1 -3.000000
226 2 764.100000 -2775.630000 378.459000 1 1.000000 1 -3.000000
227 2 763.862000 -2780.880000 370.203000 1 1.000000 1 -3.000000
228 2 759.744000 -2782.240000 361.271000 1 1.000000 1 -3.000000
229 2 755.058000 -2783.000000 352.643000 1 1.000000 1 -3.000000
230 2 751.902000 -2781.690000 343.507000 1 1.000000 1 -3.000000
231 2 750.696000 -2777.960000 334.435000 1 1.000000 1 -3.000000
232 2 752.320000 -2773.810000 325.655000 1 1.000000 1 -3.000000
233 2 751.925000 -2768.210000 317.427000 1 1.000000 1 -3.000000
234 2 749.335000 -2762.300000 309.796000 1 1.000000 1 -3.000000
235 2 747.695000 -2754.380000 303.946000 1 1.000000 1 -3.000000
236 2 744.785000 -2747.910000 297.081000 1 1.000000 1 -3.000000
237 2 744.780000 -2743.700000 288.097000 1 1.000000 10 -3.000000
238 1 699.807000 -2733.680000 298.263000 1 1.000000 10 0.000000
239 3 709.439000 -2754.590000 324.617000 1 1.000000 10 0.000000
240 2 660.419000 -2737.500000 323.846000 1 1.000000 10 -3.000000
241 2 661.951000 -2740.240000 333.160000 1 1.000000 1 -3.000000
242 2 661.450000 -2746.560000 340.699000 1 1.000000 1 -3.000000
243 2 661.802000 -2754.660000 346.356000 1 1.000000 1 -3.000000
244 2 660.973000 -2762.820000 351.887000 1 1.000000 1 -3.000000
245 2 659.872000 -2770.540000 357.837000 1 1.000000 1 -3.000000
246 2 660.475000 -2777.560000 364.703000 1 1.000000 1 -3.000000
247 2 659.831000 -2783.500000 372.680000 1 1.000000 1 -3.000000
248 2 656.375000 -2788.870000 380.151000 1 1.000000 1 -3.000000
249 2 654.221000 -2794.490000 388.020000 1 1.000000 1 -3.000000
250 2 652.116000 -2799.820000 395.911000 1 1.000000 1 -3.000000
251 2 652.197000 -2804.870000 404.428000 1 1.000000 1 -3.000000
252 2 653.353000 -2808.470000 413.602000 1 1.000000 1 -3.000000
253 2 657.059000 -2808.450000 422.776000 1 1.000000 1 -3.000000
254 2 659.832000 -2807.510000 432.230000 1 1.000000 1 -3.000000
255 2 662.137000 -2810.900000 441.199000 1 1.000000 1 -3.000000
256 2 661.883000 -2812.890000 450.946000 1 1.000000 1 -3.000000
257 2 663.005000 -2814.240000 460.623000 1 1.000000 1 -3.000000
258 2 665.358000 -2816.110000 469.970000 1 1.000000 1 -3.000000
259 2 671.578000 -2818.550000 477.340000 1 1.000000 1 -3.000000
260 2 679.086000 -2819.900000 483.617000 1 1.000000 1 -3.000000
261 2 686.884000 -2817.830000 489.363000 1 1.000000 1 -3.000000
262 2 694.861000 -2818.080000 495.328000 1 1.000000 1 -3.000000
263 2 703.585000 -2816.090000 499.633000 1 1.000000 1 -3.000000
264 2 711.591000 -2814.320000 505.146000 1 1.000000 11 -3.000000
265 1 729.900000 -2791.670000 468.039000 1 1.000000 11 0.000000
266 3 695.674000 -2785.370000 465.185000 1 1.000000 11 0.000000
267 2 727.052000 -2764.030000 429.829000 1 1.000000 11 -3.000000
268 2 717.996000 -2761.330000 432.497000 1 1.000000 1 -3.000000
269 2 709.515000 -2756.390000 433.939000 1 1.000000 1 -3.000000
270 2 701.209000 -2751.760000 436.934000 1 1.000000 1 -3.000000
271 2 692.352000 -2750.700000 440.817000 1 1.000000 1 -3.000000
272 2 684.594000 -2746.580000 445.678000 1 1.000000 1 -3.000000
273 2 680.000000 -2743.760000 453.895000 1 1.000000 1 -3.000000
274 2 675.246000 -2742.120000 462.437000 1 1.000000 1 -3.000000
275 2 671.433000 -2742.110000 471.583000 1 1.000000 1 -3.000000
276 2 668.462000 -2742.690000 481.053000 1 1.000000 1 -3.000000
277 2 666.235000 -2738.270000 489.573000 1 1.000000 1 -3.000000
278 2 667.668000 -2731.780000 496.892000 1 1.000000 1 -3.000000
279 2 667.380000 -2726.620000 505.226000 1 1.000000 1 -3.000000
280 2 671.740000 -2723.570000 513.547000 1 1.000000 1 -3.000000
281 2 675.935000 -2723.720000 522.488000 1 1.000000 1 -3.000000
282 2 680.735000 -2724.770000 531.030000 1 1.000000 1 -3.000000
283 2 686.348000 -2725.340000 539.202000 1 1.000000 1 -3.000000
284 2 689.740000 -2727.780000 548.179000 1 1.000000 1 -3.000000
285 2 696.157000 -2728.700000 555.516000 1 1.000000 1 -3.000000
286 2 702.138000 -2726.880000 563.186000 1 1.000000 1 -3.000000
287 2 707.738000 -2727.800000 571.317000 1 1.000000 1 -3.000000
288 2 713.584000 -2730.580000 578.811000 1 1.000000 1 -3.000000
289 2 716.818000 -2730.590000 588.227000 1 1.000000 1 -3.000000
290 2 720.433000 -2730.420000 597.575000 1 1.000000 1 -3.000000
291 2 722.911000 -2730.170000 607.199000 1 1.000000 12 -3.000000
292 1 702.083000 -2688.700000 616.016000 1 1.000000 12 0.000000
293 3 679.846000 -2704.360000 593.951000 1 1.000000 12 0.000000
294 2 669.486000 -2655.440000 608.538000 1 1.000000 12 -3.000000
295 2 663.500000 -2661.640000 603.878000 1 1.000000 1 -3.000000
296 2 657.645000 -2668.320000 599.436000 1 1.000000 1 -3.000000
297 2 652.718000 -2675.820000 595.396000 1 1.000000 1 -3.000000
298 2 649.889000 -2684.190000 591.027000 1 1.000000 1 -3.000000
299 2 649.835000 -2693.910000 589.721000 1 1.000000 1 -3.000000
300 2 652.532000 -2703.410000 590.941000 1 1.000000 1 -3.000000
301 2 655.628000 -2712.850000 592.120000 1 1.000000 1 -3.000000
302 2 655.832000 -2722.690000 591.018000 1 1.000000 1 -3.000000
303 2 660.070000 -2731.280000 588.679000 1 1.000000 1 -3.000000
304 2 666.613000 -2738.660000 589.815000 1 1.000000 1 -3.000000
305 2 672.367000 -2746.320000 591.911000 1 1.000000 1 -3.000000
306 2 675.162000 -2755.450000 594.786000 1 1.000000 1 -3.000000
307 2 676.984000 -2764.690000 597.605000 1 1.000000 1 -3.000000
308 2 675.443000 -2773.160000 602.298000 1 1.000000 1 -3.000000
309 2 670.403000 -2779.250000 608.367000 1 1.000000 1 -3.000000
310 2 666.762000 -2783.080000 616.779000 1 1.000000 1 -3.000000
311 2 663.196000 -2788.500000 624.332000 1 1.000000 1 -3.000000
312 2 659.911000 -2794.590000 631.504000 1 1.000000 1 -3.000000
313 2 653.510000 -2800.220000 636.285000 1 1.000000 1 -3.000000
314 2 646.471000 -2806.000000 640.065000 1 1.000000 1 -3.000000
315 2 644.128000 -2813.780000 645.846000 1 1.000000 1 -3.000000
316 2 643.302000 -2822.220000 650.886000 1 1.000000 1 -3.000000
317 2 643.430000 -2829.380000 657.647000 1 1.000000 1 -3.000000
318 2 643.045000 -2838.220000 661.931000 1 1.000000 13 -3.000000
319 1 617.798000 -2823.970000 699.158000 1 1.000000 13 0.000000
320 3 618.260000 -2795.790000 678.445000 1 1.000000 13 0.000000
321 2 592.066000 -2792.610000 723.284000 1 1.000000 13 -3.000000
322 2 591.967000 -2785.640000 716.287000 1 1.000000 1 -3.000000
323 2 592.549000 -2779.720000 708.378000 1 1.000000 1 -3.000000
324 2 589.390000 -2772.810000 702.033000 1 1.000000 1 -3.000000
325 2 589.139000 -2767.340000 693.860000 1 1.000000 1 -3.000000
326 2 586.796000 -2762.580000 685.383000 1 1.000000 1 -3.000000
327 2 584.076000 -2759.450000 676.304000 1 1.000000 1 -3.000000
328 2 584.147000 -2754.310000 667.827000 1 1.000000 1 -3.000000
329 2 582.254000 -2747.850000 660.612000 1 1.000000 1 -3.000000
330 2 581.528000 -2738.890000 656.219000 1 1.000000 1 -3.000000
331 2 581.269000 -2729.800000 652.308000 1 1.000000 1 -3.000000
332 2 581.028000 -2722.340000 645.759000 1 1.000000 1 -3.000000
333 2 583.009000 -2713.970000 640.988000 1 1.000000 1 -3.000000
334 2 585.943000 -2704.830000 638.476000 1 1.000000 1 -3.000000
335 2 592.041000 -2697.140000 637.081000 1 1.000000 1 -3.000000
336 2 600.160000 -2691.830000 638.690000 1 1.000000 1 -3.000000
337 2 607.887000 -2685.640000 638.164000 1 1.000000 1 -3.000000
338 2 616.758000 -2681.380000 638.447000 1 1.000000 1 -3.000000
339 2 625.198000 -2677.460000 641.719000 1 1.000000 1 -3.000000
340 2 630.474000 -2672.960000 648.783000 1 1.000000 1 -3.000000
341 2 636.693000 -2666.900000 653.453000 1 1.000000 1 -3.000000
342 2 643.469000 -2659.910000 655.565000 1 1.000000 1 -3.000000
343 2 650.678000 -2653.380000 657.094000 1 1.000000 1 -3.000000
344 2 658.513000 -2647.470000 658.523000 1 1.000000 1 -3.000000
345 2 664.182000 -2639.490000 658.332000 1 1.000000 14 -3.000000
346 1 631.934000 -2605.530000 652.662000 1 1.000000 14 0.000000
347 3 613.474000 -2635.050000 648.588000 1 1.000000 14 0.000000
348 2 588.944000 -2589.890000 640.941000 1 1.000000 14 -3.000000
349 2 584.679000 -2596.190000 634.612000 1 1.000000 1 -3.000000
350 2 579.908000 -2601.190000 627.491000 1 1.000000 1 -3.000000
351 2 573.707000 -2604.920000 620.822000 1 1.000000 1 -3.000000
352 2 567.412000 -2611.060000 616.107000 1 1.000000 1 -3.000000
353 2 561.605000 -2617.770000 611.544000 1 1.000000 1 -3.000000
354 2 554.824000 -2623.910000 607.622000 1 1.000000 1 -3.000000
355 2 546.929000 -2629.640000 606.337000 1 1.000000 1 -3.000000
356 2 537.660000 -2633.140000 605.694000 1 1.000000 1 -3.000000
357 2 529.658000 -2638.600000 607.413000 1 1.000000 1 -3.000000
358 2 520.151000 -2640.900000 609.065000 1 1.000000 1 -3.000000
359 2 511.684000 -2646.150000 608.567000 1 1.000000 1 -3.000000
360 2 503.635000 -2651.690000 607.770000 1 1.000000 1 -3.000000
361 2 496.152000 -2658.060000 608.734000 1 1.000000 1 -3.000000
362 2 489.882000 -2664.700000 612.465000 1 1.000000 1 -3.000000
363 2 482.001000 -2668.790000 616.862000 1 1.000000 1 -3.000000
364 2 476.588000 -2673.880000 623.396000 1 1.000000 1 -3.000000
365 2 472.072000 -2679.090000 630.537000 1 1.000000 1 -3.000000
366 2 468.216000 -2685.900000 636.681000 1 1.000000 1 -3.000000
367 2 467.867000 -2694.920000 640.379000 1 1.000000 1 -3.000000
368 2 466.578000 -2704.590000 642.282000 1 1.000000 1 -3.000000
369 2 466.720000 -2714.210000 644.524000 1 1.000000 1 -3.000000
370 2 462.670000 -2722.610000 648.335000 1 1.000000 1 -3.000000
371 2 459.843000 -2729.270000 655.196000 1 1.000000 1 -3.000000
372 2 454.450000 -2734.470000 661.647000 1 1.000000 15 -3.000000
373 1 423.412000 -2705.430000 641.221000 1 1.000000 15 0.000000
374 3 449.316000 -2707.280000 617.758000 1 1.000000 15 0.000000
375 2 407.194000 -2679.810000 604.927000 1 1.000000 15 -3.000000
376 2 414.691000 -2681.350000 598.441000 1 1.000000 1 -3.000000
377 2 419.885000 -2681.630000 590.043000 1 1.000000 1 -3.000000
378 2 426.972000 -2680.530000 583.166000 1 1.000000 1 -3.000000
379 2 431.267000 -2678.630000 574.353000 1 1.000000 1 -3.000000
380 2 437.216000 -2677.490000 566.583000 1 1.000000 1 -3.000000
381 2 441.000000 -2676.020000 557.564000 1 1.000000 1 -3.000000
382 2 439.409000 -2672.750000 548.299000 1 1.000000 1 -3.000000
383 2 435.961000 -2665.810000 542.155000 1 1.000000 1 -3.000000
384 2 438.140000 -2658.460000 535.899000 1 1.000000 1 -3.000000
385 2 443.656000 -2652.550000 530.039000 1 1.000000 1 -3.000000
386 2 450.082000 -2649.050000 523.408000 1 1.000000 1 -3.000000
387 2 456.658000 -2646.980000 516.326000 1 1.000000 1 -3.000000
388 2 464.324000 -2645.020000 510.439000 1 1.000000 1 -3.000000
389 2 470.698000 -2641.000000 503.919000 1 1.000000 1 -3.000000
390 2 478.996000 -2637.420000 499.715000 1 1.000000 1 -3.000000
391 2 488.109000 -2635.590000 496.239000 1 1.000000 1 -3.000000
392 2 496.580000 -2636.400000 491.439000 1 1.000000 1 -3.000000
393 2 505.201000 -2634.960000 486.908000 1 1.000000 1 -3.000000
394 2 513.896000 -2631.240000 484.026000 1 1.000000 1 -3.000000
395 2 523.253000 -2629.690000 481.262000 1 1.000000 1 -3.000000
396 2 531.968000 -2625.670000 478.822000 1 1.000000 1 -3.000000
397 2 540.718000 -2621.640000 476.788000 1 1.000000 1 -3.000000
398 2 550.320000 -2619.430000 476.663000 1 1.000000 1 -3.000000
399 2 560.164000 -2619.760000 475.806000 1 1.000000 16 -3.000000
400 1 564.059000 -2639.920000 433.399000 1 1.000000 16 0.000000
401 3 529.614000 -2640.800000 439.559000 1 1.000000 16 0.000000
402 2 546.686000 -2660.220000 394.403000 1 1.000000 16 -3.000000
403 2 537.587000 -2656.990000 396.381000 1 1.000000 1 -3.000000
404 2 528.347000 -2654.910000 399.571000 1 1.000000 1 -3.000000
405 2 518.570000 -2653.830000 400.707000 1 1.000000 1 -3.000000
406 2 509.392000 -2652.130000 404.187000 1 1.000000 1 -3.000000
407 2 500.993000 -2650.180000 408.991000 1 1.000000 1 -3.000000
408 2 493.691000 -2645.550000 413.542000 1 1.000000 1 -3.000000
409 2 485.539000 -2640.200000 411.788000 1 1.000000 1 -3.000000
410 2 478.732000 -2635.020000 406.934000 1 1.000000 1 -3.000000
411 2 473.130000 -2628.760000 401.675000 1 1.000000 1 -3.000000
412 2 464.875000 -2623.790000 399.112000 1 1.000000 1 -3.000000
413 2 456.240000 -2619.400000 397.049000 1 1.000000 1 -3.000000
414 2 449.141000 -2614.460000 392.103000 1 1.000000 1 -3.000000
415 2 442.391000 -2609.240000 386.914000 1 1.000000 1 -3.000000
416 2 435.963000 -2605.770000 380.076000 1 1.000000 1 -3.000000
417 2 430.719000 -2603.170000 372.034000 1 1.000000 1 -3.000000
418 2 423.896000 -2604.640000 365.113000 1 1.000000 1 -3.000000
419 2 418.610000 -2602.940000 356.886000 1 1.000000 1 -3.000000
420 2 413.752000 -2603.240000 348.332000 1 1.000000 1 -3.000000
421 2 410.857000 -2605.150000 339.101000 1 1.000000 1 -3.000000
422 2 413.859000 -2609.440000 330.671000 1 1.000000 1 -3.000000
423 2 416.538000 -2611.160000 321.355000 1 1.000000 1 -3.000000
424 2 414.570000 -2615.260000 312.470000 1 1.000000 1 -3.000000
425 2 413.879000 -2623.850000 307.307000 1 1.000000 1 -3.000000
426 2 413.180000 -2632.230000 302.344000 1 1.000000 17 -3.000000
427 1 439.216000 -2612.810000 268.154000 1 1.000000 17 0.000000
428 3 428.312000 -2585.090000 286.601000 1 1.000000 17 0.000000
429 2 460.778000 -2576.550000 247.030000 1 1.000000 17 -3.000000
430 2 457.361000 -2571.700000 255.031000 1 1.000000 1 -3.000000
431 2 453.520000 -2566.730000 262.589000 1 1.000000 1 -3.000000
432 2 452.502000 -2561.460000 270.820000 1 1.000000 1 -3.000000
433 2 452.421000 -2555.980000 279.082000 1 1.000000 1 -3.000000
434 2 452.746000 -2551.670000 288.062000 1 1.000000 1 -3.000000
435 2 455.093000 -2551.340000 297.619000 1 1.000000 1 -3.000000
436 2 457.248000 -2551.480000 307.346000 1 1.000000 1 -3.000000
437 2 461.448000 -2554.570000 315.638000 1 1.000000 1 -3.000000
438 2 464.832000 -2559.630000 323.381000 1 1.000000 1 -3.000000
439 2 467.307000 -2564.060000 331.878000 1 1.000000 1 -3.000000
440 2 468.558000 -2566.410000 341.302000 1 1.000000 1 -3.000000
441 2 472.768000 -2566.310000 350.261000 1 1.000000 1 -3.000000
442 2 474.496000 -2567.790000 359.784000 1 1.000000 1 -3.000000
443 2 475.641000 -2570.440000 369.180000 1 1.000000 1 -3.000000
444 2 476.452000 -2573.610000 378.671000 1 1.000000 1 -3.000000
445 2 479.643000 -2576.510000 387.642000 1 1.000000 1 -3.000000
446 2 483.479000 -2578.570000 396.542000 1 1.000000 1 -3.000000
447 2 491.469000 -2578.930000 402.531000 1 1.000000 1 -3.000000
448 2 499.616000 -2578.940000 408.047000 1 1.000000 1 -3.000000
449 2 506.263000 -2581.460000 414.908000 1 1.000000 1 -3.000000
450 2 511.157000 -2585.140000 422.567000 1 1.000000 1 -3.000000
451 2 516.156000 -2588.390000 430.651000 1 1.000000 1 -3.000000
452 2 522.533000 -2592.320000 437.043000 1 1.000000 1 -3.000000
453 2 530.811000 -2595.910000 441.283000 1 1.000000 18 -3.000000
454 1 562.497000 -2566.700000 421.973000 1 1.000000 18 0.000000
455 3 531.842000 -2552.150000 413.266000 1 1.000000 18 0.000000
456 2 575.206000 -2528.330000 397.498000 1 1.000000 18 -3.000000
457 2 566.409000 -2524.420000 395.090000 1 1.000000 1 -3.000000
458 2 557.519000 -2520.540000 393.025000 1 1.000000 1 -3.000000
459 2 548.654000 -2516.300000 393.300000 1 1.000000 1 -3.000000
460 2 540.870000 -2510.810000 395.980000 1 1.000000 1 -3.000000
461 2 531.849000 -2508.800000 399.688000 1 1.000000 1 -3.000000
462 2 523.284000 -2506.570000 404.151000 1 1.000000 1 -3.000000
463 2 513.825000 -2509.510000 405.523000 1 1.000000 1 -3.000000
464 2 504.341000 -2510.260000 408.384000 1 1.000000 1 -3.000000
465 2 494.761000 -2509.240000 410.617000 1 1.000000 1 -3.000000