LAMMPS data file

4067 atoms
4067 ellipsoids
4516 bonds
8882 angles
0 dihedrals

3 atom types
5 bond types
12 angle types
0 dihedral types

-4631.092947 4670.465898 xlo xhi
-4631.092947 4670.465898 ylo yhi
-4631.092947 4670.465898 zlo zhi

Masses

1 196016.000000
2 1950.000000
3 19500.000000

Atoms

1 2 727.929000 -3280.510000 886.698000 1 1.000000 1 -3.000000
2 2 717.963000 -3280.620000 886.983000 1 1.000000 1 -3.000000
3 2 708.250000 -3279.980000 886.225000 1 1.000000 1 -3.000000
4 2 700.513000 -3281.850000 880.418000 1 1.000000 1 -3.000000
5 2 697.066000 -3283.790000 871.266000 1 1.000000 1 -3.000000
6 2 690.207000 -3283.400000 864.115000 1 1.000000 1 -3.000000
7 2 684.634000 -3285.870000 856.302000 1 1.000000 1 -3.000000
8 2 680.621000 -3290.520000 848.549000 1 1.000000 1 -3.000000
9 2 680.025000 -3292.640000 838.886000 1 1.000000 1 -3.000000
10 2 677.529000 -3294.220000 829.320000 1 1.000000 1 -3.000000
11 2 675.818000 -3296.730000 819.961000 1 1.000000 1 -3.000000
12 2 672.635000 -3298.730000 810.721000 1 1.000000 1 -3.000000
13 2 669.272000 -3302.130000 802.099000 1 1.000000 1 -3.000000
14 2 668.309000 -3306.920000 793.358000 1 1.000000 1 -3.000000
15 2 664.738000 -3312.780000 786.171000 1 1.000000 1 -3.000000
16 2 658.448000 -3319.790000 783.326000 1 1.000000 1 -3.000000
17 2 653.360000 -3326.900000 778.652000 1 1.000000 1 -3.000000
18 2 646.787000 -3330.610000 772.208000 1 1.000000 1 -3.000000
19 2 638.839000 -3335.010000 768.544000 1 1.000000 1 -3.000000
20 2 632.519000 -3337.700000 761.338000 1 1.000000 1 -3.000000
21 2 625.743000 -3343.280000 756.993000 1 1.000000 2 -3.000000
22 1 592.866000 -3309.680000 752.761000 1 1.000000 2 0.000000
23 3 622.613000 -3291.360000 755.458000 1 1.000000 2 0.000000
24 2 578.085000 -3264.960000 752.309000 1 1.000000 2 -3.000000
25 2 587.753000 -3262.810000 752.162000 1 1.000000 1 -3.000000
26 2 595.893000 -3260.470000 746.862000 1 1.000000 1 -3.000000
27 2 602.724000 -3256.430000 741.130000 1 1.000000 1 -3.000000
28 2 609.764000 -3251.460000 736.248000 1 1.000000 1 -3.000000
29 2 614.967000 -3244.290000 732.019000 1 1.000000 1 -3.000000
30 2 621.075000 -3238.520000 726.843000 1 1.000000 1 -3.000000
31 2 628.318000 -3232.330000 723.901000 1 1.000000 1 -3.000000
32 2 635.422000 -3225.750000 721.567000 1 1.000000 1 -3.000000
33 2 640.985000 -3217.580000 720.311000 1 1.000000 1 -3.000000
34 2 646.482000 -3209.440000 721.546000 1 1.000000 1 -3.000000
35 2 652.225000 -3201.520000 723.338000 1 1.000000 1 -3.000000
36 2 658.072000 -3193.870000 725.517000 1 1.000000 1 -3.000000
37 2 661.805000 -3185.420000 722.111000 1 1.000000 1 -3.000000
38 2 667.605000 -3177.430000 721.067000 1 1.000000 1 -3.000000
39 2 673.066000 -3170.130000 717.318000 1 1.000000 1 -3.000000
40 2 678.329000 -3162.600000 713.383000 1 1.000000 1 -3.000000
41 2 681.300000 -3153.220000 711.852000 1 1.000000 1 -3.000000
42 2 686.409000 -3145.760000 707.851000 1 1.000000 1 -3.000000
43 2 694.346000 -3140.500000 705.479000 1 1.000000 1 -3.000000
44 2 703.486000 -3136.650000 704.326000 1 1.000000 1 -3.000000
45 2 711.346000 -3134.170000 698.822000 1 1.000000 1 -3.000000
46 2 719.365000 -3131.590000 693.788000 1 1.000000 1 -3.000000
47 2 726.292000 -3128.050000 687.531000 1 1.000000 1 -3.000000
48 2 734.918000 -3125.090000 683.751000 1 1.000000 3 -3.000000
49 1 748.966000 -3169.910000 679.804000 1 1.000000 3 0.000000
50 3 717.653000 -3172.800000 694.969000 1 1.000000 3 0.000000
51 2 742.411000 -3216.640000 682.345000 1 1.000000 3 -3.000000
52 2 732.507000 -3217.070000 683.291000 1 1.000000 1 -3.000000
53 2 722.921000 -3219.250000 682.301000 1 1.000000 1 -3.000000
54 2 713.381000 -3217.030000 684.066000 1 1.000000 1 -3.000000
55 2 704.427000 -3214.770000 687.650000 1 1.000000 1 -3.000000
56 2 697.100000 -3211.200000 693.385000 1 1.000000 1 -3.000000
57 2 689.227000 -3207.400000 698.038000 1 1.000000 1 -3.000000
58 2 681.390000 -3201.580000 695.944000 1 1.000000 1 -3.000000
59 2 672.942000 -3198.060000 692.111000 1 1.000000 1 -3.000000
60 2 667.284000 -3192.050000 686.778000 1 1.000000 1 -3.000000
61 2 660.793000 -3187.240000 681.069000 1 1.000000 1 -3.000000
62 2 656.621000 -3180.890000 674.725000 1 1.000000 1 -3.000000
63 2 653.591000 -3174.960000 667.404000 1 1.000000 1 -3.000000
64 2 647.730000 -3171.990000 659.959000 1 1.000000 1 -3.000000
65 2 641.441000 -3169.020000 652.898000 1 1.000000 1 -3.000000
66 2 637.180000 -3168.980000 643.825000 1 1.000000 1 -3.000000
67 2 631.572000 -3168.500000 635.707000 1 1.000000 1 -3.000000
68 2 621.961000 -3168.840000 633.298000 1 1.000000 1 -3.000000
69 2 612.237000 -3171.040000 632.481000 1 1.000000 1 -3.000000
70 2 602.416000 -3171.570000 632.298000 1 1.000000 1 -3.000000
71 2 592.778000 -3172.930000 633.790000 1 1.000000 1 -3.000000
72 2 583.135000 -3173.470000 635.445000 1 1.000000 1 -3.000000
73 2 573.424000 -3173.660000 636.971000 1 1.000000 1 -3.000000
74 2 563.904000 -3175.840000 638.351000 1 1.000000 1 -3.000000
75 2 554.190000 -3175.420000 640.348000 1 1.000000 4 -3.000000
76 1 535.355000 -3147.150000 607.571000 1 1.000000 4 0.000000
77 3 564.985000 -3158.110000 592.618000 1 1.000000 4 0.000000
78 2 537.276000 -3121.660000 567.870000 1 1.000000 4 -3.000000
79 2 546.474000 -3124.830000 566.216000 1 1.000000 1 -3.000000
80 2 555.509000 -3126.910000 562.643000 1 1.000000 1 -3.000000
81 2 563.467000 -3131.550000 558.935000 1 1.000000 1 -3.000000
82 2 570.642000 -3134.800000 552.941000 1 1.000000 1 -3.000000
83 2 575.347000 -3138.850000 545.288000 1 1.000000 1 -3.000000
84 2 581.583000 -3142.440000 538.365000 1 1.000000 1 -3.000000
85 2 588.107000 -3147.850000 533.435000 1 1.000000 1 -3.000000
86 2 595.544000 -3153.310000 530.037000 1 1.000000 1 -3.000000
87 2 604.778000 -3156.660000 529.103000 1 1.000000 1 -3.000000
88 2 612.261000 -3162.950000 528.477000 1 1.000000 1 -3.000000
89 2 619.820000 -3169.080000 527.818000 1 1.000000 1 -3.000000
90 2 626.276000 -3176.530000 526.782000 1 1.000000 1 -3.000000
91 2 634.467000 -3181.540000 524.806000 1 1.000000 1 -3.000000
92 2 643.070000 -3186.530000 525.543000 1 1.000000 1 -3.000000
93 2 648.787000 -3194.620000 526.570000 1 1.000000 1 -3.000000
94 2 654.557000 -3202.600000 527.659000 1 1.000000 1 -3.000000
95 2 659.094000 -3211.420000 528.742000 1 1.000000 1 -3.000000
96 2 663.160000 -3220.480000 528.863000 1 1.000000 1 -3.000000
97 2 663.821000 -3230.230000 528.649000 1 1.000000 1 -3.000000
98 2 665.814000 -3239.890000 529.740000 1 1.000000 1 -3.000000
99 2 663.313000 -3247.720000 535.283000 1 1.000000 1 -3.000000
100 2 659.251000 -3256.670000 535.467000 1 1.000000 1 -3.000000
101 2 654.564000 -3265.360000 536.356000 1 1.000000 1 -3.000000
102 2 651.015000 -3274.580000 535.261000 1 1.000000 5 -3.000000
103 1 609.692000 -3268.620000 513.267000 1 1.000000 5 0.000000
104 3 625.436000 -3237.700000 509.363000 1 1.000000 5 0.000000
105 2 578.600000 -3244.210000 487.539000 1 1.000000 5 -3.000000
106 2 584.405000 -3236.310000 485.818000 1 1.000000 1 -3.000000
107 2 589.633000 -3227.930000 485.124000 1 1.000000 1 -3.000000
108 2 595.494000 -3220.120000 483.164000 1 1.000000 1 -3.000000
109 2 602.366000 -3214.170000 479.094000 1 1.000000 1 -3.000000
110 2 610.172000 -3208.120000 480.530000 1 1.000000 1 -3.000000
111 2 618.914000 -3203.500000 481.832000 1 1.000000 1 -3.000000
112 2 627.696000 -3198.950000 481.912000 1 1.000000 1 -3.000000
113 2 636.413000 -3194.860000 479.755000 1 1.000000 1 -3.000000
114 2 644.858000 -3189.930000 479.074000 1 1.000000 1 -3.000000
115 2 650.514000 -3182.480000 475.842000 1 1.000000 1 -3.000000
116 2 655.962000 -3174.700000 472.725000 1 1.000000 1 -3.000000
117 2 658.810000 -3165.520000 470.459000 1 1.000000 1 -3.000000
118 2 658.023000 -3156.630000 465.982000 1 1.000000 1 -3.000000
119 2 657.141000 -3148.650000 460.092000 1 1.000000 1 -3.000000
120 2 655.949000 -3139.630000 456.208000 1 1.000000 1 -3.000000
121 2 658.015000 -3130.100000 454.769000 1 1.000000 1 -3.000000
122 2 660.543000 -3121.580000 450.302000 1 1.000000 1 -3.000000
123 2 662.481000 -3113.070000 445.679000 1 1.000000 1 -3.000000
124 2 669.587000 -3106.610000 443.476000 1 1.000000 1 -3.000000
125 2 676.718000 -3099.670000 443.194000 1 1.000000 1 -3.000000
126 2 685.209000 -3094.840000 444.972000 1 1.000000 1 -3.000000
127 2 693.597000 -3092.210000 449.567000 1 1.000000 1 -3.000000
128 2 700.462000 -3088.320000 455.677000 1 1.000000 1 -3.000000
129 2 706.554000 -3084.440000 462.334000 1 1.000000 6 -3.000000
130 1 728.565000 -3119.200000 439.215000 1 1.000000 6 0.000000
131 3 694.973000 -3124.270000 431.105000 1 1.000000 6 0.000000
132 2 729.973000 -3156.230000 409.985000 1 1.000000 6 -3.000000
133 2 721.330000 -3155.710000 405.206000 1 1.000000 1 -3.000000
134 2 711.718000 -3158.140000 404.396000 1 1.000000 1 -3.000000
135 2 702.375000 -3160.850000 403.014000 1 1.000000 1 -3.000000
136 2 693.012000 -3161.890000 405.977000 1 1.000000 1 -3.000000
137 2 683.549000 -3162.880000 408.850000 1 1.000000 1 -3.000000
138 2 674.216000 -3160.600000 411.473000 1 1.000000 1 -3.000000
139 2 665.724000 -3155.820000 413.168000 1 1.000000 1 -3.000000
140 2 659.962000 -3147.830000 412.366000 1 1.000000 1 -3.000000
141 2 653.118000 -3141.030000 414.822000 1 1.000000 1 -3.000000
142 2 646.876000 -3134.140000 417.964000 1 1.000000 1 -3.000000
143 2 642.743000 -3126.050000 421.998000 1 1.000000 1 -3.000000
144 2 636.469000 -3119.050000 425.085000 1 1.000000 1 -3.000000
145 2 633.715000 -3113.430000 432.866000 1 1.000000 1 -3.000000
146 2 634.193000 -3110.610000 442.375000 1 1.000000 1 -3.000000
147 2 636.497000 -3106.690000 451.104000 1 1.000000 1 -3.000000
148 2 638.760000 -3102.490000 459.867000 1 1.000000 1 -3.000000
149 2 640.722000 -3096.530000 467.629000 1 1.000000 1 -3.000000
150 2 640.867000 -3091.080000 475.974000 1 1.000000 1 -3.000000
151 2 641.805000 -3086.610000 484.701000 1 1.000000 1 -3.000000
152 2 640.658000 -3081.610000 493.119000 1 1.000000 1 -3.000000
153 2 639.906000 -3076.320000 501.301000 1 1.000000 1 -3.000000
154 2 641.810000 -3071.100000 509.682000 1 1.000000 1 -3.000000
155 2 642.198000 -3070.050000 519.413000 1 1.000000 1 -3.000000
156 2 644.044000 -3066.960000 528.842000 1 1.000000 7 -3.000000
157 1 674.832000 -3036.240000 510.568000 1 1.000000 7 0.000000
158 3 649.084000 -3036.580000 486.984000 1 1.000000 7 0.000000
159 2 691.056000 -3007.930000 476.436000 1 1.000000 7 -3.000000
160 2 682.103000 -3004.410000 474.183000 1 1.000000 1 -3.000000
161 2 673.118000 -3001.030000 471.734000 1 1.000000 1 -3.000000
162 2 664.019000 -2996.920000 471.714000 1 1.000000 1 -3.000000
163 2 656.320000 -2991.570000 474.665000 1 1.000000 1 -3.000000
164 2 650.760000 -2984.070000 477.705000 1 1.000000 1 -3.000000
165 2 647.028000 -2974.990000 476.546000 1 1.000000 1 -3.000000
166 2 644.936000 -2965.380000 476.381000 1 1.000000 1 -3.000000
167 2 640.878000 -2956.340000 475.636000 1 1.000000 1 -3.000000
168 2 639.169000 -2946.570000 475.792000 1 1.000000 1 -3.000000
169 2 639.410000 -2936.930000 477.570000 1 1.000000 1 -3.000000
170 2 639.510000 -2927.520000 474.689000 1 1.000000 1 -3.000000
171 2 643.046000 -2918.830000 471.679000 1 1.000000 1 -3.000000
172 2 647.352000 -2909.880000 472.598000 1 1.000000 1 -3.000000
173 2 647.744000 -2900.850000 476.776000 1 1.000000 1 -3.000000
174 2 649.488000 -2892.480000 481.555000 1 1.000000 1 -3.000000
175 2 652.207000 -2883.110000 483.248000 1 1.000000 1 -3.000000
176 2 656.044000 -2874.180000 482.044000 1 1.000000 1 -3.000000
177 2 658.612000 -2864.990000 479.529000 1 1.000000 1 -3.000000
178 2 663.004000 -2856.610000 476.433000 1 1.000000 1 -3.000000
179 2 665.850000 -2847.320000 477.604000 1 1.000000 1 -3.000000
180 2 666.175000 -2837.710000 480.090000 1 1.000000 1 -3.000000
181 2 667.679000 -2829.480000 485.146000 1 1.000000 1 -3.000000
182 2 668.380000 -2819.570000 485.746000 1 1.000000 1 -3.000000
183 2 671.031000 -2810.660000 488.772000 1 1.000000 8 -3.000000
184 1 716.776000 -2809.420000 477.348000 1 1.000000 8 0.000000
185 3 703.878000 -2833.800000 455.851000 1 1.000000 8 0.000000
186 2 755.001000 -2825.030000 454.478000 1 1.000000 8 -3.000000
187 2 749.757000 -2832.780000 451.168000 1 1.000000 1 -3.000000
188 2 745.016000 -2841.510000 450.566000 1 1.000000 1 -3.000000
189 2 739.658000 -2849.270000 447.377000 1 1.000000 1 -3.000000
190 2 733.957000 -2857.360000 447.039000 1 1.000000 1 -3.000000
191 2 727.185000 -2864.610000 447.513000 1 1.000000 1 -3.000000
192 2 717.781000 -2867.820000 446.362000 1 1.000000 1 -3.000000
193 2 711.107000 -2874.510000 443.161000 1 1.000000 1 -3.000000
194 2 702.912000 -2878.950000 446.770000 1 1.000000 1 -3.000000
195 2 695.637000 -2882.340000 452.571000 1 1.000000 1 -3.000000
196 2 689.204000 -2883.010000 460.147000 1 1.000000 1 -3.000000
197 2 688.445000 -2882.870000 470.009000 1 1.000000 1 -3.000000
198 2 689.309000 -2881.860000 479.799000 1 1.000000 1 -3.000000
199 2 692.223000 -2881.260000 489.237000 1 1.000000 1 -3.000000
200 2 699.034000 -2883.300000 496.020000 1 1.000000 1 -3.000000
201 2 704.457000 -2884.960000 504.268000 1 1.000000 1 -3.000000
202 2 707.445000 -2885.280000 513.741000 1 1.000000 1 -3.000000
203 2 711.514000 -2888.320000 522.305000 1 1.000000 1 -3.000000
204 2 717.887000 -2893.120000 527.990000 1 1.000000 1 -3.000000
205 2 724.115000 -2898.220000 533.619000 1 1.000000 1 -3.000000
206 2 731.273000 -2903.160000 538.266000 1 1.000000 1 -3.000000
207 2 734.168000 -2911.100000 543.584000 1 1.000000 1 -3.000000
208 2 739.799000 -2919.130000 545.440000 1 1.000000 1 -3.000000
209 2 745.577000 -2927.160000 546.166000 1 1.000000 1 -3.000000
210 2 751.312000 -2934.910000 548.814000 1 1.000000 9 -3.000000
211 1 745.189000 -2954.220000 506.159000 1 1.000000 9 0.000000
212 3 736.163000 -2920.740000 501.248000 1 1.000000 9 0.000000
213 2 733.682000 -2952.930000 460.507000 1 1.000000 9 -3.000000
214 2 737.743000 -2943.850000 461.187000 1 1.000000 1 -3.000000
215 2 743.737000 -2936.380000 458.999000 1 1.000000 1 -3.000000
216 2 749.476000 -2928.810000 456.303000 1 1.000000 1 -3.000000
217 2 752.574000 -2921.600000 450.222000 1 1.000000 1 -3.000000
218 2 753.242000 -2914.830000 443.061000 1 1.000000 1 -3.000000
219 2 756.640000 -2908.440000 436.514000 1 1.000000 1 -3.000000
220 2 760.580000 -2902.650000 429.500000 1 1.000000 1 -3.000000
221 2 761.515000 -2897.520000 420.937000 1 1.000000 1 -3.000000
222 2 761.604000 -2890.360000 414.134000 1 1.000000 1 -3.000000
223 2 760.028000 -2882.740000 408.107000 1 1.000000 1 -3.000000
224 2 754.922000 -2874.930000 404.843000 1 1.000000 1 -3.000000
225 2 748.736000 -2867.360000 404.232000 1 1.000000 1 -3.000000
226 2 742.665000 -2859.850000 406.527000 1 1.000000 1 -3.000000
227 2 736.835000 -2852.030000 408.150000 1 1.000000 1 -3.000000
228 2 731.783000 -2843.370000 409.212000 1 1.000000 1 -3.000000
229 2 727.118000 -2834.680000 409.477000 1 1.000000 1 -3.000000
230 2 722.803000 -2825.760000 410.312000 1 1.000000 1 -3.000000
231 2 717.645000 -2817.490000 408.293000 1 1.000000 1 -3.000000
232 2 712.835000 -2809.510000 411.901000 1 1.000000 1 -3.000000
233 2 705.018000 -2804.060000 413.944000 1 1.000000 1 -3.000000
234 2 696.551000 -2800.250000 417.620000 1 1.000000 1 -3.000000
235 2 689.337000 -2795.290000 421.995000 1 1.000000 1 -3.000000
236 2 682.893000 -2791.780000 428.536000 1 1.000000 1 -3.000000
237 2 678.016000 -2789.050000 436.706000 1 1.000000 10 -3.000000
238 1 641.562000 -2759.930000 430.121000 1 1.000000 10 0.000000
239 3 667.207000 -2745.000000 411.486000 1 1.000000 10 0.000000
240 2 620.908000 -2721.500000 412.168000 1 1.000000 10 -3.000000
241 2 625.560000 -2722.360000 403.374000 1 1.000000 1 -3.000000
242 2 630.286000 -2724.910000 395.032000 1 1.000000 1 -3.000000
243 2 635.742000 -2723.800000 386.813000 1 1.000000 1 -3.000000
244 2 641.289000 -2723.880000 378.700000 1 1.000000 1 -3.000000
245 2 644.544000 -2719.900000 370.260000 1 1.000000 1 -3.000000
246 2 650.038000 -2714.940000 363.515000 1 1.000000 1 -3.000000
247 2 654.731000 -2710.050000 356.259000 1 1.000000 1 -3.000000
248 2 658.805000 -2704.940000 348.920000 1 1.000000 1 -3.000000
249 2 660.214000 -2696.340000 344.412000 1 1.000000 1 -3.000000
250 2 661.097000 -2689.210000 337.560000 1 1.000000 1 -3.000000
251 2 663.009000 -2682.090000 331.123000 1 1.000000 1 -3.000000
252 2 664.463000 -2675.210000 324.263000 1 1.000000 1 -3.000000
253 2 666.492000 -2668.820000 316.981000 1 1.000000 1 -3.000000
254 2 666.276000 -2663.840000 308.508000 1 1.000000 1 -3.000000
255 2 669.779000 -2661.430000 299.389000 1 1.000000 1 -3.000000
256 2 674.409000 -2658.400000 291.083000 1 1.000000 1 -3.000000
257 2 678.527000 -2652.420000 284.461000 1 1.000000 1 -3.000000
258 2 682.848000 -2645.120000 279.270000 1 1.000000 1 -3.000000
259 2 687.197000 -2637.490000 274.536000 1 1.000000 1 -3.000000
260 2 692.521000 -2631.200000 269.340000 1 1.000000 1 -3.000000
261 2 699.786000 -2626.120000 264.894000 1 1.000000 1 -3.000000
262 2 703.279000 -2618.630000 259.646000 1 1.000000 1 -3.000000
263 2 706.027000 -2610.060000 255.270000 1 1.000000 1 -3.000000
264 2 706.335000 -2601.240000 250.863000 1 1.000000 11 -3.000000
265 1 725.501000 -2580.200000 288.401000 1 1.000000 11 0.000000
266 3 714.842000 -2611.040000 301.021000 1 1.000000 11 0.000000
267 2 741.699000 -2579.710000 332.737000 1 1.000000 11 -3.000000
268 2 736.132000 -2587.450000 335.772000 1 1.000000 1 -3.000000
269 2 732.848000 -2596.410000 338.298000 1 1.000000 1 -3.000000
270 2 728.220000 -2605.020000 340.338000 1 1.000000 1 -3.000000
271 2 726.955000 -2614.720000 341.437000 1 1.000000 1 -3.000000
272 2 725.637000 -2624.390000 342.978000 1 1.000000 1 -3.000000
273 2 723.394000 -2633.890000 341.437000 1 1.000000 1 -3.000000
274 2 722.557000 -2642.420000 336.370000 1 1.000000 1 -3.000000
275 2 724.945000 -2648.960000 329.215000 1 1.000000 1 -3.000000
276 2 727.987000 -2657.450000 325.226000 1 1.000000 1 -3.000000
277 2 727.505000 -2667.100000 323.330000 1 1.000000 1 -3.000000
278 2 725.050000 -2676.070000 320.289000 1 1.000000 1 -3.000000
279 2 722.578000 -2684.910000 316.515000 1 1.000000 1 -3.000000
280 2 718.670000 -2693.160000 312.876000 1 1.000000 1 -3.000000
281 2 713.121000 -2701.090000 310.642000 1 1.000000 1 -3.000000
282 2 708.635000 -2709.310000 307.711000 1 1.000000 1 -3.000000
283 2 707.843000 -2719.160000 307.966000 1 1.000000 1 -3.000000
284 2 707.371000 -2729.000000 307.357000 1 1.000000 1 -3.000000
285 2 704.249000 -2738.140000 309.385000 1 1.000000 1 -3.000000
286 2 698.900000 -2746.430000 307.942000 1 1.000000 1 -3.000000
287 2 694.030000 -2755.050000 307.562000 1 1.000000 1 -3.000000
288 2 689.832000 -2763.960000 306.585000 1 1.000000 1 -3.000000
289 2 683.542000 -2771.570000 305.896000 1 1.000000 1 -3.000000
290 2 675.829000 -2777.330000 303.678000 1 1.000000 1 -3.000000
291 2 671.138000 -2786.150000 302.920000 1 1.000000 12 -3.000000
292 1 673.012000 -2795.040000 349.265000 1 1.000000 12 0.000000
293 3 706.743000 -2794.460000 339.872000 1 1.000000 12 0.000000
294 2 695.687000 -2803.730000 389.679000 1 1.000000 12 -3.000000
295 2 701.900000 -2796.550000 386.972000 1 1.000000 1 -3.000000
296 2 707.513000 -2788.430000 388.010000 1 1.000000 1 -3.000000
297 2 713.557000 -2781.970000 383.758000 1 1.000000 1 -3.000000
298 2 721.511000 -2778.200000 379.207000 1 1.000000 1 -3.000000
299 2 730.817000 -2777.610000 376.097000 1 1.000000 1 -3.000000
300 2 738.551000 -2781.630000 371.749000 1 1.000000 1 -3.000000
301 2 744.426000 -2786.620000 365.449000 1 1.000000 1 -3.000000
302 2 748.180000 -2788.590000 356.439000 1 1.000000 1 -3.000000
303 2 750.605000 -2789.990000 347.014000 1 1.000000 1 -3.000000
304 2 753.012000 -2790.170000 337.338000 1 1.000000 1 -3.000000
305 2 755.833000 -2785.800000 328.842000 1 1.000000 1 -3.000000
306 2 759.008000 -2783.770000 319.690000 1 1.000000 1 -3.000000
307 2 762.730000 -2779.040000 311.591000 1 1.000000 1 -3.000000
308 2 766.183000 -2776.360000 302.737000 1 1.000000 1 -3.000000
309 2 767.890000 -2770.820000 294.550000 1 1.000000 1 -3.000000
310 2 773.658000 -2764.420000 289.669000 1 1.000000 1 -3.000000
311 2 778.305000 -2756.340000 286.280000 1 1.000000 1 -3.000000
312 2 778.936000 -2746.600000 284.731000 1 1.000000 1 -3.000000
313 2 775.074000 -2737.680000 282.785000 1 1.000000 1 -3.000000
314 2 771.217000 -2728.700000 282.664000 1 1.000000 1 -3.000000
315 2 768.154000 -2719.330000 282.594000 1 1.000000 1 -3.000000
316 2 766.958000 -2709.570000 284.137000 1 1.000000 1 -3.000000
317 2 767.144000 -2700.490000 288.068000 1 1.000000 1 -3.000000
318 2 770.704000 -2691.860000 291.277000 1 1.000000 13 -3.000000
319 1 761.908000 -2664.290000 254.091000 1 1.000000 13 0.000000
320 3 770.849000 -2694.620000 239.277000 1 1.000000 13 0.000000
321 2 757.933000 -2655.670000 207.840000 1 1.000000 13 -3.000000
322 2 758.130000 -2665.230000 204.835000 1 1.000000 1 -3.000000
323 2 759.306000 -2675.040000 203.450000 1 1.000000 1 -3.000000
324 2 756.401000 -2684.310000 202.363000 1 1.000000 1 -3.000000
325 2 751.174000 -2692.710000 202.650000 1 1.000000 1 -3.000000
326 2 745.643000 -2700.880000 202.239000 1 1.000000 1 -3.000000
327 2 740.466000 -2709.180000 201.287000 1 1.000000 1 -3.000000
328 2 734.436000 -2716.700000 199.108000 1 1.000000 1 -3.000000
329 2 728.324000 -2724.290000 198.069000 1 1.000000 1 -3.000000
330 2 720.791000 -2730.190000 196.140000 1 1.000000 1 -3.000000
331 2 712.842000 -2734.320000 192.044000 1 1.000000 1 -3.000000
332 2 706.886000 -2735.660000 184.152000 1 1.000000 1 -3.000000
333 2 702.037000 -2739.120000 176.217000 1 1.000000 1 -3.000000
334 2 695.050000 -2740.960000 169.414000 1 1.000000 1 -3.000000
335 2 690.195000 -2740.380000 160.927000 1 1.000000 1 -3.000000
336 2 682.694000 -2737.100000 155.304000 1 1.000000 1 -3.000000
337 2 678.162000 -2736.970000 146.562000 1 1.000000 1 -3.000000
338 2 676.208000 -2736.990000 136.848000 1 1.000000 1 -3.000000
339 2 679.403000 -2739.410000 127.708000 1 1.000000 1 -3.000000
340 2 686.411000 -2740.350000 120.679000 1 1.000000 1 -3.000000
341 2 696.151000 -2742.580000 119.419000 1 1.000000 1 -3.000000
342 2 702.598000 -2748.980000 115.901000 1 1.000000 1 -3.000000
343 2 706.446000 -2758.000000 114.056000 1 1.000000 1 -3.000000
344 2 711.751000 -2766.380000 113.128000 1 1.000000 1 -3.000000
345 2 719.170000 -2772.740000 111.798000 1 1.000000 14 -3.000000
346 1 748.146000 -2735.580000 111.626000 1 1.000000 14 0.000000
347 3 721.425000 -2724.930000 131.411000 1 1.000000 14 0.000000
348 2 760.190000 -2691.420000 122.769000 1 1.000000 14 -3.000000
349 2 753.104000 -2691.170000 129.701000 1 1.000000 1 -3.000000
350 2 747.273000 -2693.880000 137.293000 1 1.000000 1 -3.000000
351 2 743.205000 -2695.900000 145.987000 1 1.000000 1 -3.000000
352 2 739.612000 -2695.100000 155.227000 1 1.000000 1 -3.000000
353 2 732.754000 -2690.300000 160.475000 1 1.000000 1 -3.000000
354 2 727.252000 -2682.920000 164.559000 1 1.000000 1 -3.000000
355 2 725.399000 -2675.440000 170.755000 1 1.000000 1 -3.000000
356 2 725.428000 -2666.280000 174.514000 1 1.000000 1 -3.000000
357 2 724.083000 -2656.430000 173.649000 1 1.000000 1 -3.000000
358 2 723.261000 -2646.610000 174.384000 1 1.000000 1 -3.000000
359 2 723.802000 -2636.740000 175.506000 1 1.000000 1 -3.000000
360 2 722.900000 -2626.910000 175.957000 1 1.000000 1 -3.000000
361 2 724.003000 -2617.110000 177.096000 1 1.000000 1 -3.000000
362 2 727.136000 -2608.250000 179.989000 1 1.000000 1 -3.000000
363 2 728.962000 -2598.970000 182.966000 1 1.000000 1 -3.000000
364 2 732.738000 -2589.820000 184.093000 1 1.000000 1 -3.000000
365 2 738.003000 -2581.340000 184.395000 1 1.000000 1 -3.000000
366 2 743.130000 -2572.990000 183.728000 1 1.000000 1 -3.000000
367 2 745.876000 -2563.500000 184.339000 1 1.000000 1 -3.000000
368 2 749.191000 -2554.410000 186.547000 1 1.000000 1 -3.000000
369 2 751.931000 -2545.550000 189.968000 1 1.000000 1 -3.000000
370 2 755.485000 -2536.320000 190.062000 1 1.000000 1 -3.000000
371 2 760.919000 -2528.410000 187.635000 1 1.000000 1 -3.000000
372 2 763.910000 -2520.600000 182.315000 1 1.000000 15 -3.000000
373 1 726.000000 -2502.560000 160.662000 1 1.000000 15 0.000000
374 3 714.491000 -2533.220000 172.889000 1 1.000000 15 0.000000
375 2 681.371000 -2504.100000 145.565000 1 1.000000 15 -3.000000
376 2 679.936000 -2512.230000 150.794000 1 1.000000 1 -3.000000
377 2 679.145000 -2521.660000 153.660000 1 1.000000 1 -3.000000
378 2 678.256000 -2529.100000 160.142000 1 1.000000 1 -3.000000
379 2 676.587000 -2535.030000 167.910000 1 1.000000 1 -3.000000
380 2 674.685000 -2541.530000 175.107000 1 1.000000 1 -3.000000
381 2 672.179000 -2548.210000 181.994000 1 1.000000 1 -3.000000
382 2 668.029000 -2554.590000 188.336000 1 1.000000 1 -3.000000
383 2 663.658000 -2560.490000 194.988000 1 1.000000 1 -3.000000
384 2 658.422000 -2564.790000 202.150000 1 1.000000 1 -3.000000
385 2 651.562000 -2565.260000 209.292000 1 1.000000 1 -3.000000
386 2 644.379000 -2567.360000 215.953000 1 1.000000 1 -3.000000
387 2 639.906000 -2567.720000 224.837000 1 1.000000 1 -3.000000
388 2 636.065000 -2567.440000 233.820000 1 1.000000 1 -3.000000
389 2 629.509000 -2566.610000 241.259000 1 1.000000 1 -3.000000
390 2 623.035000 -2571.000000 247.359000 1 1.000000 1 -3.000000
391 2 616.833000 -2576.000000 253.419000 1 1.000000 1 -3.000000
392 2 610.865000 -2583.660000 255.224000 1 1.000000 1 -3.000000
393 2 606.075000 -2591.810000 258.120000 1 1.000000 1 -3.000000
394 2 600.912000 -2599.910000 260.124000 1 1.000000 1 -3.000000
395 2 597.754000 -2608.630000 263.390000 1 1.000000 1 -3.000000
396 2 593.255000 -2616.330000 267.720000 1 1.000000 1 -3.000000
397 2 589.826000 -2624.020000 272.562000 1 1.000000 1 -3.000000
398 2 587.713000 -2632.010000 278.188000 1 1.000000 1 -3.000000
399 2 584.425000 -2637.640000 285.807000 1 1.000000 16 -3.000000
400 1 573.110000 -2610.290000 322.578000 1 1.000000 16 0.000000
401 3 574.363000 -2587.760000 295.798000 1 1.000000 16 0.000000
402 2 566.474000 -2568.430000 343.427000 1 1.000000 16 -3.000000
403 2 565.554000 -2564.390000 334.363000 1 1.000000 1 -3.000000
404 2 562.860000 -2559.290000 326.472000 1 1.000000 1 -3.000000
405 2 562.999000 -2553.560000 318.501000 1 1.000000 1 -3.000000
406 2 562.917000 -2546.000000 311.899000 1 1.000000 1 -3.000000
407 2 562.352000 -2538.400000 305.565000 1 1.000000 1 -3.000000
408 2 565.798000 -2529.680000 302.688000 1 1.000000 1 -3.000000
409 2 566.901000 -2519.840000 302.177000 1 1.000000 1 -3.000000
410 2 570.413000 -2510.790000 303.886000 1 1.000000 1 -3.000000
411 2 568.174000 -2501.190000 305.336000 1 1.000000 1 -3.000000
412 2 566.228000 -2491.960000 308.276000 1 1.000000 1 -3.000000
413 2 564.300000 -2482.280000 307.932000 1 1.000000 1 -3.000000
414 2 561.377000 -2472.800000 307.208000 1 1.000000 1 -3.000000
415 2 558.092000 -2463.500000 307.467000 1 1.000000 1 -3.000000
416 2 553.107000 -2455.440000 305.114000 1 1.000000 1 -3.000000
417 2 548.273000 -2447.050000 302.471000 1 1.000000 1 -3.000000
418 2 543.905000 -2439.310000 297.999000 1 1.000000 1 -3.000000
419 2 542.675000 -2431.060000 292.443000 1 1.000000 1 -3.000000
420 2 543.392000 -2423.400000 286.226000 1 1.000000 1 -3.000000
421 2 547.423000 -2416.940000 279.778000 1 1.000000 1 -3.000000
422 2 548.657000 -2408.800000 274.374000 1 1.000000 1 -3.000000
423 2 553.140000 -2402.770000 267.976000 1 1.000000 1 -3.000000
424 2 559.803000 -2399.180000 261.816000 1 1.000000 1 -3.000000
425 2 566.440000 -2396.750000 254.872000 1 1.000000 1 -3.000000
426 2 575.102000 -2396.110000 250.084000 1 1.000000 17 -3.000000
427 1 564.202000 -2350.390000 245.694000 1 1.000000 17 0.000000
428 3 538.064000 -2362.940000 265.019000 1 1.000000 17 0.000000
429 2 535.388000 -2313.330000 250.674000 1 1.000000 17 -3.000000
430 2 530.293000 -2316.810000 258.207000 1 1.000000 1 -3.000000
431 2 525.364000 -2321.130000 265.627000 1 1.000000 1 -3.000000
432 2 519.596000 -2325.260000 272.437000 1 1.000000 1 -3.000000
433 2 513.529000 -2330.950000 277.753000 1 1.000000 1 -3.000000
434 2 509.663000 -2337.390000 284.169000 1 1.000000 1 -3.000000
435 2 508.541000 -2344.910000 290.369000 1 1.000000 1 -3.000000
436 2 504.598000 -2347.950000 298.796000 1 1.000000 1 -3.000000
437 2 501.680000 -2352.800000 307.005000 1 1.000000 1 -3.000000
438 2 501.392000 -2359.920000 314.003000 1 1.000000 1 -3.000000
439 2 500.018000 -2367.520000 320.143000 1 1.000000 1 -3.000000
440 2 496.414000 -2373.500000 327.207000 1 1.000000 1 -3.000000
441 2 494.528000 -2380.220000 334.343000 1 1.000000 1 -3.000000
442 2 492.244000 -2389.100000 338.072000 1 1.000000 1 -3.000000
443 2 489.434000 -2398.240000 340.776000 1 1.000000 1 -3.000000
444 2 482.988000 -2405.810000 339.931000 1 1.000000 1 -3.000000
445 2 474.136000 -2409.250000 337.235000 1 1.000000 1 -3.000000
446 2 464.921000 -2412.400000 336.402000 1 1.000000 1 -3.000000
447 2 455.234000 -2409.810000 336.303000 1 1.000000 1 -3.000000
448 2 446.381000 -2405.500000 335.904000 1 1.000000 1 -3.000000
449 2 438.104000 -2400.010000 336.233000 1 1.000000 1 -3.000000
450 2 432.130000 -2392.290000 337.965000 1 1.000000 1 -3.000000
451 2 426.974000 -2383.920000 338.715000 1 1.000000 1 -3.000000
452 2 424.365000 -2375.810000 343.727000 1 1.000000 1 -3.000000
453 2 418.820000 -2368.110000 346.123000 1 1.000000 18 -3.000000
454 1 419.732000 -2371.650000 393.139000 1 1.000000 18 0.000000
455 3 437.703000 -2399.880000 382.566000 1 1.000000 18 0.000000
456 2 432.840000 -2391.890000 433.731000 1 1.000000 18 -3.000000
457 2 440.786000 -2394.170000 428.272000 1 1.000000 1 -3.000000
458 2 449.547000 -2393.900000 423.558000 1 1.000000 1 -3.000000
459 2 458.722000 -2397.060000 421.292000 1 1.000000 1 -3.000000
460 2 466.717000 -2400.760000 416.922000 1 1.000000 1 -3.000000
461 2 473.130000 -2406.810000 412.442000 1 1.000000 1 -3.000000
462 2 478.971000 -2411.440000 405.772000 1 1.000000 1 -3.000000
463 2 485.054000 -2417.390000 400.809000 1 1.000000 1 -3.000000
464 2 491.284000 -2423.980000 396.742000 1 1.000000 1 -3.000000
465 2 497.510000 -2429.680000 391.852000 1 1.000000 1 -3.000000