LAMMPS data file

4067 atoms
4067 ellipsoids
4516 bonds
8882 angles
0 dihedrals

3 atom types
5 bond types
12 angle types
0 dihedral types

-4631.092947 4670.465898 xlo xhi
-4631.092947 4670.465898 ylo yhi
-4631.092947 4670.465898 zlo zhi

Masses

1 196016.000000
2 1950.000000
3 19500.000000

Atoms

1 2 767.007000 -3087.820000 518.305000 1 1.000000 1 -3.000000
2 2 761.162000 -3084.240000 525.507000 1 1.000000 1 -3.000000
3 2 755.878000 -3080.050000 532.729000 1 1.000000 1 -3.000000
4 2 749.854000 -3075.870000 539.455000 1 1.000000 1 -3.000000
5 2 746.983000 -3070.650000 547.278000 1 1.000000 1 -3.000000
6 2 744.439000 -3064.990000 554.966000 1 1.000000 1 -3.000000
7 2 742.044000 -3059.760000 562.997000 1 1.000000 1 -3.000000
8 2 739.200000 -3055.330000 571.293000 1 1.000000 1 -3.000000
9 2 735.858000 -3047.710000 576.537000 1 1.000000 1 -3.000000
10 2 735.542000 -3040.430000 583.334000 1 1.000000 1 -3.000000
11 2 734.652000 -3035.490000 591.976000 1 1.000000 1 -3.000000
12 2 735.547000 -3026.640000 596.241000 1 1.000000 1 -3.000000
13 2 734.806000 -3018.550000 601.790000 1 1.000000 1 -3.000000
14 2 729.952000 -3012.740000 608.303000 1 1.000000 1 -3.000000
15 2 724.425000 -3006.270000 613.275000 1 1.000000 1 -3.000000
16 2 719.626000 -3000.300000 619.534000 1 1.000000 1 -3.000000
17 2 717.914000 -2994.240000 627.295000 1 1.000000 1 -3.000000
18 2 715.669000 -2988.140000 634.775000 1 1.000000 1 -3.000000
19 2 716.523000 -2982.660000 643.067000 1 1.000000 1 -3.000000
20 2 716.018000 -2981.550000 652.925000 1 1.000000 1 -3.000000
21 2 713.673000 -2975.360000 660.205000 1 1.000000 2 -3.000000
22 1 712.720000 -3014.580000 686.388000 1 1.000000 2 0.000000
23 3 732.502000 -3023.520000 658.909000 1 1.000000 2 0.000000
24 2 724.588000 -3059.250000 696.092000 1 1.000000 2 -3.000000
25 2 725.402000 -3058.110000 686.157000 1 1.000000 1 -3.000000
26 2 728.251000 -3057.360000 676.783000 1 1.000000 1 -3.000000
27 2 732.478000 -3052.740000 669.043000 1 1.000000 1 -3.000000
28 2 735.791000 -3049.910000 660.122000 1 1.000000 1 -3.000000
29 2 739.197000 -3047.400000 651.165000 1 1.000000 1 -3.000000
30 2 742.170000 -3045.390000 641.875000 1 1.000000 1 -3.000000
31 2 746.419000 -3044.880000 632.914000 1 1.000000 1 -3.000000
32 2 753.401000 -3044.420000 625.879000 1 1.000000 1 -3.000000
33 2 761.637000 -3041.640000 620.992000 1 1.000000 1 -3.000000
34 2 769.952000 -3036.410000 620.755000 1 1.000000 1 -3.000000
35 2 779.322000 -3033.580000 621.929000 1 1.000000 1 -3.000000
36 2 788.377000 -3031.940000 625.449000 1 1.000000 1 -3.000000
37 2 796.424000 -3029.710000 630.760000 1 1.000000 1 -3.000000
38 2 804.296000 -3029.150000 636.558000 1 1.000000 1 -3.000000
39 2 810.488000 -3028.530000 644.309000 1 1.000000 1 -3.000000
40 2 816.942000 -3031.540000 651.207000 1 1.000000 1 -3.000000
41 2 821.106000 -3032.450000 660.185000 1 1.000000 1 -3.000000
42 2 820.821000 -3033.770000 669.861000 1 1.000000 1 -3.000000
43 2 821.718000 -3035.560000 679.668000 1 1.000000 1 -3.000000
44 2 819.928000 -3035.580000 689.395000 1 1.000000 1 -3.000000
45 2 820.404000 -3033.840000 699.165000 1 1.000000 1 -3.000000
46 2 822.439000 -3031.260000 708.585000 1 1.000000 1 -3.000000
47 2 823.126000 -3032.050000 718.411000 1 1.000000 1 -3.000000
48 2 825.689000 -3032.970000 727.957000 1 1.000000 3 -3.000000
49 1 844.981000 -2990.390000 734.101000 1 1.000000 3 0.000000
50 3 835.764000 -2990.210000 700.335000 1 1.000000 3 0.000000
51 2 860.511000 -2948.440000 718.918000 1 1.000000 3 -3.000000
52 2 854.628000 -2948.430000 711.003000 1 1.000000 1 -3.000000
53 2 847.310000 -2948.840000 704.254000 1 1.000000 1 -3.000000
54 2 840.066000 -2949.850000 697.739000 1 1.000000 1 -3.000000
55 2 831.651000 -2947.840000 692.781000 1 1.000000 1 -3.000000
56 2 823.851000 -2947.000000 686.827000 1 1.000000 1 -3.000000
57 2 815.283000 -2947.740000 681.909000 1 1.000000 1 -3.000000
58 2 808.916000 -2950.540000 674.981000 1 1.000000 1 -3.000000
59 2 803.487000 -2954.420000 667.731000 1 1.000000 1 -3.000000
60 2 797.789000 -2959.750000 661.656000 1 1.000000 1 -3.000000
61 2 789.100000 -2960.830000 656.841000 1 1.000000 1 -3.000000
62 2 779.584000 -2962.750000 654.743000 1 1.000000 1 -3.000000
63 2 771.151000 -2961.850000 649.822000 1 1.000000 1 -3.000000
64 2 762.441000 -2960.960000 645.052000 1 1.000000 1 -3.000000
65 2 755.626000 -2957.370000 638.861000 1 1.000000 1 -3.000000
66 2 748.158000 -2951.740000 635.543000 1 1.000000 1 -3.000000
67 2 740.072000 -2946.750000 632.673000 1 1.000000 1 -3.000000
68 2 732.801000 -2940.140000 632.236000 1 1.000000 1 -3.000000
69 2 726.978000 -2932.390000 630.642000 1 1.000000 1 -3.000000
70 2 721.375000 -2924.140000 629.986000 1 1.000000 1 -3.000000
71 2 718.525000 -2915.020000 632.742000 1 1.000000 1 -3.000000
72 2 713.487000 -2907.750000 637.185000 1 1.000000 1 -3.000000
73 2 709.572000 -2900.550000 642.805000 1 1.000000 1 -3.000000
74 2 704.859000 -2893.880000 648.461000 1 1.000000 1 -3.000000
75 2 699.179000 -2889.960000 655.443000 1 1.000000 4 -3.000000
76 1 673.694000 -2869.160000 621.458000 1 1.000000 4 0.000000
77 3 692.638000 -2892.810000 603.964000 1 1.000000 4 0.000000
78 2 664.259000 -2859.020000 576.364000 1 1.000000 4 -3.000000
79 2 666.026000 -2867.720000 572.283000 1 1.000000 1 -3.000000
80 2 668.968000 -2876.840000 569.295000 1 1.000000 1 -3.000000
81 2 670.203000 -2886.380000 567.002000 1 1.000000 1 -3.000000
82 2 670.600000 -2895.970000 564.759000 1 1.000000 1 -3.000000
83 2 674.738000 -2904.960000 563.646000 1 1.000000 1 -3.000000
84 2 680.680000 -2912.760000 564.522000 1 1.000000 1 -3.000000
85 2 687.764000 -2918.180000 568.463000 1 1.000000 1 -3.000000
86 2 693.170000 -2922.090000 575.827000 1 1.000000 1 -3.000000
87 2 699.951000 -2921.930000 582.983000 1 1.000000 1 -3.000000
88 2 706.639000 -2917.200000 588.502000 1 1.000000 1 -3.000000
89 2 714.616000 -2911.930000 591.040000 1 1.000000 1 -3.000000
90 2 722.011000 -2906.280000 594.339000 1 1.000000 1 -3.000000
91 2 728.439000 -2899.250000 596.983000 1 1.000000 1 -3.000000
92 2 734.785000 -2891.590000 596.441000 1 1.000000 1 -3.000000
93 2 740.895000 -2884.440000 599.221000 1 1.000000 1 -3.000000
94 2 748.516000 -2878.420000 601.068000 1 1.000000 1 -3.000000
95 2 755.845000 -2871.890000 602.503000 1 1.000000 1 -3.000000
96 2 764.664000 -2868.430000 605.558000 1 1.000000 1 -3.000000
97 2 772.050000 -2862.020000 607.103000 1 1.000000 1 -3.000000
98 2 778.780000 -2855.260000 609.809000 1 1.000000 1 -3.000000
99 2 782.728000 -2847.510000 614.588000 1 1.000000 1 -3.000000
100 2 786.607000 -2840.060000 619.902000 1 1.000000 1 -3.000000
101 2 789.517000 -2832.650000 625.929000 1 1.000000 1 -3.000000
102 2 795.095000 -2825.720000 630.215000 1 1.000000 5 -3.000000
103 1 808.176000 -2803.330000 590.927000 1 1.000000 5 0.000000
104 3 787.445000 -2828.830000 579.008000 1 1.000000 5 0.000000
105 2 811.003000 -2798.370000 544.092000 1 1.000000 5 -3.000000
106 2 803.854000 -2803.580000 539.597000 1 1.000000 1 -3.000000
107 2 798.939000 -2810.340000 534.147000 1 1.000000 1 -3.000000
108 2 791.924000 -2817.070000 532.634000 1 1.000000 1 -3.000000
109 2 783.660000 -2822.480000 532.673000 1 1.000000 1 -3.000000
110 2 775.748000 -2828.470000 533.689000 1 1.000000 1 -3.000000
111 2 769.061000 -2835.660000 534.784000 1 1.000000 1 -3.000000
112 2 761.682000 -2842.360000 534.129000 1 1.000000 1 -3.000000
113 2 756.291000 -2850.270000 536.645000 1 1.000000 1 -3.000000
114 2 752.088000 -2858.980000 538.612000 1 1.000000 1 -3.000000
115 2 750.027000 -2867.990000 542.031000 1 1.000000 1 -3.000000
116 2 748.141000 -2877.130000 545.155000 1 1.000000 1 -3.000000
117 2 744.778000 -2886.050000 547.681000 1 1.000000 1 -3.000000
118 2 748.047000 -2895.200000 548.568000 1 1.000000 1 -3.000000
119 2 752.146000 -2904.280000 548.630000 1 1.000000 1 -3.000000
120 2 756.590000 -2913.000000 548.295000 1 1.000000 1 -3.000000
121 2 762.929000 -2920.490000 547.674000 1 1.000000 1 -3.000000
122 2 770.039000 -2926.730000 544.511000 1 1.000000 1 -3.000000
123 2 777.241000 -2933.590000 543.176000 1 1.000000 1 -3.000000
124 2 784.905000 -2939.570000 544.662000 1 1.000000 1 -3.000000
125 2 792.565000 -2945.690000 545.731000 1 1.000000 1 -3.000000
126 2 800.896000 -2951.030000 545.536000 1 1.000000 1 -3.000000
127 2 806.900000 -2958.840000 546.651000 1 1.000000 1 -3.000000
128 2 811.824000 -2966.420000 550.822000 1 1.000000 1 -3.000000
129 2 815.371000 -2973.280000 557.065000 1 1.000000 6 -3.000000
130 1 782.902000 -3007.590000 555.875000 1 1.000000 6 0.000000
131 3 770.541000 -2984.000000 533.125000 1 1.000000 6 0.000000
132 2 742.660000 -3027.080000 540.819000 1 1.000000 6 -3.000000
133 2 741.330000 -3021.500000 532.644000 1 1.000000 1 -3.000000
134 2 740.729000 -3015.570000 524.736000 1 1.000000 1 -3.000000
135 2 740.057000 -3008.590000 517.686000 1 1.000000 1 -3.000000
136 2 736.887000 -3001.940000 511.095000 1 1.000000 1 -3.000000
137 2 738.383000 -2994.950000 504.139000 1 1.000000 1 -3.000000
138 2 740.383000 -2989.080000 496.412000 1 1.000000 1 -3.000000
139 2 743.034000 -2985.830000 487.420000 1 1.000000 1 -3.000000
140 2 746.122000 -2982.170000 478.825000 1 1.000000 1 -3.000000
141 2 747.610000 -2982.820000 469.025000 1 1.000000 1 -3.000000
142 2 748.707000 -2980.790000 459.461000 1 1.000000 1 -3.000000
143 2 751.251000 -2977.170000 450.511000 1 1.000000 1 -3.000000
144 2 753.537000 -2972.410000 442.041000 1 1.000000 1 -3.000000
145 2 755.169000 -2966.260000 434.313000 1 1.000000 1 -3.000000
146 2 759.345000 -2962.490000 426.046000 1 1.000000 1 -3.000000
147 2 760.395000 -2957.810000 417.442000 1 1.000000 1 -3.000000
148 2 757.906000 -2953.320000 409.092000 1 1.000000 1 -3.000000
149 2 753.671000 -2945.600000 404.504000 1 1.000000 1 -3.000000
150 2 749.637000 -2936.730000 403.388000 1 1.000000 1 -3.000000
151 2 748.914000 -2926.940000 403.756000 1 1.000000 1 -3.000000
152 2 748.103000 -2917.120000 402.931000 1 1.000000 1 -3.000000
153 2 750.593000 -2908.450000 399.003000 1 1.000000 1 -3.000000
154 2 754.381000 -2900.010000 395.362000 1 1.000000 1 -3.000000
155 2 762.147000 -2893.990000 396.031000 1 1.000000 1 -3.000000
156 2 766.503000 -2885.570000 392.957000 1 1.000000 7 -3.000000
157 1 809.730000 -2897.660000 407.473000 1 1.000000 7 0.000000
158 3 793.318000 -2928.530000 405.199000 1 1.000000 7 0.000000
159 2 842.906000 -2928.460000 420.482000 1 1.000000 7 -3.000000
160 2 838.080000 -2935.520000 415.464000 1 1.000000 1 -3.000000
161 2 835.364000 -2944.080000 411.167000 1 1.000000 1 -3.000000
162 2 830.771000 -2952.730000 409.724000 1 1.000000 1 -3.000000
163 2 825.395000 -2959.800000 405.420000 1 1.000000 1 -3.000000
164 2 818.042000 -2966.370000 404.030000 1 1.000000 1 -3.000000
165 2 809.072000 -2969.090000 400.923000 1 1.000000 1 -3.000000
166 2 801.274000 -2970.520000 394.903000 1 1.000000 1 -3.000000
167 2 794.754000 -2970.700000 387.401000 1 1.000000 1 -3.000000
168 2 788.501000 -2975.890000 381.943000 1 1.000000 1 -3.000000
169 2 781.439000 -2980.500000 376.893000 1 1.000000 1 -3.000000
170 2 773.253000 -2982.830000 371.661000 1 1.000000 1 -3.000000
171 2 767.817000 -2989.080000 366.045000 1 1.000000 1 -3.000000
172 2 768.135000 -2995.470000 358.458000 1 1.000000 1 -3.000000
173 2 766.366000 -2998.410000 349.206000 1 1.000000 1 -3.000000
174 2 764.352000 -2999.780000 339.716000 1 1.000000 1 -3.000000
175 2 764.130000 -3002.020000 329.991000 1 1.000000 1 -3.000000
176 2 761.412000 -3006.980000 321.897000 1 1.000000 1 -3.000000
177 2 761.517000 -3011.110000 312.849000 1 1.000000 1 -3.000000
178 2 762.607000 -3017.040000 304.862000 1 1.000000 1 -3.000000
179 2 764.611000 -3024.320000 298.432000 1 1.000000 1 -3.000000
180 2 771.179000 -3027.060000 291.478000 1 1.000000 1 -3.000000
181 2 776.606000 -3025.760000 283.374000 1 1.000000 1 -3.000000
182 2 781.661000 -3025.280000 274.815000 1 1.000000 1 -3.000000
183 2 784.040000 -3027.480000 265.582000 1 1.000000 8 -3.000000
184 1 825.294000 -3005.130000 270.894000 1 1.000000 8 0.000000
185 3 803.859000 -2987.290000 291.931000 1 1.000000 8 0.000000
186 2 853.194000 -2971.850000 289.307000 1 1.000000 8 -3.000000
187 2 846.820000 -2970.090000 296.563000 1 1.000000 1 -3.000000
188 2 844.671000 -2967.530000 305.821000 1 1.000000 1 -3.000000
189 2 839.289000 -2965.620000 313.934000 1 1.000000 1 -3.000000
190 2 832.042000 -2966.070000 320.610000 1 1.000000 1 -3.000000
191 2 823.897000 -2965.200000 326.126000 1 1.000000 1 -3.000000
192 2 815.644000 -2962.720000 331.034000 1 1.000000 1 -3.000000
193 2 806.829000 -2960.480000 334.839000 1 1.000000 1 -3.000000
194 2 799.620000 -2956.710000 340.211000 1 1.000000 1 -3.000000
195 2 793.159000 -2949.200000 340.841000 1 1.000000 1 -3.000000
196 2 785.039000 -2943.960000 338.280000 1 1.000000 1 -3.000000
197 2 775.856000 -2942.200000 335.322000 1 1.000000 1 -3.000000
198 2 767.250000 -2941.140000 330.652000 1 1.000000 1 -3.000000
199 2 758.180000 -2940.650000 326.838000 1 1.000000 1 -3.000000
200 2 749.135000 -2938.240000 323.688000 1 1.000000 1 -3.000000
201 2 739.637000 -2936.260000 321.736000 1 1.000000 1 -3.000000
202 2 729.823000 -2935.260000 322.123000 1 1.000000 1 -3.000000
203 2 720.069000 -2934.330000 321.044000 1 1.000000 1 -3.000000
204 2 711.089000 -2931.660000 318.257000 1 1.000000 1 -3.000000
205 2 701.656000 -2930.570000 315.855000 1 1.000000 1 -3.000000
206 2 691.924000 -2930.660000 314.248000 1 1.000000 1 -3.000000
207 2 683.451000 -2933.090000 309.805000 1 1.000000 1 -3.000000
208 2 675.265000 -2937.390000 306.389000 1 1.000000 1 -3.000000
209 2 667.438000 -2942.350000 302.733000 1 1.000000 1 -3.000000
210 2 659.729000 -2948.360000 300.543000 1 1.000000 9 -3.000000
211 1 639.633000 -2929.790000 338.992000 1 1.000000 9 0.000000
212 3 657.533000 -2902.780000 325.568000 1 1.000000 9 0.000000
213 2 628.846000 -2894.120000 367.922000 1 1.000000 9 -3.000000
214 2 633.511000 -2887.290000 362.666000 1 1.000000 1 -3.000000
215 2 636.265000 -2879.070000 357.585000 1 1.000000 1 -3.000000
216 2 636.783000 -2872.170000 350.321000 1 1.000000 1 -3.000000
217 2 640.483000 -2865.300000 344.200000 1 1.000000 1 -3.000000
218 2 646.179000 -2860.230000 337.845000 1 1.000000 1 -3.000000
219 2 652.048000 -2857.550000 330.289000 1 1.000000 1 -3.000000
220 2 659.181000 -2856.550000 323.382000 1 1.000000 1 -3.000000
221 2 664.950000 -2858.870000 315.643000 1 1.000000 1 -3.000000
222 2 672.942000 -2858.470000 309.736000 1 1.000000 1 -3.000000
223 2 681.221000 -2857.560000 304.326000 1 1.000000 1 -3.000000
224 2 687.930000 -2859.210000 297.252000 1 1.000000 1 -3.000000
225 2 696.452000 -2860.940000 292.576000 1 1.000000 1 -3.000000
226 2 705.170000 -2858.830000 288.389000 1 1.000000 1 -3.000000
227 2 713.949000 -2857.270000 284.093000 1 1.000000 1 -3.000000
228 2 721.822000 -2856.600000 278.166000 1 1.000000 1 -3.000000
229 2 727.722000 -2857.540000 270.289000 1 1.000000 1 -3.000000
230 2 735.515000 -2860.030000 264.670000 1 1.000000 1 -3.000000
231 2 741.721000 -2863.330000 257.781000 1 1.000000 1 -3.000000
232 2 747.933000 -2867.270000 251.136000 1 1.000000 1 -3.000000
233 2 755.665000 -2866.110000 245.275000 1 1.000000 1 -3.000000
234 2 764.164000 -2865.340000 240.457000 1 1.000000 1 -3.000000
235 2 771.819000 -2862.980000 234.853000 1 1.000000 1 -3.000000
236 2 779.579000 -2861.300000 228.882000 1 1.000000 1 -3.000000
237 2 783.348000 -2860.840000 219.789000 1 1.000000 10 -3.000000
238 1 767.320000 -2818.740000 205.649000 1 1.000000 10 0.000000
239 3 749.166000 -2824.940000 235.028000 1 1.000000 10 0.000000
240 2 741.643000 -2779.540000 210.862000 1 1.000000 10 -3.000000
241 2 735.243000 -2780.460000 218.273000 1 1.000000 1 -3.000000
242 2 729.587000 -2782.500000 226.174000 1 1.000000 1 -3.000000
243 2 724.174000 -2785.380000 233.876000 1 1.000000 1 -3.000000
244 2 719.764000 -2788.750000 241.992000 1 1.000000 1 -3.000000
245 2 712.806000 -2792.440000 248.263000 1 1.000000 1 -3.000000
246 2 705.426000 -2794.520000 254.411000 1 1.000000 1 -3.000000
247 2 696.490000 -2796.800000 257.977000 1 1.000000 1 -3.000000
248 2 687.575000 -2799.080000 261.264000 1 1.000000 1 -3.000000
249 2 678.084000 -2800.310000 264.230000 1 1.000000 1 -3.000000
250 2 669.378000 -2800.870000 268.949000 1 1.000000 1 -3.000000
251 2 660.359000 -2798.370000 272.218000 1 1.000000 1 -3.000000
252 2 652.749000 -2793.130000 275.640000 1 1.000000 1 -3.000000
253 2 645.570000 -2786.620000 277.372000 1 1.000000 1 -3.000000
254 2 637.113000 -2783.030000 281.119000 1 1.000000 1 -3.000000
255 2 631.189000 -2776.420000 285.573000 1 1.000000 1 -3.000000
256 2 622.795000 -2772.800000 289.176000 1 1.000000 1 -3.000000
257 2 613.344000 -2775.400000 289.048000 1 1.000000 1 -3.000000
258 2 603.987000 -2778.050000 287.081000 1 1.000000 1 -3.000000
259 2 594.230000 -2778.720000 286.349000 1 1.000000 1 -3.000000
260 2 584.418000 -2779.690000 285.704000 1 1.000000 1 -3.000000
261 2 575.745000 -2784.080000 284.315000 1 1.000000 1 -3.000000
262 2 567.219000 -2788.950000 282.564000 1 1.000000 1 -3.000000
263 2 560.443000 -2795.630000 279.809000 1 1.000000 1 -3.000000
264 2 558.282000 -2805.200000 280.624000 1 1.000000 11 -3.000000
265 1 521.788000 -2794.150000 308.351000 1 1.000000 11 0.000000
266 3 537.771000 -2763.460000 303.704000 1 1.000000 11 0.000000
267 2 495.277000 -2764.420000 333.634000 1 1.000000 11 -3.000000
268 2 498.918000 -2755.260000 332.557000 1 1.000000 1 -3.000000
269 2 504.862000 -2747.320000 331.473000 1 1.000000 1 -3.000000
270 2 510.222000 -2739.350000 328.866000 1 1.000000 1 -3.000000
271 2 516.404000 -2732.510000 325.164000 1 1.000000 1 -3.000000
272 2 524.027000 -2726.850000 322.202000 1 1.000000 1 -3.000000
273 2 530.748000 -2719.870000 319.950000 1 1.000000 1 -3.000000
274 2 536.603000 -2712.470000 322.861000 1 1.000000 1 -3.000000
275 2 544.775000 -2707.130000 323.985000 1 1.000000 1 -3.000000
276 2 552.701000 -2701.430000 325.662000 1 1.000000 1 -3.000000
277 2 560.129000 -2695.230000 323.826000 1 1.000000 1 -3.000000
278 2 565.793000 -2686.980000 323.922000 1 1.000000 1 -3.000000
279 2 573.041000 -2682.370000 328.551000 1 1.000000 1 -3.000000
280 2 579.640000 -2678.660000 335.027000 1 1.000000 1 -3.000000
281 2 584.519000 -2672.350000 341.076000 1 1.000000 1 -3.000000
282 2 588.289000 -2666.120000 347.713000 1 1.000000 1 -3.000000
283 2 589.888000 -2657.830000 352.896000 1 1.000000 1 -3.000000
284 2 590.436000 -2648.220000 355.763000 1 1.000000 1 -3.000000
285 2 587.920000 -2640.960000 362.015000 1 1.000000 1 -3.000000
286 2 584.865000 -2634.040000 368.377000 1 1.000000 1 -3.000000
287 2 580.785000 -2625.390000 371.134000 1 1.000000 1 -3.000000
288 2 577.024000 -2616.720000 374.429000 1 1.000000 1 -3.000000
289 2 575.333000 -2607.840000 378.618000 1 1.000000 1 -3.000000
290 2 576.414000 -2599.460000 383.815000 1 1.000000 1 -3.000000
291 2 576.354000 -2589.940000 386.489000 1 1.000000 12 -3.000000
292 1 541.622000 -2588.130000 418.437000 1 1.000000 12 0.000000
293 3 529.172000 -2610.100000 394.279000 1 1.000000 12 0.000000
294 2 498.205000 -2597.940000 434.067000 1 1.000000 12 -3.000000
295 2 498.432000 -2607.340000 430.548000 1 1.000000 1 -3.000000
296 2 495.519000 -2616.060000 426.778000 1 1.000000 1 -3.000000
297 2 494.432000 -2622.360000 419.180000 1 1.000000 1 -3.000000
298 2 495.233000 -2630.780000 414.198000 1 1.000000 1 -3.000000
299 2 494.849000 -2638.870000 408.691000 1 1.000000 1 -3.000000
300 2 494.989000 -2647.520000 403.867000 1 1.000000 1 -3.000000
301 2 495.303000 -2657.310000 403.369000 1 1.000000 1 -3.000000
302 2 498.972000 -2665.970000 400.403000 1 1.000000 1 -3.000000
303 2 498.375000 -2674.800000 396.119000 1 1.000000 1 -3.000000
304 2 496.990000 -2684.290000 393.545000 1 1.000000 1 -3.000000
305 2 493.013000 -2693.290000 392.155000 1 1.000000 1 -3.000000
306 2 492.324000 -2703.240000 391.961000 1 1.000000 1 -3.000000
307 2 490.091000 -2712.830000 391.155000 1 1.000000 1 -3.000000
308 2 490.098000 -2722.630000 389.241000 1 1.000000 1 -3.000000
309 2 487.590000 -2732.180000 389.653000 1 1.000000 1 -3.000000
310 2 484.806000 -2741.390000 392.623000 1 1.000000 1 -3.000000
311 2 484.988000 -2750.330000 396.698000 1 1.000000 1 -3.000000
312 2 483.947000 -2759.070000 401.344000 1 1.000000 1 -3.000000
313 2 485.623000 -2768.390000 404.056000 1 1.000000 1 -3.000000
314 2 486.986000 -2778.220000 404.918000 1 1.000000 1 -3.000000
315 2 488.185000 -2787.710000 407.638000 1 1.000000 1 -3.000000
316 2 488.160000 -2797.530000 408.771000 1 1.000000 1 -3.000000
317 2 490.528000 -2806.740000 405.842000 1 1.000000 1 -3.000000
318 2 493.572000 -2815.100000 401.459000 1 1.000000 13 -3.000000
319 1 515.358000 -2825.720000 441.971000 1 1.000000 13 0.000000
320 3 494.369000 -2799.040000 450.902000 1 1.000000 13 0.000000
321 2 524.425000 -2819.690000 487.868000 1 1.000000 13 -3.000000
322 2 519.200000 -2811.420000 489.033000 1 1.000000 1 -3.000000
323 2 514.804000 -2802.660000 489.341000 1 1.000000 1 -3.000000
324 2 507.891000 -2795.880000 491.765000 1 1.000000 1 -3.000000
325 2 502.368000 -2787.690000 493.106000 1 1.000000 1 -3.000000
326 2 501.226000 -2778.150000 495.753000 1 1.000000 1 -3.000000
327 2 502.800000 -2768.500000 496.810000 1 1.000000 1 -3.000000
328 2 502.994000 -2758.820000 498.593000 1 1.000000 1 -3.000000
329 2 503.459000 -2749.020000 497.880000 1 1.000000 1 -3.000000
330 2 505.908000 -2739.460000 496.288000 1 1.000000 1 -3.000000
331 2 505.190000 -2730.740000 500.715000 1 1.000000 1 -3.000000
332 2 509.525000 -2723.850000 506.307000 1 1.000000 1 -3.000000
333 2 517.830000 -2718.810000 507.688000 1 1.000000 1 -3.000000
334 2 527.506000 -2717.880000 509.910000 1 1.000000 1 -3.000000
335 2 536.333000 -2718.690000 514.385000 1 1.000000 1 -3.000000
336 2 545.258000 -2719.500000 518.596000 1 1.000000 1 -3.000000
337 2 554.470000 -2719.370000 522.435000 1 1.000000 1 -3.000000
338 2 563.229000 -2719.720000 527.128000 1 1.000000 1 -3.000000
339 2 570.962000 -2721.420000 533.065000 1 1.000000 1 -3.000000
340 2 579.307000 -2724.330000 537.323000 1 1.000000 1 -3.000000
341 2 587.118000 -2729.250000 541.030000 1 1.000000 1 -3.000000
342 2 595.628000 -2734.010000 542.733000 1 1.000000 1 -3.000000
343 2 604.661000 -2737.400000 544.723000 1 1.000000 1 -3.000000
344 2 614.527000 -2738.440000 545.840000 1 1.000000 1 -3.000000
345 2 623.350000 -2742.010000 548.458000 1 1.000000 14 -3.000000
346 1 651.166000 -2707.130000 533.026000 1 1.000000 14 0.000000
347 3 618.812000 -2695.440000 526.237000 1 1.000000 14 0.000000
348 2 658.984000 -2665.800000 511.651000 1 1.000000 14 -3.000000
349 2 649.369000 -2664.410000 511.125000 1 1.000000 1 -3.000000
350 2 639.866000 -2662.570000 509.000000 1 1.000000 1 -3.000000
351 2 630.402000 -2660.960000 506.509000 1 1.000000 1 -3.000000
352 2 620.468000 -2660.460000 506.071000 1 1.000000 1 -3.000000
353 2 610.919000 -2660.080000 508.609000 1 1.000000 1 -3.000000
354 2 601.098000 -2660.360000 508.603000 1 1.000000 1 -3.000000
355 2 592.344000 -2656.240000 506.373000 1 1.000000 1 -3.000000
356 2 585.067000 -2650.040000 503.836000 1 1.000000 1 -3.000000
357 2 577.655000 -2649.180000 497.385000 1 1.000000 1 -3.000000
358 2 568.844000 -2646.780000 493.368000 1 1.000000 1 -3.000000
359 2 560.526000 -2647.210000 487.922000 1 1.000000 1 -3.000000
360 2 551.893000 -2647.160000 483.145000 1 1.000000 1 -3.000000
361 2 543.514000 -2646.280000 478.218000 1 1.000000 1 -3.000000
362 2 533.644000 -2646.980000 476.981000 1 1.000000 1 -3.000000
363 2 523.999000 -2645.000000 477.783000 1 1.000000 1 -3.000000
364 2 514.337000 -2645.960000 479.799000 1 1.000000 1 -3.000000
365 2 504.695000 -2648.490000 480.842000 1 1.000000 1 -3.000000
366 2 494.765000 -2647.330000 481.409000 1 1.000000 1 -3.000000
367 2 484.975000 -2648.310000 481.104000 1 1.000000 1 -3.000000
368 2 475.615000 -2650.150000 478.462000 1 1.000000 1 -3.000000
369 2 467.956000 -2654.600000 474.062000 1 1.000000 1 -3.000000
370 2 459.416000 -2656.100000 469.206000 1 1.000000 1 -3.000000
371 2 451.652000 -2659.870000 464.319000 1 1.000000 1 -3.000000
372 2 443.162000 -2663.170000 460.388000 1 1.000000 15 -3.000000
373 1 424.942000 -2699.050000 485.069000 1 1.000000 15 0.000000
374 3 450.784000 -2687.450000 505.701000 1 1.000000 15 0.000000
375 2 421.331000 -2726.460000 523.242000 1 1.000000 15 -3.000000
376 2 426.352000 -2720.980000 529.705000 1 1.000000 1 -3.000000
377 2 428.309000 -2714.050000 536.668000 1 1.000000 1 -3.000000
378 2 432.713000 -2708.520000 543.492000 1 1.000000 1 -3.000000
379 2 437.094000 -2703.500000 550.668000 1 1.000000 1 -3.000000
380 2 440.688000 -2699.620000 559.080000 1 1.000000 1 -3.000000
381 2 443.832000 -2693.500000 566.215000 1 1.000000 1 -3.000000
382 2 446.342000 -2685.580000 571.863000 1 1.000000 1 -3.000000
383 2 448.490000 -2679.130000 578.989000 1 1.000000 1 -3.000000
384 2 453.312000 -2672.850000 584.812000 1 1.000000 1 -3.000000
385 2 456.665000 -2664.390000 588.778000 1 1.000000 1 -3.000000
386 2 456.953000 -2654.590000 590.535000 1 1.000000 1 -3.000000
387 2 459.714000 -2645.450000 593.103000 1 1.000000 1 -3.000000
388 2 463.592000 -2637.030000 596.448000 1 1.000000 1 -3.000000
389 2 460.947000 -2628.110000 599.992000 1 1.000000 1 -3.000000
390 2 457.611000 -2619.520000 603.663000 1 1.000000 1 -3.000000
391 2 455.973000 -2610.090000 605.895000 1 1.000000 1 -3.000000
392 2 454.959000 -2601.670000 611.285000 1 1.000000 1 -3.000000
393 2 450.764000 -2593.310000 614.631000 1 1.000000 1 -3.000000
394 2 446.930000 -2584.480000 617.137000 1 1.000000 1 -3.000000
395 2 442.002000 -2576.250000 618.946000 1 1.000000 1 -3.000000
396 2 437.320000 -2567.830000 621.256000 1 1.000000 1 -3.000000
397 2 432.131000 -2559.650000 622.919000 1 1.000000 1 -3.000000
398 2 427.465000 -2551.950000 627.025000 1 1.000000 1 -3.000000
399 2 419.205000 -2546.920000 628.816000 1 1.000000 16 -3.000000
400 1 403.544000 -2526.610000 589.203000 1 1.000000 16 0.000000
401 3 433.419000 -2541.780000 579.027000 1 1.000000 16 0.000000
402 2 405.760000 -2516.690000 543.073000 1 1.000000 16 -3.000000
403 2 414.948000 -2520.440000 544.049000 1 1.000000 1 -3.000000
404 2 424.026000 -2523.920000 543.109000 1 1.000000 1 -3.000000
405 2 431.797000 -2528.690000 539.220000 1 1.000000 1 -3.000000
406 2 440.656000 -2532.330000 536.925000 1 1.000000 1 -3.000000
407 2 449.702000 -2535.360000 539.112000 1 1.000000 1 -3.000000
408 2 458.287000 -2539.350000 542.149000 1 1.000000 1 -3.000000
409 2 464.429000 -2541.300000 549.565000 1 1.000000 1 -3.000000
410 2 471.576000 -2543.520000 556.019000 1 1.000000 1 -3.000000
411 2 479.354000 -2543.770000 562.194000 1 1.000000 1 -3.000000
412 2 487.854000 -2548.670000 564.025000 1 1.000000 1 -3.000000
413 2 497.030000 -2552.200000 564.952000 1 1.000000 1 -3.000000
414 2 505.968000 -2556.350000 566.170000 1 1.000000 1 -3.000000
415 2 515.426000 -2559.090000 565.427000 1 1.000000 1 -3.000000
416 2 524.662000 -2561.790000 562.899000 1 1.000000 1 -3.000000
417 2 534.372000 -2563.160000 561.412000 1 1.000000 1 -3.000000
418 2 544.132000 -2563.640000 562.710000 1 1.000000 1 -3.000000
419 2 553.750000 -2565.280000 561.436000 1 1.000000 1 -3.000000
420 2 563.369000 -2565.280000 564.159000 1 1.000000 1 -3.000000
421 2 573.268000 -2565.930000 564.156000 1 1.000000 1 -3.000000
422 2 581.431000 -2569.530000 568.444000 1 1.000000 1 -3.000000
423 2 589.130000 -2571.960000 574.227000 1 1.000000 1 -3.000000
424 2 596.251000 -2576.320000 579.644000 1 1.000000 1 -3.000000
425 2 602.499000 -2578.890000 586.789000 1 1.000000 1 -3.000000
426 2 607.179000 -2583.130000 594.329000 1 1.000000 17 -3.000000
427 1 570.410000 -2573.210000 622.244000 1 1.000000 17 0.000000
428 3 565.987000 -2551.730000 595.207000 1 1.000000 17 0.000000
429 2 528.743000 -2552.800000 631.282000 1 1.000000 17 -3.000000
430 2 526.730000 -2546.200000 624.269000 1 1.000000 1 -3.000000
431 2 523.187000 -2543.190000 615.604000 1 1.000000 1 -3.000000
432 2 523.035000 -2538.370000 606.872000 1 1.000000 1 -3.000000
433 2 525.008000 -2534.090000 598.205000 1 1.000000 1 -3.000000
434 2 526.846000 -2528.310000 590.553000 1 1.000000 1 -3.000000
435 2 532.562000 -2523.190000 584.217000 1 1.000000 1 -3.000000
436 2 539.486000 -2521.760000 577.331000 1 1.000000 1 -3.000000
437 2 547.134000 -2520.950000 571.094000 1 1.000000 1 -3.000000
438 2 554.954000 -2516.900000 566.672000 1 1.000000 1 -3.000000
439 2 562.089000 -2511.840000 562.056000 1 1.000000 1 -3.000000
440 2 569.622000 -2507.410000 557.162000 1 1.000000 1 -3.000000
441 2 577.227000 -2502.110000 553.504000 1 1.000000 1 -3.000000
442 2 585.001000 -2496.040000 553.597000 1 1.000000 1 -3.000000
443 2 593.987000 -2492.580000 551.995000 1 1.000000 1 -3.000000
444 2 603.001000 -2488.600000 550.889000 1 1.000000 1 -3.000000
445 2 612.324000 -2487.340000 547.999000 1 1.000000 1 -3.000000
446 2 621.536000 -2485.420000 544.649000 1 1.000000 1 -3.000000
447 2 630.329000 -2482.370000 541.330000 1 1.000000 1 -3.000000
448 2 639.027000 -2481.620000 536.606000 1 1.000000 1 -3.000000
449 2 646.827000 -2480.960000 530.596000 1 1.000000 1 -3.000000
450 2 655.269000 -2477.700000 526.719000 1 1.000000 1 -3.000000
451 2 663.584000 -2472.690000 525.904000 1 1.000000 1 -3.000000
452 2 672.720000 -2469.020000 525.711000 1 1.000000 1 -3.000000
453 2 681.672000 -2465.330000 527.678000 1 1.000000 18 -3.000000
454 1 700.427000 -2502.730000 505.900000 1 1.000000 18 0.000000
455 3 668.034000 -2513.320000 513.387000 1 1.000000 18 0.000000
456 2 700.550000 -2548.020000 492.445000 1 1.000000 18 -3.000000
457 2 690.840000 -2550.260000 492.521000 1 1.000000 1 -3.000000
458 2 681.655000 -2552.860000 494.796000 1 1.000000 1 -3.000000
459 2 672.508000 -2555.840000 496.795000 1 1.000000 1 -3.000000
460 2 662.896000 -2555.640000 498.872000 1 1.000000 1 -3.000000
461 2 653.536000 -2552.890000 500.520000 1 1.000000 1 -3.000000
462 2 644.213000 -2549.890000 501.554000 1 1.000000 1 -3.000000
463 2 635.893000 -2544.670000 502.586000 1 1.000000 1 -3.000000
464 2 627.915000 -2538.860000 503.407000 1 1.000000 1 -3.000000
465 2 623.818000 -2530.180000 505.625000 1 1.000000 1 -3.000000