LAMMPS data file

4067 atoms
4067 ellipsoids
4516 bonds
8882 angles
0 dihedrals

3 atom types
5 bond types
12 angle types
0 dihedral types

-4631.092947 4670.465898 xlo xhi
-4631.092947 4670.465898 ylo yhi
-4631.092947 4670.465898 zlo zhi

Masses

1 196016.000000
2 1950.000000
3 19500.000000

Atoms

1 2 648.716000 -3190.430000 743.652000 1 1.000000 1 -3.000000
2 2 652.820000 -3191.870000 734.711000 1 1.000000 1 -3.000000
3 2 659.449000 -3193.880000 727.612000 1 1.000000 1 -3.000000
4 2 665.197000 -3196.220000 719.972000 1 1.000000 1 -3.000000
5 2 674.993000 -3196.910000 718.703000 1 1.000000 1 -3.000000
6 2 684.790000 -3195.540000 718.702000 1 1.000000 1 -3.000000
7 2 694.527000 -3193.830000 718.635000 1 1.000000 1 -3.000000
8 2 701.305000 -3192.020000 711.662000 1 1.000000 1 -3.000000
9 2 706.913000 -3191.460000 703.474000 1 1.000000 1 -3.000000
10 2 713.233000 -3189.450000 696.203000 1 1.000000 1 -3.000000
11 2 719.643000 -3185.670000 689.553000 1 1.000000 1 -3.000000
12 2 724.021000 -3182.130000 681.380000 1 1.000000 1 -3.000000
13 2 726.161000 -3177.910000 672.752000 1 1.000000 1 -3.000000
14 2 727.357000 -3175.100000 663.216000 1 1.000000 1 -3.000000
15 2 727.840000 -3177.060000 653.614000 1 1.000000 1 -3.000000
16 2 728.439000 -3179.400000 643.924000 1 1.000000 1 -3.000000
17 2 731.006000 -3183.720000 635.487000 1 1.000000 1 -3.000000
18 2 734.099000 -3187.810000 626.934000 1 1.000000 1 -3.000000
19 2 737.867000 -3192.320000 618.870000 1 1.000000 1 -3.000000
20 2 740.328000 -3197.320000 610.673000 1 1.000000 1 -3.000000
21 2 741.978000 -3201.810000 601.890000 1 1.000000 2 -3.000000
22 1 755.316000 -3160.960000 582.415000 1 1.000000 2 0.000000
23 3 735.423000 -3150.880000 609.282000 1 1.000000 2 0.000000
24 2 754.236000 -3114.080000 577.829000 1 1.000000 2 -3.000000
25 2 751.819000 -3110.410000 586.848000 1 1.000000 1 -3.000000
26 2 746.431000 -3107.910000 594.905000 1 1.000000 1 -3.000000
27 2 742.617000 -3107.280000 603.975000 1 1.000000 1 -3.000000
28 2 737.015000 -3105.470000 611.936000 1 1.000000 1 -3.000000
29 2 729.758000 -3105.820000 618.659000 1 1.000000 1 -3.000000
30 2 720.578000 -3107.230000 622.276000 1 1.000000 1 -3.000000
31 2 712.583000 -3105.230000 627.799000 1 1.000000 1 -3.000000
32 2 703.065000 -3106.810000 629.643000 1 1.000000 1 -3.000000
33 2 694.740000 -3110.970000 632.699000 1 1.000000 1 -3.000000
34 2 686.449000 -3116.510000 633.690000 1 1.000000 1 -3.000000
35 2 681.654000 -3125.090000 633.506000 1 1.000000 1 -3.000000
36 2 675.785000 -3132.900000 635.518000 1 1.000000 1 -3.000000
37 2 669.165000 -3138.800000 639.686000 1 1.000000 1 -3.000000
38 2 660.910000 -3144.110000 641.267000 1 1.000000 1 -3.000000
39 2 654.176000 -3151.470000 641.578000 1 1.000000 1 -3.000000
40 2 646.671000 -3157.870000 641.299000 1 1.000000 1 -3.000000
41 2 638.781000 -3163.800000 642.235000 1 1.000000 1 -3.000000
42 2 630.417000 -3169.280000 642.517000 1 1.000000 1 -3.000000
43 2 623.010000 -3174.480000 646.437000 1 1.000000 1 -3.000000
44 2 617.472000 -3182.530000 648.109000 1 1.000000 1 -3.000000
45 2 611.993000 -3190.060000 651.290000 1 1.000000 1 -3.000000
46 2 608.905000 -3198.300000 655.931000 1 1.000000 1 -3.000000
47 2 604.072000 -3205.980000 660.175000 1 1.000000 1 -3.000000
48 2 596.750000 -3211.530000 664.002000 1 1.000000 3 -3.000000
49 1 633.538000 -3239.720000 655.531000 1 1.000000 3 0.000000
50 3 647.635000 -3207.790000 654.482000 1 1.000000 3 0.000000
51 2 678.547000 -3248.170000 644.073000 1 1.000000 3 -3.000000
52 2 676.814000 -3238.210000 644.088000 1 1.000000 1 -3.000000
53 2 675.158000 -3229.070000 640.989000 1 1.000000 1 -3.000000
54 2 674.892000 -3222.610000 633.583000 1 1.000000 1 -3.000000
55 2 677.784000 -3215.710000 627.035000 1 1.000000 1 -3.000000
56 2 681.076000 -3208.650000 621.047000 1 1.000000 1 -3.000000
57 2 684.360000 -3202.510000 613.982000 1 1.000000 1 -3.000000
58 2 686.149000 -3195.440000 607.456000 1 1.000000 1 -3.000000
59 2 690.161000 -3190.880000 599.580000 1 1.000000 1 -3.000000
60 2 692.822000 -3186.160000 591.330000 1 1.000000 1 -3.000000
61 2 697.565000 -3182.950000 583.324000 1 1.000000 1 -3.000000
62 2 699.835000 -3177.980000 575.122000 1 1.000000 1 -3.000000
63 2 699.661000 -3171.660000 567.451000 1 1.000000 1 -3.000000
64 2 702.113000 -3165.400000 560.346000 1 1.000000 1 -3.000000
65 2 708.827000 -3159.490000 555.878000 1 1.000000 1 -3.000000
66 2 715.637000 -3153.900000 551.355000 1 1.000000 1 -3.000000
67 2 721.705000 -3148.560000 545.619000 1 1.000000 1 -3.000000
68 2 727.378000 -3145.150000 538.089000 1 1.000000 1 -3.000000
69 2 734.935000 -3141.340000 532.937000 1 1.000000 1 -3.000000
70 2 741.900000 -3138.550000 526.412000 1 1.000000 1 -3.000000
71 2 749.197000 -3135.410000 520.603000 1 1.000000 1 -3.000000
72 2 756.576000 -3130.300000 516.594000 1 1.000000 1 -3.000000
73 2 762.207000 -3123.630000 511.914000 1 1.000000 1 -3.000000
74 2 769.140000 -3116.640000 510.528000 1 1.000000 1 -3.000000
75 2 776.499000 -3111.180000 507.264000 1 1.000000 4 -3.000000
76 1 765.131000 -3069.720000 526.867000 1 1.000000 4 0.000000
77 3 737.417000 -3089.870000 533.888000 1 1.000000 4 0.000000
78 2 737.382000 -3041.230000 552.051000 1 1.000000 4 -3.000000
79 2 730.010000 -3046.890000 555.347000 1 1.000000 1 -3.000000
80 2 723.453000 -3053.180000 558.861000 1 1.000000 1 -3.000000
81 2 719.045000 -3060.890000 563.076000 1 1.000000 1 -3.000000
82 2 713.591000 -3068.750000 565.762000 1 1.000000 1 -3.000000
83 2 708.354000 -3077.130000 565.950000 1 1.000000 1 -3.000000
84 2 701.827000 -3084.060000 563.216000 1 1.000000 1 -3.000000
85 2 694.143000 -3089.620000 560.130000 1 1.000000 1 -3.000000
86 2 687.538000 -3096.790000 558.827000 1 1.000000 1 -3.000000
87 2 682.765000 -3105.010000 556.263000 1 1.000000 1 -3.000000
88 2 677.622000 -3113.220000 554.299000 1 1.000000 1 -3.000000
89 2 675.137000 -3121.860000 550.314000 1 1.000000 1 -3.000000
90 2 671.830000 -3130.690000 547.073000 1 1.000000 1 -3.000000
91 2 668.803000 -3138.940000 542.775000 1 1.000000 1 -3.000000
92 2 664.875000 -3147.810000 540.382000 1 1.000000 1 -3.000000
93 2 657.193000 -3154.030000 539.627000 1 1.000000 1 -3.000000
94 2 651.644000 -3162.300000 539.054000 1 1.000000 1 -3.000000
95 2 645.627000 -3169.890000 541.052000 1 1.000000 1 -3.000000
96 2 638.157000 -3176.330000 541.533000 1 1.000000 1 -3.000000
97 2 630.467000 -3182.460000 542.557000 1 1.000000 1 -3.000000
98 2 621.387000 -3186.410000 543.838000 1 1.000000 1 -3.000000
99 2 613.134000 -3188.500000 548.904000 1 1.000000 1 -3.000000
100 2 605.372000 -3194.000000 551.855000 1 1.000000 1 -3.000000
101 2 599.968000 -3200.040000 557.541000 1 1.000000 1 -3.000000
102 2 593.378000 -3207.110000 559.731000 1 1.000000 5 -3.000000
103 1 571.362000 -3210.370000 518.128000 1 1.000000 5 0.000000
104 3 576.843000 -3176.050000 521.560000 1 1.000000 5 0.000000
105 2 554.641000 -3192.470000 477.762000 1 1.000000 5 -3.000000
106 2 562.688000 -3187.550000 475.015000 1 1.000000 1 -3.000000
107 2 569.961000 -3180.910000 475.202000 1 1.000000 1 -3.000000
108 2 577.019000 -3173.870000 475.880000 1 1.000000 1 -3.000000
109 2 581.060000 -3165.080000 477.516000 1 1.000000 1 -3.000000
110 2 586.846000 -3158.320000 482.083000 1 1.000000 1 -3.000000
111 2 590.766000 -3150.380000 486.644000 1 1.000000 1 -3.000000
112 2 590.696000 -3142.600000 492.839000 1 1.000000 1 -3.000000
113 2 593.705000 -3134.520000 497.733000 1 1.000000 1 -3.000000
114 2 596.715000 -3125.320000 499.708000 1 1.000000 1 -3.000000
115 2 597.438000 -3115.600000 498.969000 1 1.000000 1 -3.000000
116 2 599.821000 -3106.020000 499.750000 1 1.000000 1 -3.000000
117 2 603.628000 -3097.330000 502.075000 1 1.000000 1 -3.000000
118 2 604.136000 -3089.210000 507.655000 1 1.000000 1 -3.000000
119 2 607.364000 -3083.210000 514.711000 1 1.000000 1 -3.000000
120 2 606.189000 -3075.450000 520.843000 1 1.000000 1 -3.000000
121 2 601.384000 -3069.170000 526.545000 1 1.000000 1 -3.000000
122 2 601.230000 -3062.520000 533.935000 1 1.000000 1 -3.000000
123 2 602.088000 -3056.270000 541.361000 1 1.000000 1 -3.000000
124 2 604.965000 -3052.840000 550.189000 1 1.000000 1 -3.000000
125 2 611.136000 -3051.440000 557.790000 1 1.000000 1 -3.000000
126 2 619.162000 -3052.710000 563.412000 1 1.000000 1 -3.000000
127 2 627.768000 -3054.930000 567.567000 1 1.000000 1 -3.000000
128 2 636.534000 -3057.030000 571.683000 1 1.000000 1 -3.000000
129 2 645.835000 -3059.780000 573.568000 1 1.000000 6 -3.000000
130 1 634.903000 -3062.680000 619.463000 1 1.000000 6 0.000000
131 3 606.785000 -3076.340000 603.579000 1 1.000000 6 0.000000
132 2 607.664000 -3076.010000 655.494000 1 1.000000 6 -3.000000
133 2 598.982000 -3075.400000 650.800000 1 1.000000 1 -3.000000
134 2 590.008000 -3079.790000 650.834000 1 1.000000 1 -3.000000
135 2 582.972000 -3086.620000 649.645000 1 1.000000 1 -3.000000
136 2 575.355000 -3092.770000 647.885000 1 1.000000 1 -3.000000
137 2 567.697000 -3097.680000 644.229000 1 1.000000 1 -3.000000
138 2 562.107000 -3105.810000 644.225000 1 1.000000 1 -3.000000
139 2 556.190000 -3113.810000 645.021000 1 1.000000 1 -3.000000
140 2 548.369000 -3119.280000 647.264000 1 1.000000 1 -3.000000
141 2 539.552000 -3121.800000 651.104000 1 1.000000 1 -3.000000
142 2 531.197000 -3123.650000 656.214000 1 1.000000 1 -3.000000
143 2 522.774000 -3127.130000 660.072000 1 1.000000 1 -3.000000
144 2 516.112000 -3131.060000 666.070000 1 1.000000 1 -3.000000
145 2 509.448000 -3133.200000 673.068000 1 1.000000 1 -3.000000
146 2 501.541000 -3133.820000 678.938000 1 1.000000 1 -3.000000
147 2 493.161000 -3132.840000 684.002000 1 1.000000 1 -3.000000
148 2 486.076000 -3131.820000 690.776000 1 1.000000 1 -3.000000
149 2 479.139000 -3130.550000 697.835000 1 1.000000 1 -3.000000
150 2 470.601000 -3130.680000 702.682000 1 1.000000 1 -3.000000
151 2 464.791000 -3128.740000 710.598000 1 1.000000 1 -3.000000
152 2 461.925000 -3124.160000 718.901000 1 1.000000 1 -3.000000
153 2 463.364000 -3121.030000 728.175000 1 1.000000 1 -3.000000
154 2 467.539000 -3115.480000 735.283000 1 1.000000 1 -3.000000
155 2 471.985000 -3111.790000 743.428000 1 1.000000 1 -3.000000
156 2 474.486000 -3105.120000 750.348000 1 1.000000 7 -3.000000
157 1 468.696000 -3065.180000 725.958000 1 1.000000 7 0.000000
158 3 493.612000 -3082.160000 708.069000 1 1.000000 7 0.000000
159 2 476.237000 -3036.930000 688.927000 1 1.000000 7 -3.000000
160 2 478.415000 -3044.840000 683.193000 1 1.000000 1 -3.000000
161 2 479.696000 -3052.790000 677.392000 1 1.000000 1 -3.000000
162 2 481.996000 -3060.340000 671.453000 1 1.000000 1 -3.000000
163 2 483.114000 -3067.240000 664.481000 1 1.000000 1 -3.000000
164 2 481.013000 -3073.850000 657.380000 1 1.000000 1 -3.000000
165 2 476.612000 -3080.120000 651.010000 1 1.000000 1 -3.000000
166 2 469.377000 -3086.170000 648.272000 1 1.000000 1 -3.000000
167 2 461.306000 -3089.780000 643.975000 1 1.000000 1 -3.000000
168 2 452.156000 -3093.140000 641.943000 1 1.000000 1 -3.000000
169 2 442.387000 -3094.560000 640.446000 1 1.000000 1 -3.000000
170 2 432.580000 -3094.270000 639.257000 1 1.000000 1 -3.000000
171 2 423.362000 -3094.510000 642.712000 1 1.000000 1 -3.000000
172 2 415.087000 -3091.440000 647.406000 1 1.000000 1 -3.000000
173 2 409.793000 -3087.310000 654.692000 1 1.000000 1 -3.000000
174 2 407.800000 -3082.650000 663.243000 1 1.000000 1 -3.000000
175 2 404.530000 -3081.230000 672.588000 1 1.000000 1 -3.000000
176 2 399.827000 -3080.410000 681.163000 1 1.000000 1 -3.000000
177 2 393.107000 -3081.520000 688.366000 1 1.000000 1 -3.000000
178 2 386.862000 -3082.470000 695.876000 1 1.000000 1 -3.000000
179 2 380.964000 -3081.940000 703.766000 1 1.000000 1 -3.000000
180 2 374.499000 -3078.980000 710.722000 1 1.000000 1 -3.000000
181 2 371.598000 -3078.770000 720.252000 1 1.000000 1 -3.000000
182 2 367.551000 -3080.320000 729.131000 1 1.000000 1 -3.000000
183 2 364.583000 -3085.620000 736.938000 1 1.000000 8 -3.000000
184 1 391.690000 -3069.600000 772.055000 1 1.000000 8 0.000000
185 3 403.909000 -3052.430000 744.119000 1 1.000000 8 0.000000
186 2 427.602000 -3044.330000 789.557000 1 1.000000 8 -3.000000
187 2 431.525000 -3040.500000 781.224000 1 1.000000 1 -3.000000
188 2 435.095000 -3038.090000 772.349000 1 1.000000 1 -3.000000
189 2 436.126000 -3036.250000 762.715000 1 1.000000 1 -3.000000
190 2 434.370000 -3030.860000 754.637000 1 1.000000 1 -3.000000
191 2 431.211000 -3025.020000 747.236000 1 1.000000 1 -3.000000
192 2 426.962000 -3017.980000 741.703000 1 1.000000 1 -3.000000
193 2 422.065000 -3012.520000 734.987000 1 1.000000 1 -3.000000
194 2 420.131000 -3007.380000 726.758000 1 1.000000 1 -3.000000
195 2 419.722000 -3003.170000 717.793000 1 1.000000 1 -3.000000
196 2 416.724000 -2998.150000 709.802000 1 1.000000 1 -3.000000
197 2 419.105000 -2992.630000 701.991000 1 1.000000 1 -3.000000
198 2 418.253000 -2985.910000 694.693000 1 1.000000 1 -3.000000
199 2 417.175000 -2981.420000 685.912000 1 1.000000 1 -3.000000
200 2 415.844000 -2976.980000 677.135000 1 1.000000 1 -3.000000
201 2 412.657000 -2975.510000 667.924000 1 1.000000 1 -3.000000
202 2 413.818000 -2972.890000 658.293000 1 1.000000 1 -3.000000
203 2 412.992000 -2968.780000 649.368000 1 1.000000 1 -3.000000
204 2 411.035000 -2966.810000 639.903000 1 1.000000 1 -3.000000
205 2 407.907000 -2963.690000 631.003000 1 1.000000 1 -3.000000
206 2 403.526000 -2960.720000 622.707000 1 1.000000 1 -3.000000
207 2 400.159000 -2959.220000 613.455000 1 1.000000 1 -3.000000
208 2 396.893000 -2957.100000 604.406000 1 1.000000 1 -3.000000
209 2 394.793000 -2953.730000 595.336000 1 1.000000 1 -3.000000
210 2 390.563000 -2952.330000 586.503000 1 1.000000 9 -3.000000
211 1 402.937000 -2906.810000 587.021000 1 1.000000 9 0.000000
212 3 420.407000 -2920.240000 614.243000 1 1.000000 9 0.000000
213 2 423.468000 -2868.970000 606.403000 1 1.000000 9 -3.000000
214 2 430.545000 -2874.550000 610.314000 1 1.000000 1 -3.000000
215 2 437.177000 -2878.640000 616.424000 1 1.000000 1 -3.000000
216 2 443.728000 -2883.340000 622.264000 1 1.000000 1 -3.000000
217 2 448.052000 -2889.470000 628.551000 1 1.000000 1 -3.000000
218 2 454.354000 -2894.500000 634.206000 1 1.000000 1 -3.000000
219 2 460.131000 -2895.610000 642.123000 1 1.000000 1 -3.000000
220 2 464.444000 -2895.390000 651.042000 1 1.000000 1 -3.000000
221 2 470.523000 -2897.440000 658.532000 1 1.000000 1 -3.000000
222 2 474.924000 -2900.170000 666.801000 1 1.000000 1 -3.000000
223 2 480.391000 -2904.320000 673.892000 1 1.000000 1 -3.000000
224 2 488.106000 -2907.800000 678.800000 1 1.000000 1 -3.000000
225 2 496.804000 -2911.990000 681.022000 1 1.000000 1 -3.000000
226 2 504.917000 -2915.790000 685.450000 1 1.000000 1 -3.000000
227 2 512.234000 -2921.460000 688.754000 1 1.000000 1 -3.000000
228 2 521.510000 -2924.690000 689.749000 1 1.000000 1 -3.000000
229 2 530.915000 -2927.430000 688.479000 1 1.000000 1 -3.000000
230 2 540.327000 -2930.430000 689.076000 1 1.000000 1 -3.000000
231 2 549.138000 -2934.160000 691.795000 1 1.000000 1 -3.000000
232 2 556.887000 -2938.550000 696.206000 1 1.000000 1 -3.000000
233 2 563.280000 -2942.960000 702.117000 1 1.000000 1 -3.000000
234 2 570.905000 -2947.090000 706.876000 1 1.000000 1 -3.000000
235 2 578.406000 -2951.510000 711.621000 1 1.000000 1 -3.000000
236 2 585.377000 -2954.710000 717.871000 1 1.000000 1 -3.000000
237 2 591.833000 -2958.870000 724.090000 1 1.000000 10 -3.000000
238 1 586.672000 -2987.930000 687.255000 1 1.000000 10 0.000000
239 3 573.989000 -2957.570000 675.406000 1 1.000000 10 0.000000
240 2 570.781000 -2998.870000 644.115000 1 1.000000 10 -3.000000
241 2 574.099000 -2990.310000 640.785000 1 1.000000 1 -3.000000
242 2 578.772000 -2982.060000 637.631000 1 1.000000 1 -3.000000
243 2 581.624000 -2973.420000 633.662000 1 1.000000 1 -3.000000
244 2 584.575000 -2964.130000 631.857000 1 1.000000 1 -3.000000
245 2 586.525000 -2954.540000 630.442000 1 1.000000 1 -3.000000
246 2 585.668000 -2944.680000 630.139000 1 1.000000 1 -3.000000
247 2 584.449000 -2934.750000 630.859000 1 1.000000 1 -3.000000
248 2 578.659000 -2926.780000 632.557000 1 1.000000 1 -3.000000
249 2 575.519000 -2918.240000 636.042000 1 1.000000 1 -3.000000
250 2 571.461000 -2910.290000 640.374000 1 1.000000 1 -3.000000
251 2 568.211000 -2900.900000 641.196000 1 1.000000 1 -3.000000
252 2 566.532000 -2891.130000 642.754000 1 1.000000 1 -3.000000
253 2 562.712000 -2882.040000 641.503000 1 1.000000 1 -3.000000
254 2 556.681000 -2874.680000 644.415000 1 1.000000 1 -3.000000
255 2 549.810000 -2867.640000 643.950000 1 1.000000 1 -3.000000
256 2 544.123000 -2859.620000 642.657000 1 1.000000 1 -3.000000
257 2 539.332000 -2850.960000 643.025000 1 1.000000 1 -3.000000
258 2 535.195000 -2842.020000 643.536000 1 1.000000 1 -3.000000
259 2 532.030000 -2832.700000 642.172000 1 1.000000 1 -3.000000
260 2 532.743000 -2823.360000 645.234000 1 1.000000 1 -3.000000
261 2 531.230000 -2814.330000 648.974000 1 1.000000 1 -3.000000
262 2 530.630000 -2808.430000 657.109000 1 1.000000 1 -3.000000
263 2 527.564000 -2801.730000 663.676000 1 1.000000 1 -3.000000
264 2 525.996000 -2793.560000 669.136000 1 1.000000 11 -3.000000
265 1 572.510000 -2793.050000 676.866000 1 1.000000 11 0.000000
266 3 570.164000 -2794.410000 641.919000 1 1.000000 11 0.000000
267 2 617.602000 -2793.780000 662.940000 1 1.000000 11 -3.000000
268 2 615.190000 -2788.950000 654.675000 1 1.000000 1 -3.000000
269 2 609.678000 -2786.970000 646.470000 1 1.000000 1 -3.000000
270 2 603.487000 -2786.220000 638.756000 1 1.000000 1 -3.000000
271 2 597.716000 -2784.810000 630.863000 1 1.000000 1 -3.000000
272 2 594.718000 -2787.210000 621.762000 1 1.000000 1 -3.000000
273 2 593.242000 -2792.850000 613.730000 1 1.000000 1 -3.000000
274 2 594.173000 -2797.360000 604.972000 1 1.000000 1 -3.000000
275 2 594.546000 -2801.020000 595.783000 1 1.000000 1 -3.000000
276 2 593.869000 -2802.810000 586.093000 1 1.000000 1 -3.000000
277 2 595.892000 -2805.870000 576.865000 1 1.000000 1 -3.000000
278 2 597.088000 -2810.860000 568.256000 1 1.000000 1 -3.000000
279 2 598.164000 -2813.600000 558.881000 1 1.000000 1 -3.000000
280 2 598.261000 -2817.580000 549.719000 1 1.000000 1 -3.000000
281 2 598.526000 -2819.170000 539.900000 1 1.000000 1 -3.000000
282 2 597.291000 -2823.700000 531.195000 1 1.000000 1 -3.000000
283 2 593.822000 -2826.160000 522.321000 1 1.000000 1 -3.000000
284 2 588.137000 -2826.830000 514.243000 1 1.000000 1 -3.000000
285 2 582.586000 -2828.240000 506.176000 1 1.000000 1 -3.000000
286 2 578.208000 -2830.520000 497.811000 1 1.000000 1 -3.000000
287 2 572.555000 -2832.940000 490.125000 1 1.000000 1 -3.000000
288 2 567.263000 -2831.260000 482.008000 1 1.000000 1 -3.000000
289 2 565.439000 -2829.780000 472.418000 1 1.000000 1 -3.000000
290 2 561.370000 -2827.480000 463.705000 1 1.000000 1 -3.000000
291 2 557.572000 -2824.660000 454.982000 1 1.000000 12 -3.000000
292 1 573.596000 -2780.220000 455.594000 1 1.000000 12 0.000000
293 3 596.757000 -2797.330000 475.446000 1 1.000000 12 0.000000
294 2 601.070000 -2745.720000 472.476000 1 1.000000 12 -3.000000
295 2 608.139000 -2752.440000 471.581000 1 1.000000 1 -3.000000
296 2 616.438000 -2757.760000 472.178000 1 1.000000 1 -3.000000
297 2 624.581000 -2763.310000 471.973000 1 1.000000 1 -3.000000
298 2 632.865000 -2768.110000 469.904000 1 1.000000 1 -3.000000
299 2 641.298000 -2773.340000 468.202000 1 1.000000 1 -3.000000
300 2 649.066000 -2779.570000 467.096000 1 1.000000 1 -3.000000
301 2 654.963000 -2785.280000 461.618000 1 1.000000 1 -3.000000
302 2 660.364000 -2792.290000 457.285000 1 1.000000 1 -3.000000
303 2 667.403000 -2798.400000 453.864000 1 1.000000 1 -3.000000
304 2 675.650000 -2800.790000 448.932000 1 1.000000 1 -3.000000
305 2 684.590000 -2802.180000 444.868000 1 1.000000 1 -3.000000
306 2 691.855000 -2802.670000 438.176000 1 1.000000 1 -3.000000
307 2 699.160000 -2802.220000 431.562000 1 1.000000 1 -3.000000
308 2 704.848000 -2802.030000 423.459000 1 1.000000 1 -3.000000
309 2 711.294000 -2803.080000 416.155000 1 1.000000 1 -3.000000
310 2 718.358000 -2803.470000 409.165000 1 1.000000 1 -3.000000
311 2 723.882000 -2805.960000 401.272000 1 1.000000 1 -3.000000
312 2 728.312000 -2806.270000 392.362000 1 1.000000 1 -3.000000
313 2 732.394000 -2808.210000 383.587000 1 1.000000 1 -3.000000
314 2 738.113000 -2812.000000 376.490000 1 1.000000 1 -3.000000
315 2 745.022000 -2817.650000 372.101000 1 1.000000 1 -3.000000
316 2 748.889000 -2825.230000 367.072000 1 1.000000 1 -3.000000
317 2 753.528000 -2831.010000 360.626000 1 1.000000 1 -3.000000
318 2 758.275000 -2838.190000 355.843000 1 1.000000 13 -3.000000
319 1 718.425000 -2851.750000 334.448000 1 1.000000 13 0.000000
320 3 713.299000 -2817.550000 340.001000 1 1.000000 13 0.000000
321 2 675.195000 -2844.490000 317.124000 1 1.000000 13 -3.000000
322 2 674.540000 -2834.700000 316.664000 1 1.000000 1 -3.000000
323 2 672.804000 -2824.910000 316.857000 1 1.000000 1 -3.000000
324 2 674.002000 -2815.260000 314.855000 1 1.000000 1 -3.000000
325 2 678.729000 -2807.320000 311.268000 1 1.000000 1 -3.000000
326 2 684.259000 -2799.030000 311.250000 1 1.000000 1 -3.000000
327 2 691.656000 -2792.470000 311.858000 1 1.000000 1 -3.000000
328 2 697.056000 -2784.160000 312.012000 1 1.000000 1 -3.000000
329 2 702.945000 -2776.610000 310.069000 1 1.000000 1 -3.000000
330 2 704.648000 -2767.550000 306.733000 1 1.000000 1 -3.000000
331 2 702.584000 -2760.760000 299.778000 1 1.000000 1 -3.000000
332 2 703.778000 -2752.410000 294.657000 1 1.000000 1 -3.000000
333 2 703.809000 -2744.360000 289.035000 1 1.000000 1 -3.000000
334 2 703.849000 -2736.010000 283.625000 1 1.000000 1 -3.000000
335 2 702.629000 -2727.510000 278.625000 1 1.000000 1 -3.000000
336 2 696.763000 -2720.800000 274.382000 1 1.000000 1 -3.000000
337 2 693.694000 -2713.370000 268.626000 1 1.000000 1 -3.000000
338 2 688.281000 -2707.470000 262.913000 1 1.000000 1 -3.000000
339 2 683.971000 -2701.590000 256.066000 1 1.000000 1 -3.000000
340 2 685.106000 -2694.080000 249.584000 1 1.000000 1 -3.000000
341 2 690.904000 -2688.500000 243.942000 1 1.000000 1 -3.000000
342 2 696.178000 -2683.410000 237.201000 1 1.000000 1 -3.000000
343 2 699.141000 -2679.930000 228.433000 1 1.000000 1 -3.000000
344 2 702.270000 -2676.200000 219.814000 1 1.000000 1 -3.000000
345 2 707.577000 -2676.290000 211.383000 1 1.000000 14 -3.000000
346 1 746.939000 -2687.970000 234.623000 1 1.000000 14 0.000000
347 3 724.686000 -2679.780000 260.351000 1 1.000000 14 0.000000
348 2 772.741000 -2693.930000 273.662000 1 1.000000 14 -3.000000
349 2 773.916000 -2684.830000 277.372000 1 1.000000 1 -3.000000
350 2 773.988000 -2675.750000 281.403000 1 1.000000 1 -3.000000
351 2 775.232000 -2666.290000 283.450000 1 1.000000 1 -3.000000
352 2 775.460000 -2657.300000 287.602000 1 1.000000 1 -3.000000
353 2 776.996000 -2648.230000 291.264000 1 1.000000 1 -3.000000
354 2 777.447000 -2638.520000 291.305000 1 1.000000 1 -3.000000
355 2 777.776000 -2628.810000 289.253000 1 1.000000 1 -3.000000
356 2 776.348000 -2619.190000 287.754000 1 1.000000 1 -3.000000
357 2 774.443000 -2610.080000 284.568000 1 1.000000 1 -3.000000
358 2 771.317000 -2601.120000 281.802000 1 1.000000 1 -3.000000
359 2 766.533000 -2592.610000 280.294000 1 1.000000 1 -3.000000
360 2 760.154000 -2585.120000 278.815000 1 1.000000 1 -3.000000
361 2 751.085000 -2581.370000 277.856000 1 1.000000 1 -3.000000
362 2 741.546000 -2579.150000 279.524000 1 1.000000 1 -3.000000
363 2 731.647000 -2578.550000 280.106000 1 1.000000 1 -3.000000
364 2 722.245000 -2575.350000 279.361000 1 1.000000 1 -3.000000
365 2 712.482000 -2573.760000 279.481000 1 1.000000 1 -3.000000
366 2 704.988000 -2573.480000 273.130000 1 1.000000 1 -3.000000
367 2 696.135000 -2573.720000 268.774000 1 1.000000 1 -3.000000
368 2 688.455000 -2574.980000 262.668000 1 1.000000 1 -3.000000
369 2 679.345000 -2573.010000 259.156000 1 1.000000 1 -3.000000
370 2 670.088000 -2571.800000 255.626000 1 1.000000 1 -3.000000
371 2 660.868000 -2571.100000 252.129000 1 1.000000 1 -3.000000
372 2 651.146000 -2570.960000 250.032000 1 1.000000 15 -3.000000
373 1 649.253000 -2595.510000 290.225000 1 1.000000 15 0.000000
374 3 677.508000 -2575.420000 294.750000 1 1.000000 15 0.000000
375 2 663.304000 -2606.030000 334.058000 1 1.000000 15 -3.000000
376 2 663.780000 -2596.400000 336.065000 1 1.000000 1 -3.000000
377 2 663.610000 -2586.540000 337.378000 1 1.000000 1 -3.000000
378 2 664.230000 -2576.750000 338.508000 1 1.000000 1 -3.000000
379 2 664.496000 -2567.080000 336.819000 1 1.000000 1 -3.000000
380 2 664.121000 -2557.810000 333.326000 1 1.000000 1 -3.000000
381 2 661.836000 -2550.370000 327.293000 1 1.000000 1 -3.000000
382 2 657.200000 -2543.740000 321.727000 1 1.000000 1 -3.000000
383 2 651.341000 -2537.190000 317.199000 1 1.000000 1 -3.000000
384 2 646.955000 -2530.150000 311.847000 1 1.000000 1 -3.000000
385 2 644.175000 -2520.900000 309.480000 1 1.000000 1 -3.000000
386 2 643.023000 -2511.140000 308.707000 1 1.000000 1 -3.000000
387 2 643.123000 -2501.230000 307.711000 1 1.000000 1 -3.000000
388 2 643.357000 -2491.330000 308.740000 1 1.000000 1 -3.000000
389 2 640.742000 -2481.800000 309.708000 1 1.000000 1 -3.000000
390 2 638.481000 -2473.020000 313.960000 1 1.000000 1 -3.000000
391 2 635.417000 -2464.230000 317.105000 1 1.000000 1 -3.000000
392 2 633.199000 -2455.010000 320.016000 1 1.000000 1 -3.000000
393 2 629.434000 -2446.890000 324.275000 1 1.000000 1 -3.000000
394 2 624.767000 -2439.170000 328.461000 1 1.000000 1 -3.000000
395 2 620.138000 -2431.210000 332.062000 1 1.000000 1 -3.000000
396 2 619.401000 -2423.030000 337.232000 1 1.000000 1 -3.000000
397 2 619.562000 -2413.490000 339.975000 1 1.000000 1 -3.000000
398 2 616.154000 -2404.130000 340.046000 1 1.000000 1 -3.000000
399 2 613.648000 -2394.690000 338.478000 1 1.000000 16 -3.000000
400 1 568.702000 -2401.360000 351.193000 1 1.000000 16 0.000000
401 3 585.440000 -2427.870000 366.649000 1 1.000000 16 0.000000
402 2 534.433000 -2423.240000 375.212000 1 1.000000 16 -3.000000
403 2 540.846000 -2426.440000 382.174000 1 1.000000 1 -3.000000
404 2 545.801000 -2426.720000 390.657000 1 1.000000 1 -3.000000
405 2 550.675000 -2427.950000 399.138000 1 1.000000 1 -3.000000
406 2 552.677000 -2426.970000 408.825000 1 1.000000 1 -3.000000
407 2 554.948000 -2432.340000 416.837000 1 1.000000 1 -3.000000
408 2 556.574000 -2439.680000 423.122000 1 1.000000 1 -3.000000
409 2 556.593000 -2444.680000 431.677000 1 1.000000 1 -3.000000
410 2 556.269000 -2452.650000 437.593000 1 1.000000 1 -3.000000
411 2 555.168000 -2460.110000 444.118000 1 1.000000 1 -3.000000
412 2 553.788000 -2466.760000 451.210000 1 1.000000 1 -3.000000
413 2 551.410000 -2475.220000 455.838000 1 1.000000 1 -3.000000
414 2 550.927000 -2484.200000 459.949000 1 1.000000 1 -3.000000
415 2 550.817000 -2493.250000 464.020000 1 1.000000 1 -3.000000
416 2 551.954000 -2502.630000 466.797000 1 1.000000 1 -3.000000
417 2 549.231000 -2508.860000 474.088000 1 1.000000 1 -3.000000
418 2 545.247000 -2514.630000 481.053000 1 1.000000 1 -3.000000
419 2 538.668000 -2517.990000 487.606000 1 1.000000 1 -3.000000
420 2 532.807000 -2519.540000 495.482000 1 1.000000 1 -3.000000
421 2 526.319000 -2518.020000 502.865000 1 1.000000 1 -3.000000
422 2 523.536000 -2516.750000 512.294000 1 1.000000 1 -3.000000
423 2 523.158000 -2515.600000 522.064000 1 1.000000 1 -3.000000
424 2 524.944000 -2514.660000 531.648000 1 1.000000 1 -3.000000
425 2 525.537000 -2511.700000 541.087000 1 1.000000 1 -3.000000
426 2 524.739000 -2510.520000 550.898000 1 1.000000 17 -3.000000
427 1 571.642000 -2506.450000 554.029000 1 1.000000 17 0.000000
428 3 565.453000 -2501.340000 519.920000 1 1.000000 17 0.000000
429 2 614.451000 -2497.360000 536.500000 1 1.000000 17 -3.000000
430 2 613.479000 -2498.420000 526.643000 1 1.000000 1 -3.000000
431 2 615.807000 -2499.430000 517.078000 1 1.000000 1 -3.000000
432 2 618.823000 -2497.500000 507.973000 1 1.000000 1 -3.000000
433 2 622.330000 -2496.100000 498.824000 1 1.000000 1 -3.000000
434 2 625.872000 -2495.910000 489.555000 1 1.000000 1 -3.000000
435 2 629.799000 -2494.010000 480.601000 1 1.000000 1 -3.000000
436 2 633.460000 -2489.780000 472.358000 1 1.000000 1 -3.000000
437 2 632.039000 -2485.540000 463.499000 1 1.000000 1 -3.000000
438 2 631.823000 -2481.730000 454.292000 1 1.000000 1 -3.000000
439 2 633.240000 -2476.150000 446.147000 1 1.000000 1 -3.000000
440 2 633.561000 -2473.440000 436.718000 1 1.000000 1 -3.000000
441 2 636.059000 -2470.740000 427.492000 1 1.000000 1 -3.000000
442 2 638.044000 -2468.320000 418.009000 1 1.000000 1 -3.000000
443 2 641.086000 -2463.790000 409.758000 1 1.000000 1 -3.000000
444 2 648.277000 -2462.730000 403.102000 1 1.000000 1 -3.000000
445 2 651.977000 -2461.900000 393.974000 1 1.000000 1 -3.000000
446 2 658.585000 -2461.630000 386.727000 1 1.000000 1 -3.000000
447 2 664.906000 -2464.480000 379.715000 1 1.000000 1 -3.000000
448 2 671.087000 -2466.800000 372.449000 1 1.000000 1 -3.000000
449 2 676.538000 -2466.060000 364.105000 1 1.000000 1 -3.000000
450 2 680.223000 -2465.410000 354.996000 1 1.000000 1 -3.000000
451 2 683.967000 -2464.860000 345.829000 1 1.000000 1 -3.000000
452 2 687.785000 -2464.730000 336.644000 1 1.000000 1 -3.000000
453 2 692.256000 -2463.470000 327.805000 1 1.000000 18 -3.000000
454 1 681.035000 -2418.650000 337.335000 1 1.000000 18 0.000000
455 3 667.743000 -2436.140000 364.412000 1 1.000000 18 0.000000
456 2 660.573000 -2384.770000 363.073000 1 1.000000 18 -3.000000
457 2 660.476000 -2388.230000 372.365000 1 1.000000 1 -3.000000
458 2 664.839000 -2389.550000 381.113000 1 1.000000 1 -3.000000
459 2 666.027000 -2388.400000 390.802000 1 1.000000 1 -3.000000
460 2 666.267000 -2388.320000 400.607000 1 1.000000 1 -3.000000
461 2 666.768000 -2389.490000 410.326000 1 1.000000 1 -3.000000
462 2 666.396000 -2390.630000 420.213000 1 1.000000 1 -3.000000
463 2 664.458000 -2392.050000 429.819000 1 1.000000 1 -3.000000
464 2 663.550000 -2393.610000 439.557000 1 1.000000 1 -3.000000
465 2 658.718000 -2395.790000 447.943000 1 1.000000 1 -3.000000