LAMMPS data file

4067 atoms
4067 ellipsoids
4516 bonds
8882 angles
0 dihedrals

3 atom types
5 bond types
12 angle types
0 dihedral types

-4631.092947 4670.465898 xlo xhi
-4631.092947 4670.465898 ylo yhi
-4631.092947 4670.465898 zlo zhi

Masses

1 196016.000000
2 1950.000000
3 19500.000000

Atoms

1 2 1003.000000 -2999.010000 638.179000 1 1.000000 1 -3.000000
2 2 993.234000 -2999.640000 638.131000 1 1.000000 1 -3.000000
3 2 983.619000 -2999.230000 640.706000 1 1.000000 1 -3.000000
4 2 974.921000 -3002.710000 643.481000 1 1.000000 1 -3.000000
5 2 967.292000 -3006.020000 648.862000 1 1.000000 1 -3.000000
6 2 959.655000 -3009.390000 654.194000 1 1.000000 1 -3.000000
7 2 952.399000 -3013.780000 659.219000 1 1.000000 1 -3.000000
8 2 944.504000 -3018.390000 662.945000 1 1.000000 1 -3.000000
9 2 937.939000 -3021.690000 669.574000 1 1.000000 1 -3.000000
10 2 932.759000 -3027.150000 676.008000 1 1.000000 1 -3.000000
11 2 929.724000 -3034.460000 681.962000 1 1.000000 1 -3.000000
12 2 926.661000 -3042.200000 687.347000 1 1.000000 1 -3.000000
13 2 921.722000 -3049.480000 691.802000 1 1.000000 1 -3.000000
14 2 917.919000 -3057.800000 695.644000 1 1.000000 1 -3.000000
15 2 913.235000 -3066.070000 698.709000 1 1.000000 1 -3.000000
16 2 907.002000 -3073.370000 701.264000 1 1.000000 1 -3.000000
17 2 904.950000 -3082.460000 704.792000 1 1.000000 1 -3.000000
18 2 905.476000 -3089.800000 711.423000 1 1.000000 1 -3.000000
19 2 909.997000 -3098.400000 713.371000 1 1.000000 1 -3.000000
20 2 914.403000 -3106.970000 715.552000 1 1.000000 1 -3.000000
21 2 919.626000 -3112.700000 721.592000 1 1.000000 2 -3.000000
22 1 935.271000 -3122.520000 678.214000 1 1.000000 2 0.000000
23 3 915.869000 -3093.840000 673.415000 1 1.000000 2 0.000000
24 2 939.668000 -3113.940000 631.931000 1 1.000000 2 -3.000000
25 2 930.177000 -3111.240000 630.601000 1 1.000000 1 -3.000000
26 2 921.469000 -3106.710000 629.905000 1 1.000000 1 -3.000000
27 2 912.184000 -3103.350000 629.780000 1 1.000000 1 -3.000000
28 2 904.058000 -3098.420000 627.028000 1 1.000000 1 -3.000000
29 2 896.440000 -3093.100000 623.652000 1 1.000000 1 -3.000000
30 2 890.312000 -3086.920000 619.172000 1 1.000000 1 -3.000000
31 2 886.520000 -3080.880000 612.161000 1 1.000000 1 -3.000000
32 2 881.619000 -3075.790000 605.183000 1 1.000000 1 -3.000000
33 2 876.691000 -3069.080000 599.778000 1 1.000000 1 -3.000000
34 2 869.400000 -3063.760000 595.503000 1 1.000000 1 -3.000000
35 2 863.266000 -3056.330000 593.241000 1 1.000000 1 -3.000000
36 2 857.022000 -3048.640000 593.622000 1 1.000000 1 -3.000000
37 2 853.481000 -3039.790000 596.729000 1 1.000000 1 -3.000000
38 2 848.276000 -3032.680000 601.138000 1 1.000000 1 -3.000000
39 2 842.902000 -3029.030000 608.756000 1 1.000000 1 -3.000000
40 2 836.446000 -3024.930000 615.220000 1 1.000000 1 -3.000000
41 2 828.548000 -3022.840000 620.722000 1 1.000000 1 -3.000000
42 2 819.648000 -3019.650000 623.587000 1 1.000000 1 -3.000000
43 2 811.279000 -3017.810000 628.621000 1 1.000000 1 -3.000000
44 2 802.026000 -3017.000000 632.245000 1 1.000000 1 -3.000000
45 2 792.385000 -3015.800000 634.024000 1 1.000000 1 -3.000000
46 2 782.859000 -3012.900000 634.809000 1 1.000000 1 -3.000000
47 2 773.135000 -3012.150000 636.606000 1 1.000000 1 -3.000000
48 2 763.383000 -3010.940000 637.761000 1 1.000000 3 -3.000000
49 1 769.327000 -2965.340000 627.334000 1 1.000000 3 0.000000
50 3 795.775000 -2980.940000 610.344000 1 1.000000 3 0.000000
51 2 793.852000 -2928.970000 609.760000 1 1.000000 3 -3.000000
52 2 797.820000 -2935.720000 603.569000 1 1.000000 1 -3.000000
53 2 800.541000 -2943.040000 597.532000 1 1.000000 1 -3.000000
54 2 802.653000 -2950.270000 591.196000 1 1.000000 1 -3.000000
55 2 804.536000 -2957.440000 584.565000 1 1.000000 1 -3.000000
56 2 804.638000 -2960.680000 575.114000 1 1.000000 1 -3.000000
57 2 801.150000 -2963.590000 566.267000 1 1.000000 1 -3.000000
58 2 798.890000 -2969.400000 558.570000 1 1.000000 1 -3.000000
59 2 794.167000 -2974.900000 551.883000 1 1.000000 1 -3.000000
60 2 787.655000 -2979.640000 546.113000 1 1.000000 1 -3.000000
61 2 780.073000 -2981.580000 540.002000 1 1.000000 1 -3.000000
62 2 770.827000 -2982.900000 536.732000 1 1.000000 1 -3.000000
63 2 761.848000 -2985.760000 533.825000 1 1.000000 1 -3.000000
64 2 753.296000 -2989.080000 529.924000 1 1.000000 1 -3.000000
65 2 743.468000 -2989.180000 530.310000 1 1.000000 1 -3.000000
66 2 734.469000 -2991.270000 526.995000 1 1.000000 1 -3.000000
67 2 725.185000 -2992.850000 524.418000 1 1.000000 1 -3.000000
68 2 715.473000 -2994.860000 524.420000 1 1.000000 1 -3.000000
69 2 706.754000 -2998.670000 521.717000 1 1.000000 1 -3.000000
70 2 700.385000 -3006.040000 520.315000 1 1.000000 1 -3.000000
71 2 693.087000 -3011.980000 523.004000 1 1.000000 1 -3.000000
72 2 687.862000 -3019.120000 527.328000 1 1.000000 1 -3.000000
73 2 683.620000 -3027.290000 530.959000 1 1.000000 1 -3.000000
74 2 680.034000 -3034.240000 536.946000 1 1.000000 1 -3.000000
75 2 675.942000 -3042.290000 541.143000 1 1.000000 4 -3.000000
76 1 712.920000 -3059.290000 565.126000 1 1.000000 4 0.000000
77 3 723.672000 -3027.360000 555.169000 1 1.000000 4 0.000000
78 2 757.243000 -3057.320000 581.106000 1 1.000000 4 -3.000000
79 2 762.207000 -3049.280000 577.745000 1 1.000000 1 -3.000000
80 2 764.276000 -3039.970000 575.278000 1 1.000000 1 -3.000000
81 2 766.219000 -3030.620000 577.572000 1 1.000000 1 -3.000000
82 2 771.360000 -3023.290000 581.877000 1 1.000000 1 -3.000000
83 2 771.602000 -3013.560000 583.390000 1 1.000000 1 -3.000000
84 2 771.255000 -3003.670000 584.284000 1 1.000000 1 -3.000000
85 2 765.528000 -2995.790000 585.816000 1 1.000000 1 -3.000000
86 2 761.619000 -2987.350000 582.411000 1 1.000000 1 -3.000000
87 2 757.243000 -2978.490000 581.428000 1 1.000000 1 -3.000000
88 2 755.766000 -2968.960000 579.226000 1 1.000000 1 -3.000000
89 2 752.372000 -2960.070000 576.832000 1 1.000000 1 -3.000000
90 2 747.520000 -2951.380000 576.993000 1 1.000000 1 -3.000000
91 2 741.599000 -2943.570000 578.161000 1 1.000000 1 -3.000000
92 2 735.465000 -2936.470000 581.280000 1 1.000000 1 -3.000000
93 2 729.874000 -2928.800000 583.655000 1 1.000000 1 -3.000000
94 2 726.536000 -2919.610000 585.221000 1 1.000000 1 -3.000000
95 2 721.759000 -2912.060000 589.429000 1 1.000000 1 -3.000000
96 2 714.914000 -2905.460000 592.290000 1 1.000000 1 -3.000000
97 2 707.613000 -2898.990000 593.968000 1 1.000000 1 -3.000000
98 2 703.109000 -2891.220000 598.138000 1 1.000000 1 -3.000000
99 2 701.050000 -2884.360000 604.895000 1 1.000000 1 -3.000000
100 2 696.034000 -2880.400000 612.499000 1 1.000000 1 -3.000000
101 2 694.816000 -2873.840000 619.820000 1 1.000000 1 -3.000000
102 2 692.584000 -2865.690000 624.941000 1 1.000000 5 -3.000000
103 1 726.189000 -2873.480000 657.177000 1 1.000000 5 0.000000
104 3 732.612000 -2897.980000 632.842000 1 1.000000 5 0.000000
105 2 763.567000 -2896.410000 674.652000 1 1.000000 5 -3.000000
106 2 764.721000 -2902.720000 667.075000 1 1.000000 1 -3.000000
107 2 768.778000 -2906.080000 658.725000 1 1.000000 1 -3.000000
108 2 772.988000 -2907.910000 649.859000 1 1.000000 1 -3.000000
109 2 776.757000 -2909.860000 640.788000 1 1.000000 1 -3.000000
110 2 781.390000 -2908.520000 632.235000 1 1.000000 1 -3.000000
111 2 788.369000 -2907.830000 625.262000 1 1.000000 1 -3.000000
112 2 796.776000 -2904.950000 621.162000 1 1.000000 1 -3.000000
113 2 804.170000 -2899.160000 617.875000 1 1.000000 1 -3.000000
114 2 812.958000 -2894.920000 616.391000 1 1.000000 1 -3.000000
115 2 821.565000 -2892.610000 611.994000 1 1.000000 1 -3.000000
116 2 828.928000 -2889.910000 605.963000 1 1.000000 1 -3.000000
117 2 834.332000 -2886.660000 598.143000 1 1.000000 1 -3.000000
118 2 839.516000 -2883.420000 590.291000 1 1.000000 1 -3.000000
119 2 843.770000 -2880.150000 581.962000 1 1.000000 1 -3.000000
120 2 847.475000 -2877.620000 573.106000 1 1.000000 1 -3.000000
121 2 853.599000 -2877.100000 565.361000 1 1.000000 1 -3.000000
122 2 859.860000 -2876.490000 557.771000 1 1.000000 1 -3.000000
123 2 867.284000 -2875.620000 551.302000 1 1.000000 1 -3.000000
124 2 876.103000 -2876.010000 546.827000 1 1.000000 1 -3.000000
125 2 885.818000 -2876.460000 545.402000 1 1.000000 1 -3.000000
126 2 895.362000 -2876.970000 542.705000 1 1.000000 1 -3.000000
127 2 905.006000 -2877.590000 544.592000 1 1.000000 1 -3.000000
128 2 914.574000 -2878.970000 546.997000 1 1.000000 1 -3.000000
129 2 924.175000 -2876.960000 547.867000 1 1.000000 6 -3.000000
130 1 925.358000 -2877.890000 594.992000 1 1.000000 6 0.000000
131 3 892.345000 -2886.640000 587.713000 1 1.000000 6 0.000000
132 2 907.015000 -2887.490000 637.444000 1 1.000000 6 -3.000000
133 2 899.157000 -2881.690000 638.129000 1 1.000000 1 -3.000000
134 2 890.282000 -2877.770000 639.702000 1 1.000000 1 -3.000000
135 2 880.660000 -2876.030000 642.024000 1 1.000000 1 -3.000000
136 2 872.045000 -2872.070000 644.662000 1 1.000000 1 -3.000000
137 2 865.734000 -2865.800000 648.972000 1 1.000000 1 -3.000000
138 2 858.221000 -2861.340000 654.074000 1 1.000000 1 -3.000000
139 2 852.607000 -2853.390000 655.874000 1 1.000000 1 -3.000000
140 2 846.554000 -2845.680000 656.274000 1 1.000000 1 -3.000000
141 2 840.246000 -2838.120000 657.314000 1 1.000000 1 -3.000000
142 2 835.999000 -2831.060000 662.606000 1 1.000000 1 -3.000000
143 2 828.677000 -2825.320000 666.166000 1 1.000000 1 -3.000000
144 2 819.478000 -2822.590000 668.898000 1 1.000000 1 -3.000000
145 2 810.201000 -2819.610000 670.980000 1 1.000000 1 -3.000000
146 2 800.661000 -2818.050000 672.980000 1 1.000000 1 -3.000000
147 2 793.625000 -2811.750000 675.739000 1 1.000000 1 -3.000000
148 2 789.154000 -2804.810000 681.224000 1 1.000000 1 -3.000000
149 2 786.673000 -2798.220000 688.143000 1 1.000000 1 -3.000000
150 2 784.858000 -2789.550000 692.818000 1 1.000000 1 -3.000000
151 2 781.897000 -2781.630000 697.904000 1 1.000000 1 -3.000000
152 2 779.368000 -2772.250000 699.827000 1 1.000000 1 -3.000000
153 2 777.088000 -2762.890000 702.362000 1 1.000000 1 -3.000000
154 2 774.702000 -2753.880000 706.086000 1 1.000000 1 -3.000000
155 2 774.702000 -2745.040000 710.513000 1 1.000000 1 -3.000000
156 2 777.869000 -2736.800000 715.052000 1 1.000000 7 -3.000000
157 1 824.379000 -2733.360000 707.341000 1 1.000000 7 0.000000
158 3 813.378000 -2753.920000 681.218000 1 1.000000 7 0.000000
159 2 864.324000 -2744.740000 685.069000 1 1.000000 7 -3.000000
160 2 859.451000 -2744.900000 676.427000 1 1.000000 1 -3.000000
161 2 854.974000 -2742.950000 667.691000 1 1.000000 1 -3.000000
162 2 851.483000 -2744.990000 658.683000 1 1.000000 1 -3.000000
163 2 846.007000 -2746.430000 650.565000 1 1.000000 1 -3.000000
164 2 838.483000 -2750.010000 645.101000 1 1.000000 1 -3.000000
165 2 831.720000 -2752.970000 638.643000 1 1.000000 1 -3.000000
166 2 823.666000 -2757.390000 635.040000 1 1.000000 1 -3.000000
167 2 814.951000 -2761.380000 632.819000 1 1.000000 1 -3.000000
168 2 808.326000 -2768.560000 631.077000 1 1.000000 1 -3.000000
169 2 802.786000 -2775.590000 626.879000 1 1.000000 1 -3.000000
170 2 797.441000 -2780.670000 620.338000 1 1.000000 1 -3.000000
171 2 791.255000 -2786.120000 614.962000 1 1.000000 1 -3.000000
172 2 782.520000 -2788.800000 611.192000 1 1.000000 1 -3.000000
173 2 774.971000 -2792.310000 605.892000 1 1.000000 1 -3.000000
174 2 766.722000 -2796.390000 602.146000 1 1.000000 1 -3.000000
175 2 758.838000 -2801.680000 599.237000 1 1.000000 1 -3.000000
176 2 750.998000 -2806.400000 595.345000 1 1.000000 1 -3.000000
177 2 744.718000 -2814.110000 594.513000 1 1.000000 1 -3.000000
178 2 736.721000 -2819.790000 595.867000 1 1.000000 1 -3.000000
179 2 727.404000 -2823.060000 595.362000 1 1.000000 1 -3.000000
180 2 717.654000 -2824.340000 595.949000 1 1.000000 1 -3.000000
181 2 708.216000 -2825.950000 593.646000 1 1.000000 1 -3.000000
182 2 699.205000 -2826.290000 589.172000 1 1.000000 1 -3.000000
183 2 690.574000 -2829.670000 585.455000 1 1.000000 8 -3.000000
184 1 688.568000 -2798.120000 550.304000 1 1.000000 8 0.000000
185 3 722.469000 -2798.890000 558.923000 1 1.000000 8 0.000000
186 2 708.104000 -2768.680000 519.025000 1 1.000000 8 -3.000000
187 2 717.627000 -2771.140000 519.954000 1 1.000000 1 -3.000000
188 2 725.861000 -2775.320000 523.163000 1 1.000000 1 -3.000000
189 2 734.247000 -2780.420000 522.519000 1 1.000000 1 -3.000000
190 2 742.903000 -2785.010000 521.055000 1 1.000000 1 -3.000000
191 2 750.913000 -2790.030000 518.082000 1 1.000000 1 -3.000000
192 2 760.584000 -2790.760000 515.894000 1 1.000000 1 -3.000000
193 2 769.562000 -2786.460000 516.316000 1 1.000000 1 -3.000000
194 2 777.103000 -2780.080000 516.679000 1 1.000000 1 -3.000000
195 2 783.450000 -2773.110000 519.602000 1 1.000000 1 -3.000000
196 2 790.465000 -2766.220000 520.795000 1 1.000000 1 -3.000000
197 2 797.393000 -2759.710000 523.405000 1 1.000000 1 -3.000000
198 2 803.299000 -2751.670000 523.504000 1 1.000000 1 -3.000000
199 2 812.322000 -2747.920000 525.019000 1 1.000000 1 -3.000000
200 2 819.627000 -2741.710000 527.304000 1 1.000000 1 -3.000000
201 2 823.403000 -2732.560000 528.443000 1 1.000000 1 -3.000000
202 2 824.624000 -2722.790000 528.994000 1 1.000000 1 -3.000000
203 2 824.760000 -2712.970000 530.658000 1 1.000000 1 -3.000000
204 2 823.452000 -2703.420000 533.194000 1 1.000000 1 -3.000000
205 2 821.248000 -2693.810000 534.449000 1 1.000000 1 -3.000000
206 2 818.852000 -2684.610000 537.488000 1 1.000000 1 -3.000000
207 2 818.114000 -2676.310000 542.929000 1 1.000000 1 -3.000000
208 2 818.518000 -2671.380000 551.492000 1 1.000000 1 -3.000000
209 2 819.580000 -2664.880000 558.798000 1 1.000000 1 -3.000000
210 2 818.375000 -2659.440000 567.050000 1 1.000000 9 -3.000000
211 1 860.747000 -2644.790000 552.478000 1 1.000000 9 0.000000
212 3 843.634000 -2650.290000 522.437000 1 1.000000 9 0.000000
213 2 891.773000 -2631.000000 519.668000 1 1.000000 9 -3.000000
214 2 885.535000 -2632.670000 512.235000 1 1.000000 1 -3.000000
215 2 878.802000 -2634.310000 505.239000 1 1.000000 1 -3.000000
216 2 873.514000 -2635.590000 496.923000 1 1.000000 1 -3.000000
217 2 867.206000 -2632.070000 490.236000 1 1.000000 1 -3.000000
218 2 859.252000 -2628.350000 485.812000 1 1.000000 1 -3.000000
219 2 849.718000 -2626.140000 483.731000 1 1.000000 1 -3.000000
220 2 840.714000 -2627.040000 479.906000 1 1.000000 1 -3.000000
221 2 831.801000 -2627.880000 475.790000 1 1.000000 1 -3.000000
222 2 823.939000 -2627.840000 469.788000 1 1.000000 1 -3.000000
223 2 815.730000 -2625.800000 464.621000 1 1.000000 1 -3.000000
224 2 809.091000 -2622.770000 457.973000 1 1.000000 1 -3.000000
225 2 803.155000 -2619.340000 450.735000 1 1.000000 1 -3.000000
226 2 796.493000 -2617.160000 443.818000 1 1.000000 1 -3.000000
227 2 790.407000 -2615.210000 436.259000 1 1.000000 1 -3.000000
228 2 783.263000 -2612.210000 430.140000 1 1.000000 1 -3.000000
229 2 775.932000 -2606.890000 426.202000 1 1.000000 1 -3.000000
230 2 768.213000 -2602.060000 422.640000 1 1.000000 1 -3.000000
231 2 762.299000 -2594.840000 419.181000 1 1.000000 1 -3.000000
232 2 757.554000 -2586.910000 415.635000 1 1.000000 1 -3.000000
233 2 749.672000 -2581.020000 414.376000 1 1.000000 1 -3.000000
234 2 742.474000 -2574.410000 415.709000 1 1.000000 1 -3.000000
235 2 736.315000 -2566.650000 415.972000 1 1.000000 1 -3.000000
236 2 728.810000 -2560.150000 417.158000 1 1.000000 1 -3.000000
237 2 721.856000 -2553.860000 420.516000 1 1.000000 10 -3.000000
238 1 756.353000 -2527.950000 401.423000 1 1.000000 10 0.000000
239 3 759.833000 -2558.680000 385.239000 1 1.000000 10 0.000000
240 2 791.167000 -2520.190000 370.554000 1 1.000000 10 -3.000000
241 2 791.094000 -2528.690000 365.460000 1 1.000000 1 -3.000000
242 2 789.544000 -2537.810000 362.023000 1 1.000000 1 -3.000000
243 2 790.861000 -2546.960000 358.769000 1 1.000000 1 -3.000000
244 2 790.360000 -2556.130000 354.985000 1 1.000000 1 -3.000000
245 2 788.194000 -2564.270000 349.601000 1 1.000000 1 -3.000000
246 2 786.995000 -2571.930000 343.506000 1 1.000000 1 -3.000000
247 2 786.631000 -2578.520000 336.156000 1 1.000000 1 -3.000000
248 2 789.682000 -2584.760000 329.048000 1 1.000000 1 -3.000000
249 2 790.238000 -2588.680000 320.042000 1 1.000000 1 -3.000000
250 2 790.371000 -2592.190000 310.908000 1 1.000000 1 -3.000000
251 2 792.759000 -2592.030000 301.290000 1 1.000000 1 -3.000000
252 2 796.065000 -2592.580000 291.930000 1 1.000000 1 -3.000000
253 2 799.884000 -2593.250000 282.870000 1 1.000000 1 -3.000000
254 2 803.961000 -2594.240000 273.837000 1 1.000000 1 -3.000000
255 2 806.788000 -2589.800000 265.497000 1 1.000000 1 -3.000000
256 2 808.005000 -2585.880000 256.549000 1 1.000000 1 -3.000000
257 2 806.332000 -2578.520000 250.219000 1 1.000000 1 -3.000000
258 2 804.522000 -2570.920000 243.929000 1 1.000000 1 -3.000000
259 2 806.403000 -2563.740000 237.321000 1 1.000000 1 -3.000000
260 2 813.283000 -2558.800000 232.305000 1 1.000000 1 -3.000000
261 2 817.279000 -2551.550000 227.098000 1 1.000000 1 -3.000000
262 2 823.563000 -2548.340000 220.319000 1 1.000000 1 -3.000000
263 2 830.480000 -2544.390000 214.604000 1 1.000000 1 -3.000000
264 2 838.212000 -2542.910000 208.547000 1 1.000000 11 -3.000000
265 1 840.507000 -2580.810000 180.533000 1 1.000000 11 0.000000
266 3 818.595000 -2591.000000 205.860000 1 1.000000 11 0.000000
267 2 830.638000 -2625.530000 169.044000 1 1.000000 11 -3.000000
268 2 823.138000 -2629.280000 174.454000 1 1.000000 1 -3.000000
269 2 815.600000 -2634.120000 178.400000 1 1.000000 1 -3.000000
270 2 807.896000 -2633.900000 184.593000 1 1.000000 1 -3.000000
271 2 799.973000 -2630.730000 189.639000 1 1.000000 1 -3.000000
272 2 792.890000 -2628.440000 196.164000 1 1.000000 1 -3.000000
273 2 787.255000 -2622.600000 201.712000 1 1.000000 1 -3.000000
274 2 782.404000 -2617.810000 209.000000 1 1.000000 1 -3.000000
275 2 776.094000 -2612.880000 214.872000 1 1.000000 1 -3.000000
276 2 769.399000 -2608.580000 220.830000 1 1.000000 1 -3.000000
277 2 761.083000 -2609.740000 225.935000 1 1.000000 1 -3.000000
278 2 752.862000 -2613.860000 229.550000 1 1.000000 1 -3.000000
279 2 746.663000 -2620.810000 232.787000 1 1.000000 1 -3.000000
280 2 741.393000 -2627.710000 237.486000 1 1.000000 1 -3.000000
281 2 737.058000 -2633.680000 244.083000 1 1.000000 1 -3.000000
282 2 730.439000 -2639.330000 248.916000 1 1.000000 1 -3.000000
283 2 721.979000 -2644.300000 248.533000 1 1.000000 1 -3.000000
284 2 714.399000 -2647.500000 254.234000 1 1.000000 1 -3.000000
285 2 708.238000 -2647.940000 261.722000 1 1.000000 1 -3.000000
286 2 700.966000 -2647.100000 268.344000 1 1.000000 1 -3.000000
287 2 693.754000 -2647.830000 275.065000 1 1.000000 1 -3.000000
288 2 687.667000 -2647.390000 282.751000 1 1.000000 1 -3.000000
289 2 683.633000 -2646.430000 291.890000 1 1.000000 1 -3.000000
290 2 679.438000 -2643.860000 300.414000 1 1.000000 1 -3.000000
291 2 674.884000 -2641.600000 308.949000 1 1.000000 12 -3.000000
292 1 684.097000 -2595.510000 313.136000 1 1.000000 12 0.000000
293 3 694.372000 -2602.640000 280.454000 1 1.000000 12 0.000000
294 2 701.331000 -2554.340000 297.876000 1 1.000000 12 -3.000000
295 2 702.773000 -2556.100000 288.018000 1 1.000000 1 -3.000000
296 2 701.700000 -2556.770000 278.258000 1 1.000000 1 -3.000000
297 2 699.374000 -2557.720000 268.606000 1 1.000000 1 -3.000000
298 2 694.233000 -2561.560000 261.062000 1 1.000000 1 -3.000000
299 2 691.158000 -2567.350000 253.564000 1 1.000000 1 -3.000000
300 2 690.736000 -2574.340000 246.593000 1 1.000000 1 -3.000000
301 2 687.235000 -2579.880000 239.181000 1 1.000000 1 -3.000000
302 2 683.659000 -2581.360000 229.924000 1 1.000000 1 -3.000000
303 2 679.706000 -2580.520000 220.955000 1 1.000000 1 -3.000000
304 2 674.009000 -2580.480000 212.899000 1 1.000000 1 -3.000000
305 2 665.786000 -2583.290000 208.024000 1 1.000000 1 -3.000000
306 2 657.203000 -2587.000000 204.692000 1 1.000000 1 -3.000000
307 2 648.922000 -2591.760000 202.270000 1 1.000000 1 -3.000000
308 2 640.611000 -2596.140000 199.051000 1 1.000000 1 -3.000000
309 2 632.882000 -2599.690000 193.819000 1 1.000000 1 -3.000000
310 2 630.394000 -2606.750000 187.396000 1 1.000000 1 -3.000000
311 2 624.972000 -2614.020000 183.160000 1 1.000000 1 -3.000000
312 2 621.745000 -2623.240000 182.114000 1 1.000000 1 -3.000000
313 2 619.217000 -2632.510000 179.702000 1 1.000000 1 -3.000000
314 2 616.058000 -2641.660000 177.249000 1 1.000000 1 -3.000000
315 2 613.065000 -2651.090000 178.207000 1 1.000000 1 -3.000000
316 2 612.551000 -2660.860000 176.774000 1 1.000000 1 -3.000000
317 2 613.864000 -2670.480000 178.752000 1 1.000000 1 -3.000000
318 2 612.899000 -2679.800000 181.921000 1 1.000000 13 -3.000000
319 1 632.265000 -2679.560000 224.987000 1 1.000000 13 0.000000
320 3 629.342000 -2645.520000 217.447000 1 1.000000 13 0.000000
321 2 653.931000 -2658.250000 261.192000 1 1.000000 13 -3.000000
322 2 648.247000 -2650.220000 260.602000 1 1.000000 1 -3.000000
323 2 643.035000 -2642.380000 257.850000 1 1.000000 1 -3.000000
324 2 635.921000 -2637.210000 253.269000 1 1.000000 1 -3.000000
325 2 629.255000 -2631.660000 248.744000 1 1.000000 1 -3.000000
326 2 625.209000 -2623.220000 245.792000 1 1.000000 1 -3.000000
327 2 620.720000 -2614.490000 244.399000 1 1.000000 1 -3.000000
328 2 615.019000 -2606.460000 243.590000 1 1.000000 1 -3.000000
329 2 609.103000 -2598.730000 245.397000 1 1.000000 1 -3.000000
330 2 603.407000 -2591.150000 248.206000 1 1.000000 1 -3.000000
331 2 599.533000 -2582.350000 250.444000 1 1.000000 1 -3.000000
332 2 595.512000 -2574.880000 255.535000 1 1.000000 1 -3.000000
333 2 588.763000 -2570.060000 261.275000 1 1.000000 1 -3.000000
334 2 582.802000 -2566.010000 268.057000 1 1.000000 1 -3.000000
335 2 577.286000 -2563.870000 276.090000 1 1.000000 1 -3.000000
336 2 572.020000 -2564.360000 284.370000 1 1.000000 1 -3.000000
337 2 565.861000 -2567.410000 291.402000 1 1.000000 1 -3.000000
338 2 557.626000 -2569.910000 296.403000 1 1.000000 1 -3.000000
339 2 553.005000 -2573.600000 304.321000 1 1.000000 1 -3.000000
340 2 548.496000 -2576.960000 312.410000 1 1.000000 1 -3.000000
341 2 541.953000 -2580.250000 318.919000 1 1.000000 1 -3.000000
342 2 535.894000 -2584.650000 325.510000 1 1.000000 1 -3.000000
343 2 528.678000 -2588.190000 331.447000 1 1.000000 1 -3.000000
344 2 522.626000 -2595.110000 335.130000 1 1.000000 1 -3.000000
345 2 516.202000 -2601.360000 339.684000 1 1.000000 14 -3.000000
346 1 478.932000 -2581.900000 318.290000 1 1.000000 14 0.000000
347 3 505.780000 -2572.100000 298.135000 1 1.000000 14 0.000000
348 2 458.176000 -2556.240000 284.587000 1 1.000000 14 -3.000000
349 2 460.234000 -2559.790000 275.525000 1 1.000000 1 -3.000000
350 2 466.970000 -2561.230000 268.292000 1 1.000000 1 -3.000000
351 2 475.374000 -2562.350000 263.242000 1 1.000000 1 -3.000000
352 2 484.150000 -2563.390000 258.894000 1 1.000000 1 -3.000000
353 2 493.638000 -2565.170000 256.704000 1 1.000000 1 -3.000000
354 2 503.195000 -2564.350000 253.992000 1 1.000000 1 -3.000000
355 2 512.828000 -2562.530000 254.306000 1 1.000000 1 -3.000000
356 2 522.070000 -2561.430000 257.674000 1 1.000000 1 -3.000000
357 2 531.246000 -2563.830000 260.649000 1 1.000000 1 -3.000000
358 2 540.881000 -2565.700000 262.206000 1 1.000000 1 -3.000000
359 2 547.290000 -2572.970000 260.318000 1 1.000000 1 -3.000000
360 2 552.938000 -2581.050000 260.025000 1 1.000000 1 -3.000000
361 2 559.500000 -2588.110000 261.585000 1 1.000000 1 -3.000000
362 2 565.919000 -2595.660000 261.807000 1 1.000000 1 -3.000000
363 2 574.614000 -2600.370000 260.976000 1 1.000000 1 -3.000000
364 2 583.558000 -2604.510000 262.184000 1 1.000000 1 -3.000000
365 2 590.610000 -2611.590000 262.125000 1 1.000000 1 -3.000000
366 2 594.784000 -2620.220000 264.250000 1 1.000000 1 -3.000000
367 2 599.455000 -2626.810000 269.826000 1 1.000000 1 -3.000000
368 2 604.288000 -2632.010000 276.758000 1 1.000000 1 -3.000000
369 2 605.914000 -2636.790000 285.316000 1 1.000000 1 -3.000000
370 2 606.178000 -2641.600000 293.986000 1 1.000000 1 -3.000000
371 2 606.020000 -2646.120000 302.842000 1 1.000000 1 -3.000000
372 2 605.671000 -2651.320000 311.216000 1 1.000000 15 -3.000000
373 1 599.068000 -2613.530000 338.621000 1 1.000000 15 0.000000
374 3 584.717000 -2603.710000 308.167000 1 1.000000 15 0.000000
375 2 581.995000 -2570.490000 347.822000 1 1.000000 15 -3.000000
376 2 586.041000 -2563.150000 342.669000 1 1.000000 1 -3.000000
377 2 587.470000 -2556.250000 335.890000 1 1.000000 1 -3.000000
378 2 587.856000 -2548.830000 329.377000 1 1.000000 1 -3.000000
379 2 587.439000 -2540.500000 324.190000 1 1.000000 1 -3.000000
380 2 584.385000 -2533.340000 317.876000 1 1.000000 1 -3.000000
381 2 579.525000 -2525.520000 314.296000 1 1.000000 1 -3.000000
382 2 576.314000 -2518.900000 307.759000 1 1.000000 1 -3.000000
383 2 574.693000 -2513.320000 299.692000 1 1.000000 1 -3.000000
384 2 570.966000 -2504.770000 296.138000 1 1.000000 1 -3.000000
385 2 569.647000 -2495.660000 292.335000 1 1.000000 1 -3.000000
386 2 564.205000 -2487.480000 290.540000 1 1.000000 1 -3.000000
387 2 559.829000 -2480.790000 284.529000 1 1.000000 1 -3.000000
388 2 556.171000 -2472.640000 280.355000 1 1.000000 1 -3.000000
389 2 552.385000 -2464.410000 276.202000 1 1.000000 1 -3.000000
390 2 545.625000 -2457.870000 273.537000 1 1.000000 1 -3.000000
391 2 538.272000 -2452.230000 270.102000 1 1.000000 1 -3.000000
392 2 530.377000 -2446.750000 268.274000 1 1.000000 1 -3.000000
393 2 521.702000 -2442.080000 267.670000 1 1.000000 1 -3.000000
394 2 513.693000 -2436.330000 267.699000 1 1.000000 1 -3.000000
395 2 504.808000 -2431.700000 266.969000 1 1.000000 1 -3.000000
396 2 496.254000 -2426.710000 266.963000 1 1.000000 1 -3.000000
397 2 487.012000 -2423.040000 267.256000 1 1.000000 1 -3.000000
398 2 478.910000 -2417.470000 267.568000 1 1.000000 1 -3.000000
399 2 470.042000 -2413.470000 267.600000 1 1.000000 16 -3.000000
400 1 473.009000 -2367.210000 259.028000 1 1.000000 16 0.000000
401 3 506.035000 -2378.170000 255.068000 1 1.000000 16 0.000000
402 2 496.638000 -2327.380000 249.957000 1 1.000000 16 -3.000000
403 2 505.164000 -2332.310000 250.479000 1 1.000000 1 -3.000000
404 2 513.861000 -2336.520000 249.030000 1 1.000000 1 -3.000000
405 2 523.095000 -2339.750000 248.400000 1 1.000000 1 -3.000000
406 2 532.258000 -2342.860000 246.548000 1 1.000000 1 -3.000000
407 2 540.541000 -2345.570000 241.816000 1 1.000000 1 -3.000000
408 2 549.967000 -2346.490000 238.792000 1 1.000000 1 -3.000000
409 2 559.107000 -2347.960000 235.643000 1 1.000000 1 -3.000000
410 2 568.337000 -2350.980000 234.315000 1 1.000000 1 -3.000000
411 2 574.950000 -2358.180000 236.537000 1 1.000000 1 -3.000000
412 2 582.355000 -2363.750000 239.699000 1 1.000000 1 -3.000000
413 2 590.223000 -2368.930000 242.252000 1 1.000000 1 -3.000000
414 2 598.158000 -2374.840000 241.920000 1 1.000000 1 -3.000000
415 2 606.082000 -2380.780000 241.627000 1 1.000000 1 -3.000000
416 2 614.636000 -2385.470000 241.594000 1 1.000000 1 -3.000000
417 2 621.826000 -2392.310000 240.975000 1 1.000000 1 -3.000000
418 2 625.273000 -2401.580000 240.304000 1 1.000000 1 -3.000000
419 2 629.446000 -2410.690000 239.919000 1 1.000000 1 -3.000000
420 2 635.588000 -2418.390000 240.991000 1 1.000000 1 -3.000000
421 2 642.315000 -2425.500000 241.999000 1 1.000000 1 -3.000000
422 2 649.861000 -2431.470000 240.219000 1 1.000000 1 -3.000000
423 2 658.151000 -2436.980000 241.074000 1 1.000000 1 -3.000000
424 2 667.082000 -2441.160000 242.106000 1 1.000000 1 -3.000000
425 2 676.781000 -2442.770000 242.276000 1 1.000000 1 -3.000000
426 2 686.075000 -2445.920000 244.123000 1 1.000000 17 -3.000000
427 1 708.793000 -2404.710000 247.820000 1 1.000000 17 0.000000
428 3 675.201000 -2396.180000 253.589000 1 1.000000 17 0.000000
429 2 710.910000 -2358.310000 256.113000 1 1.000000 17 -3.000000
430 2 701.588000 -2356.590000 259.213000 1 1.000000 1 -3.000000
431 2 693.503000 -2355.650000 264.843000 1 1.000000 1 -3.000000
432 2 685.017000 -2353.610000 269.310000 1 1.000000 1 -3.000000
433 2 675.492000 -2356.310000 270.491000 1 1.000000 1 -3.000000
434 2 666.875000 -2358.200000 275.088000 1 1.000000 1 -3.000000
435 2 658.883000 -2362.990000 278.590000 1 1.000000 1 -3.000000
436 2 649.394000 -2365.100000 280.712000 1 1.000000 1 -3.000000
437 2 639.528000 -2365.370000 281.797000 1 1.000000 1 -3.000000
438 2 629.908000 -2363.460000 283.224000 1 1.000000 1 -3.000000
439 2 620.630000 -2360.360000 284.363000 1 1.000000 1 -3.000000
440 2 611.459000 -2356.640000 283.336000 1 1.000000 1 -3.000000
441 2 602.483000 -2352.860000 281.529000 1 1.000000 1 -3.000000
442 2 595.906000 -2345.310000 281.433000 1 1.000000 1 -3.000000
443 2 591.532000 -2337.020000 284.870000 1 1.000000 1 -3.000000
444 2 586.925000 -2329.130000 288.377000 1 1.000000 1 -3.000000
445 2 581.817000 -2323.410000 294.637000 1 1.000000 1 -3.000000
446 2 576.626000 -2316.370000 299.208000 1 1.000000 1 -3.000000
447 2 568.549000 -2311.950000 302.641000 1 1.000000 1 -3.000000
448 2 560.808000 -2307.750000 307.097000 1 1.000000 1 -3.000000
449 2 554.665000 -2300.590000 309.664000 1 1.000000 1 -3.000000
450 2 548.754000 -2294.270000 314.466000 1 1.000000 1 -3.000000
451 2 544.439000 -2289.310000 321.753000 1 1.000000 1 -3.000000
452 2 539.473000 -2285.170000 329.305000 1 1.000000 1 -3.000000
453 2 535.064000 -2283.390000 337.858000 1 1.000000 18 -3.000000
454 1 500.016000 -2252.980000 346.209000 1 1.000000 18 0.000000
455 3 505.672000 -2249.500000 311.849000 1 1.000000 18 0.000000
456 2 469.579000 -2219.150000 333.623000 1 1.000000 18 -3.000000
457 2 477.763000 -2218.240000 327.928000 1 1.000000 1 -3.000000
458 2 484.178000 -2218.220000 320.424000 1 1.000000 1 -3.000000
459 2 491.492000 -2220.520000 314.322000 1 1.000000 1 -3.000000
460 2 496.544000 -2222.260000 305.964000 1 1.000000 1 -3.000000
461 2 502.980000 -2222.860000 298.416000 1 1.000000 1 -3.000000
462 2 509.456000 -2218.250000 292.782000 1 1.000000 1 -3.000000
463 2 518.441000 -2215.250000 290.212000 1 1.000000 1 -3.000000
464 2 525.522000 -2208.250000 291.342000 1 1.000000 1 -3.000000
465 2 532.039000 -2200.760000 291.595000 1 1.000000 1 -3.000000