LAMMPS data file

4067 atoms
4067 ellipsoids
4516 bonds
8882 angles
0 dihedrals

3 atom types
5 bond types
12 angle types
0 dihedral types

-4631.092947 4670.465898 xlo xhi
-4631.092947 4670.465898 ylo yhi
-4631.092947 4670.465898 zlo zhi

Masses

1 196016.000000
2 1950.000000
3 19500.000000

Atoms

1 2 567.603000 -3072.400000 689.933000 1 1.000000 1 -3.000000
2 2 563.035000 -3077.030000 682.460000 1 1.000000 1 -3.000000
3 2 562.290000 -3085.270000 676.780000 1 1.000000 1 -3.000000
4 2 561.227000 -3091.850000 669.535000 1 1.000000 1 -3.000000
5 2 560.919000 -3100.370000 664.596000 1 1.000000 1 -3.000000
6 2 562.223000 -3107.520000 657.799000 1 1.000000 1 -3.000000
7 2 561.906000 -3113.130000 649.646000 1 1.000000 1 -3.000000
8 2 560.153000 -3118.620000 641.609000 1 1.000000 1 -3.000000
9 2 560.086000 -3124.470000 633.605000 1 1.000000 1 -3.000000
10 2 560.928000 -3130.320000 625.551000 1 1.000000 1 -3.000000
11 2 562.041000 -3138.110000 619.596000 1 1.000000 1 -3.000000
12 2 559.483000 -3146.200000 614.523000 1 1.000000 1 -3.000000
13 2 560.874000 -3155.280000 611.177000 1 1.000000 1 -3.000000
14 2 560.348000 -3165.060000 610.259000 1 1.000000 1 -3.000000
15 2 557.799000 -3174.510000 611.588000 1 1.000000 1 -3.000000
16 2 554.143000 -3182.870000 615.338000 1 1.000000 1 -3.000000
17 2 550.503000 -3190.670000 620.111000 1 1.000000 1 -3.000000
18 2 547.043000 -3198.260000 625.514000 1 1.000000 1 -3.000000
19 2 543.778000 -3205.440000 631.508000 1 1.000000 1 -3.000000
20 2 541.494000 -3214.030000 635.974000 1 1.000000 1 -3.000000
21 2 541.701000 -3220.480000 643.410000 1 1.000000 2 -3.000000
22 1 527.394000 -3260.940000 623.898000 1 1.000000 2 0.000000
23 3 516.030000 -3236.630000 601.362000 1 1.000000 2 0.000000
24 2 507.559000 -3286.570000 589.616000 1 1.000000 2 -3.000000
25 2 506.899000 -3280.180000 582.149000 1 1.000000 1 -3.000000
26 2 502.039000 -3273.360000 576.888000 1 1.000000 1 -3.000000
27 2 499.552000 -3265.200000 572.026000 1 1.000000 1 -3.000000
28 2 500.990000 -3257.350000 566.210000 1 1.000000 1 -3.000000
29 2 502.931000 -3248.390000 562.651000 1 1.000000 1 -3.000000
30 2 501.863000 -3238.910000 559.757000 1 1.000000 1 -3.000000
31 2 503.305000 -3229.400000 557.365000 1 1.000000 1 -3.000000
32 2 507.570000 -3220.490000 555.931000 1 1.000000 1 -3.000000
33 2 510.019000 -3211.210000 553.473000 1 1.000000 1 -3.000000
34 2 515.076000 -3202.820000 552.996000 1 1.000000 1 -3.000000
35 2 520.998000 -3194.950000 553.765000 1 1.000000 1 -3.000000
36 2 525.781000 -3186.310000 552.551000 1 1.000000 1 -3.000000
37 2 527.945000 -3176.540000 552.362000 1 1.000000 1 -3.000000
38 2 530.110000 -3168.160000 547.496000 1 1.000000 1 -3.000000
39 2 533.589000 -3159.460000 544.242000 1 1.000000 1 -3.000000
40 2 539.553000 -3152.140000 541.271000 1 1.000000 1 -3.000000
41 2 547.339000 -3146.150000 539.406000 1 1.000000 1 -3.000000
42 2 556.416000 -3142.360000 539.556000 1 1.000000 1 -3.000000
43 2 563.859000 -3136.490000 542.419000 1 1.000000 1 -3.000000
44 2 572.607000 -3132.420000 540.497000 1 1.000000 1 -3.000000
45 2 579.971000 -3126.600000 543.421000 1 1.000000 1 -3.000000
46 2 585.195000 -3120.040000 548.566000 1 1.000000 1 -3.000000
47 2 590.356000 -3115.350000 555.621000 1 1.000000 1 -3.000000
48 2 596.453000 -3111.560000 562.466000 1 1.000000 3 -3.000000
49 1 637.512000 -3128.700000 546.697000 1 1.000000 3 0.000000
50 3 614.384000 -3140.500000 523.203000 1 1.000000 3 0.000000
51 2 664.087000 -3154.770000 517.575000 1 1.000000 3 -3.000000
52 2 657.928000 -3156.190000 510.001000 1 1.000000 1 -3.000000
53 2 651.166000 -3159.870000 503.840000 1 1.000000 1 -3.000000
54 2 644.162000 -3161.310000 496.905000 1 1.000000 1 -3.000000
55 2 637.617000 -3161.820000 489.542000 1 1.000000 1 -3.000000
56 2 629.375000 -3163.680000 484.498000 1 1.000000 1 -3.000000
57 2 623.421000 -3159.970000 477.593000 1 1.000000 1 -3.000000
58 2 619.146000 -3153.470000 471.471000 1 1.000000 1 -3.000000
59 2 612.035000 -3146.900000 469.294000 1 1.000000 1 -3.000000
60 2 607.326000 -3138.180000 468.140000 1 1.000000 1 -3.000000
61 2 603.601000 -3128.970000 469.151000 1 1.000000 1 -3.000000
62 2 597.984000 -3120.900000 468.432000 1 1.000000 1 -3.000000
63 2 592.746000 -3112.740000 466.121000 1 1.000000 1 -3.000000
64 2 591.172000 -3103.070000 466.376000 1 1.000000 1 -3.000000
65 2 588.686000 -3093.690000 467.966000 1 1.000000 1 -3.000000
66 2 587.071000 -3084.260000 470.161000 1 1.000000 1 -3.000000
67 2 584.654000 -3074.860000 471.720000 1 1.000000 1 -3.000000
68 2 584.206000 -3065.360000 474.229000 1 1.000000 1 -3.000000
69 2 581.251000 -3057.900000 479.925000 1 1.000000 1 -3.000000
70 2 579.395000 -3048.670000 482.497000 1 1.000000 1 -3.000000
71 2 573.664000 -3040.590000 481.547000 1 1.000000 1 -3.000000
72 2 571.932000 -3030.920000 482.198000 1 1.000000 1 -3.000000
73 2 571.050000 -3021.600000 485.767000 1 1.000000 1 -3.000000
74 2 572.254000 -3011.720000 485.151000 1 1.000000 1 -3.000000
75 2 574.711000 -3002.850000 488.374000 1 1.000000 4 -3.000000
76 1 597.316000 -2977.220000 455.782000 1 1.000000 4 0.000000
77 3 600.277000 -3009.950000 443.992000 1 1.000000 4 0.000000
78 2 625.050000 -2972.290000 417.946000 1 1.000000 4 -3.000000
79 2 622.020000 -2980.910000 414.405000 1 1.000000 1 -3.000000
80 2 620.276000 -2988.580000 408.315000 1 1.000000 1 -3.000000
81 2 617.360000 -2996.400000 402.863000 1 1.000000 1 -3.000000
82 2 614.943000 -3002.880000 395.705000 1 1.000000 1 -3.000000
83 2 613.805000 -3006.210000 386.452000 1 1.000000 1 -3.000000
84 2 614.957000 -3008.720000 377.009000 1 1.000000 1 -3.000000
85 2 616.580000 -3009.700000 367.340000 1 1.000000 1 -3.000000
86 2 619.913000 -3011.670000 358.230000 1 1.000000 1 -3.000000
87 2 619.779000 -3013.670000 348.510000 1 1.000000 1 -3.000000
88 2 618.317000 -3017.690000 339.434000 1 1.000000 1 -3.000000
89 2 617.516000 -3019.770000 329.844000 1 1.000000 1 -3.000000
90 2 616.203000 -3021.120000 320.087000 1 1.000000 1 -3.000000
91 2 616.941000 -3017.690000 310.731000 1 1.000000 1 -3.000000
92 2 618.374000 -3013.680000 301.877000 1 1.000000 1 -3.000000
93 2 623.179000 -3008.380000 294.999000 1 1.000000 1 -3.000000
94 2 625.501000 -3004.060000 286.374000 1 1.000000 1 -3.000000
95 2 627.855000 -3000.210000 277.649000 1 1.000000 1 -3.000000
96 2 629.058000 -2993.400000 270.562000 1 1.000000 1 -3.000000
97 2 630.115000 -2987.370000 262.895000 1 1.000000 1 -3.000000
98 2 629.978000 -2984.050000 253.629000 1 1.000000 1 -3.000000
99 2 629.949000 -2981.010000 244.183000 1 1.000000 1 -3.000000
100 2 626.498000 -2979.370000 235.060000 1 1.000000 1 -3.000000
101 2 624.039000 -2979.060000 225.416000 1 1.000000 1 -3.000000
102 2 620.111000 -2978.980000 216.176000 1 1.000000 5 -3.000000
103 1 590.778000 -2964.510000 250.145000 1 1.000000 5 0.000000
104 3 620.695000 -2970.250000 267.422000 1 1.000000 5 0.000000
105 2 580.104000 -2952.520000 294.534000 1 1.000000 5 -3.000000
106 2 589.060000 -2952.110000 298.667000 1 1.000000 1 -3.000000
107 2 598.315000 -2954.170000 301.493000 1 1.000000 1 -3.000000
108 2 607.172000 -2956.320000 305.179000 1 1.000000 1 -3.000000
109 2 616.353000 -2955.290000 308.811000 1 1.000000 1 -3.000000
110 2 625.495000 -2952.630000 311.393000 1 1.000000 1 -3.000000
111 2 634.257000 -2948.970000 313.947000 1 1.000000 1 -3.000000
112 2 643.388000 -2945.090000 314.695000 1 1.000000 1 -3.000000
113 2 651.682000 -2939.850000 315.707000 1 1.000000 1 -3.000000
114 2 658.601000 -2932.690000 316.521000 1 1.000000 1 -3.000000
115 2 665.525000 -2925.720000 316.329000 1 1.000000 1 -3.000000
116 2 671.465000 -2917.870000 314.944000 1 1.000000 1 -3.000000
117 2 678.215000 -2911.450000 311.643000 1 1.000000 1 -3.000000
118 2 685.619000 -2904.870000 310.967000 1 1.000000 1 -3.000000
119 2 691.553000 -2897.030000 310.933000 1 1.000000 1 -3.000000
120 2 697.223000 -2889.490000 313.845000 1 1.000000 1 -3.000000
121 2 704.601000 -2883.980000 317.646000 1 1.000000 1 -3.000000
122 2 707.964000 -2874.860000 319.053000 1 1.000000 1 -3.000000
123 2 710.919000 -2865.420000 319.089000 1 1.000000 1 -3.000000
124 2 717.062000 -2857.780000 319.247000 1 1.000000 1 -3.000000
125 2 723.647000 -2850.700000 317.495000 1 1.000000 1 -3.000000
126 2 727.265000 -2842.260000 313.938000 1 1.000000 1 -3.000000
127 2 728.086000 -2832.610000 312.250000 1 1.000000 1 -3.000000
128 2 729.870000 -2822.790000 311.741000 1 1.000000 1 -3.000000
129 2 732.256000 -2813.350000 309.805000 1 1.000000 6 -3.000000
130 1 705.953000 -2811.830000 270.662000 1 1.000000 6 0.000000
131 3 693.104000 -2839.540000 287.873000 1 1.000000 6 0.000000
132 2 672.215000 -2827.750000 241.705000 1 1.000000 6 -3.000000
133 2 670.183000 -2835.670000 247.176000 1 1.000000 1 -3.000000
134 2 665.473000 -2842.720000 252.240000 1 1.000000 1 -3.000000
135 2 661.528000 -2849.090000 258.649000 1 1.000000 1 -3.000000
136 2 656.675000 -2851.470000 266.971000 1 1.000000 1 -3.000000
137 2 654.769000 -2855.870000 275.645000 1 1.000000 1 -3.000000
138 2 653.883000 -2861.350000 283.823000 1 1.000000 1 -3.000000
139 2 653.972000 -2865.710000 292.631000 1 1.000000 1 -3.000000
140 2 654.130000 -2870.640000 301.113000 1 1.000000 1 -3.000000
141 2 651.777000 -2872.690000 310.518000 1 1.000000 1 -3.000000
142 2 650.462000 -2873.070000 320.265000 1 1.000000 1 -3.000000
143 2 650.912000 -2873.160000 330.229000 1 1.000000 1 -3.000000
144 2 649.140000 -2872.520000 339.859000 1 1.000000 1 -3.000000
145 2 651.513000 -2870.720000 349.279000 1 1.000000 1 -3.000000
146 2 654.414000 -2871.490000 358.734000 1 1.000000 1 -3.000000
147 2 658.636000 -2869.550000 367.407000 1 1.000000 1 -3.000000
148 2 665.088000 -2867.610000 374.624000 1 1.000000 1 -3.000000
149 2 672.130000 -2866.770000 381.505000 1 1.000000 1 -3.000000
150 2 679.281000 -2864.470000 388.138000 1 1.000000 1 -3.000000
151 2 687.060000 -2862.470000 393.909000 1 1.000000 1 -3.000000
152 2 694.891000 -2859.410000 399.063000 1 1.000000 1 -3.000000
153 2 703.681000 -2855.780000 401.934000 1 1.000000 1 -3.000000
154 2 712.637000 -2852.470000 405.014000 1 1.000000 1 -3.000000
155 2 722.349000 -2850.420000 405.828000 1 1.000000 1 -3.000000
156 2 731.433000 -2849.760000 409.675000 1 1.000000 7 -3.000000
157 1 752.803000 -2882.300000 383.039000 1 1.000000 7 0.000000
158 3 719.217000 -2885.310000 373.932000 1 1.000000 7 0.000000
159 2 753.145000 -2919.400000 353.811000 1 1.000000 7 -3.000000
160 2 745.030000 -2919.650000 348.254000 1 1.000000 1 -3.000000
161 2 737.076000 -2917.760000 342.647000 1 1.000000 1 -3.000000
162 2 729.400000 -2913.970000 337.974000 1 1.000000 1 -3.000000
163 2 721.186000 -2909.820000 334.438000 1 1.000000 1 -3.000000
164 2 711.576000 -2907.960000 335.698000 1 1.000000 1 -3.000000
165 2 702.700000 -2904.470000 338.397000 1 1.000000 1 -3.000000
166 2 693.579000 -2902.930000 341.643000 1 1.000000 1 -3.000000
167 2 686.820000 -2900.520000 348.460000 1 1.000000 1 -3.000000
168 2 680.973000 -2900.160000 356.391000 1 1.000000 1 -3.000000
169 2 672.802000 -2900.890000 361.894000 1 1.000000 1 -3.000000
170 2 664.296000 -2903.890000 365.871000 1 1.000000 1 -3.000000
171 2 656.830000 -2905.910000 372.125000 1 1.000000 1 -3.000000
172 2 649.645000 -2910.220000 377.498000 1 1.000000 1 -3.000000
173 2 641.638000 -2911.080000 383.077000 1 1.000000 1 -3.000000
174 2 635.320000 -2909.890000 390.470000 1 1.000000 1 -3.000000
175 2 629.300000 -2912.770000 397.800000 1 1.000000 1 -3.000000
176 2 623.511000 -2912.740000 405.820000 1 1.000000 1 -3.000000
177 2 617.429000 -2916.900000 412.343000 1 1.000000 1 -3.000000
178 2 610.920000 -2917.980000 419.654000 1 1.000000 1 -3.000000
179 2 603.634000 -2921.720000 425.093000 1 1.000000 1 -3.000000
180 2 596.034000 -2924.510000 430.845000 1 1.000000 1 -3.000000
181 2 586.888000 -2927.040000 434.025000 1 1.000000 1 -3.000000
182 2 577.961000 -2931.130000 435.246000 1 1.000000 1 -3.000000
183 2 569.819000 -2935.140000 439.037000 1 1.000000 8 -3.000000
184 1 540.561000 -2905.890000 416.387000 1 1.000000 8 0.000000
185 3 571.645000 -2899.390000 401.543000 1 1.000000 8 0.000000
186 2 530.243000 -2873.080000 384.048000 1 1.000000 8 -3.000000
187 2 538.940000 -2868.540000 383.045000 1 1.000000 1 -3.000000
188 2 547.042000 -2863.060000 381.865000 1 1.000000 1 -3.000000
189 2 554.432000 -2857.550000 378.439000 1 1.000000 1 -3.000000
190 2 562.746000 -2853.580000 375.433000 1 1.000000 1 -3.000000
191 2 571.253000 -2849.120000 373.373000 1 1.000000 1 -3.000000
192 2 580.026000 -2844.910000 371.879000 1 1.000000 1 -3.000000
193 2 588.412000 -2841.010000 375.714000 1 1.000000 1 -3.000000
194 2 597.778000 -2840.290000 379.070000 1 1.000000 1 -3.000000
195 2 606.197000 -2837.260000 383.264000 1 1.000000 1 -3.000000
196 2 615.816000 -2834.840000 384.130000 1 1.000000 1 -3.000000
197 2 624.143000 -2829.890000 385.518000 1 1.000000 1 -3.000000
198 2 633.763000 -2829.030000 387.927000 1 1.000000 1 -3.000000
199 2 643.449000 -2829.310000 386.903000 1 1.000000 1 -3.000000
200 2 653.186000 -2827.710000 386.160000 1 1.000000 1 -3.000000
201 2 661.646000 -2825.510000 381.237000 1 1.000000 1 -3.000000
202 2 671.249000 -2823.750000 380.389000 1 1.000000 1 -3.000000
203 2 681.067000 -2821.990000 379.588000 1 1.000000 1 -3.000000
204 2 690.646000 -2819.830000 379.977000 1 1.000000 1 -3.000000
205 2 700.378000 -2818.840000 378.126000 1 1.000000 1 -3.000000
206 2 709.740000 -2819.180000 375.108000 1 1.000000 1 -3.000000
207 2 717.771000 -2822.290000 370.457000 1 1.000000 1 -3.000000
208 2 726.173000 -2827.210000 368.442000 1 1.000000 1 -3.000000
209 2 735.509000 -2829.960000 367.249000 1 1.000000 1 -3.000000
210 2 744.725000 -2833.170000 366.041000 1 1.000000 9 -3.000000
211 1 763.642000 -2795.110000 345.504000 1 1.000000 9 0.000000
212 3 735.615000 -2782.250000 362.105000 1 1.000000 9 0.000000
213 2 766.769000 -2748.590000 337.709000 1 1.000000 9 -3.000000
214 2 760.410000 -2747.970000 345.210000 1 1.000000 1 -3.000000
215 2 753.851000 -2747.610000 352.680000 1 1.000000 1 -3.000000
216 2 746.581000 -2746.680000 359.618000 1 1.000000 1 -3.000000
217 2 739.573000 -2744.090000 366.152000 1 1.000000 1 -3.000000
218 2 733.649000 -2738.180000 371.254000 1 1.000000 1 -3.000000
219 2 725.544000 -2735.680000 376.465000 1 1.000000 1 -3.000000
220 2 719.994000 -2729.190000 381.570000 1 1.000000 1 -3.000000
221 2 716.220000 -2722.040000 387.286000 1 1.000000 1 -3.000000
222 2 709.170000 -2716.770000 391.652000 1 1.000000 1 -3.000000
223 2 701.342000 -2712.020000 395.693000 1 1.000000 1 -3.000000
224 2 692.246000 -2708.170000 396.105000 1 1.000000 1 -3.000000
225 2 682.669000 -2706.190000 397.665000 1 1.000000 1 -3.000000
226 2 676.046000 -2699.650000 400.830000 1 1.000000 1 -3.000000
227 2 670.671000 -2692.460000 405.018000 1 1.000000 1 -3.000000
228 2 662.612000 -2687.040000 407.529000 1 1.000000 1 -3.000000
229 2 653.505000 -2683.090000 407.458000 1 1.000000 1 -3.000000
230 2 643.984000 -2680.840000 407.627000 1 1.000000 1 -3.000000
231 2 634.365000 -2679.280000 405.882000 1 1.000000 1 -3.000000
232 2 624.616000 -2679.450000 404.676000 1 1.000000 1 -3.000000
233 2 614.926000 -2681.500000 405.883000 1 1.000000 1 -3.000000
234 2 605.185000 -2682.860000 407.124000 1 1.000000 1 -3.000000
235 2 595.254000 -2683.910000 407.777000 1 1.000000 1 -3.000000
236 2 586.224000 -2686.840000 410.329000 1 1.000000 1 -3.000000
237 2 577.506000 -2691.430000 410.909000 1 1.000000 10 -3.000000
238 1 587.963000 -2731.700000 433.180000 1 1.000000 10 0.000000
239 3 616.201000 -2711.980000 438.631000 1 1.000000 10 0.000000
240 2 614.830000 -2758.870000 460.814000 1 1.000000 10 -3.000000
241 2 620.178000 -2751.160000 463.827000 1 1.000000 1 -3.000000
242 2 624.871000 -2742.930000 466.494000 1 1.000000 1 -3.000000
243 2 628.337000 -2736.350000 472.860000 1 1.000000 1 -3.000000
244 2 631.506000 -2727.110000 474.600000 1 1.000000 1 -3.000000
245 2 635.014000 -2718.420000 477.806000 1 1.000000 1 -3.000000
246 2 641.155000 -2710.840000 479.508000 1 1.000000 1 -3.000000
247 2 647.483000 -2703.220000 479.926000 1 1.000000 1 -3.000000
248 2 652.743000 -2695.270000 481.992000 1 1.000000 1 -3.000000
249 2 658.942000 -2689.090000 486.520000 1 1.000000 1 -3.000000
250 2 667.390000 -2684.850000 489.723000 1 1.000000 1 -3.000000
251 2 673.492000 -2678.270000 493.791000 1 1.000000 1 -3.000000
252 2 676.004000 -2668.640000 494.665000 1 1.000000 1 -3.000000
253 2 678.745000 -2659.190000 493.856000 1 1.000000 1 -3.000000
254 2 680.457000 -2649.920000 490.628000 1 1.000000 1 -3.000000
255 2 682.115000 -2641.530000 485.464000 1 1.000000 1 -3.000000
256 2 684.470000 -2635.380000 477.897000 1 1.000000 1 -3.000000
257 2 684.948000 -2631.620000 468.809000 1 1.000000 1 -3.000000
258 2 686.787000 -2626.150000 460.658000 1 1.000000 1 -3.000000
259 2 689.391000 -2622.720000 451.626000 1 1.000000 1 -3.000000
260 2 692.899000 -2616.560000 444.768000 1 1.000000 1 -3.000000
261 2 693.176000 -2609.390000 437.965000 1 1.000000 1 -3.000000
262 2 695.490000 -2603.220000 430.607000 1 1.000000 1 -3.000000
263 2 696.189000 -2596.610000 423.162000 1 1.000000 1 -3.000000
264 2 697.727000 -2588.630000 417.387000 1 1.000000 11 -3.000000
265 1 670.114000 -2617.910000 392.867000 1 1.000000 11 0.000000
266 3 658.119000 -2621.070000 425.567000 1 1.000000 11 0.000000
267 2 634.074000 -2648.070000 388.170000 1 1.000000 11 -3.000000
268 2 629.837000 -2642.690000 395.279000 1 1.000000 1 -3.000000
269 2 626.460000 -2637.770000 403.171000 1 1.000000 1 -3.000000
270 2 620.957000 -2636.260000 411.309000 1 1.000000 1 -3.000000
271 2 617.728000 -2634.770000 420.523000 1 1.000000 1 -3.000000
272 2 613.601000 -2633.370000 429.354000 1 1.000000 1 -3.000000
273 2 608.741000 -2629.750000 437.216000 1 1.000000 1 -3.000000
274 2 608.549000 -2625.190000 446.034000 1 1.000000 1 -3.000000
275 2 609.583000 -2619.410000 454.145000 1 1.000000 1 -3.000000
276 2 611.758000 -2612.890000 461.211000 1 1.000000 1 -3.000000
277 2 613.493000 -2608.470000 469.736000 1 1.000000 1 -3.000000
278 2 612.930000 -2602.870000 477.823000 1 1.000000 1 -3.000000
279 2 613.712000 -2597.060000 485.846000 1 1.000000 1 -3.000000
280 2 614.228000 -2592.090000 494.404000 1 1.000000 1 -3.000000
281 2 615.251000 -2587.380000 502.945000 1 1.000000 1 -3.000000
282 2 616.500000 -2584.250000 512.368000 1 1.000000 1 -3.000000
283 2 614.766000 -2585.670000 521.941000 1 1.000000 1 -3.000000
284 2 608.478000 -2585.680000 529.599000 1 1.000000 1 -3.000000
285 2 602.271000 -2585.380000 537.297000 1 1.000000 1 -3.000000
286 2 594.101000 -2582.650000 542.321000 1 1.000000 1 -3.000000
287 2 585.029000 -2580.480000 545.598000 1 1.000000 1 -3.000000
288 2 577.590000 -2574.590000 548.757000 1 1.000000 1 -3.000000
289 2 568.850000 -2569.930000 550.546000 1 1.000000 1 -3.000000
290 2 559.155000 -2568.580000 550.365000 1 1.000000 1 -3.000000
291 2 549.757000 -2565.670000 551.328000 1 1.000000 12 -3.000000
292 1 552.364000 -2521.410000 567.450000 1 1.000000 12 0.000000
293 3 585.813000 -2531.530000 566.622000 1 1.000000 12 0.000000
294 2 575.226000 -2484.270000 585.446000 1 1.000000 12 -3.000000
295 2 583.277000 -2488.660000 581.941000 1 1.000000 1 -3.000000
296 2 593.010000 -2490.150000 582.100000 1 1.000000 1 -3.000000
297 2 602.773000 -2490.290000 580.249000 1 1.000000 1 -3.000000
298 2 610.381000 -2489.550000 573.904000 1 1.000000 1 -3.000000
299 2 617.202000 -2490.070000 566.689000 1 1.000000 1 -3.000000
300 2 622.182000 -2492.400000 558.464000 1 1.000000 1 -3.000000
301 2 623.347000 -2492.880000 548.673000 1 1.000000 1 -3.000000
302 2 625.503000 -2493.910000 539.113000 1 1.000000 1 -3.000000
303 2 629.849000 -2494.960000 530.295000 1 1.000000 1 -3.000000
304 2 634.172000 -2494.710000 521.386000 1 1.000000 1 -3.000000
305 2 639.043000 -2493.390000 512.922000 1 1.000000 1 -3.000000
306 2 641.525000 -2489.760000 504.063000 1 1.000000 1 -3.000000
307 2 643.547000 -2487.580000 494.742000 1 1.000000 1 -3.000000
308 2 644.744000 -2483.110000 486.020000 1 1.000000 1 -3.000000
309 2 643.346000 -2479.600000 476.829000 1 1.000000 1 -3.000000
310 2 641.960000 -2473.220000 469.306000 1 1.000000 1 -3.000000
311 2 643.174000 -2463.670000 467.046000 1 1.000000 1 -3.000000
312 2 645.260000 -2454.000000 466.282000 1 1.000000 1 -3.000000
313 2 645.808000 -2444.250000 465.028000 1 1.000000 1 -3.000000
314 2 644.864000 -2434.450000 463.928000 1 1.000000 1 -3.000000
315 2 642.008000 -2426.180000 468.721000 1 1.000000 1 -3.000000
316 2 638.549000 -2418.880000 474.582000 1 1.000000 1 -3.000000
317 2 635.201000 -2410.180000 477.943000 1 1.000000 1 -3.000000
318 2 633.205000 -2401.680000 482.691000 1 1.000000 13 -3.000000
319 1 615.700000 -2381.780000 443.607000 1 1.000000 13 0.000000
320 3 636.828000 -2406.660000 431.013000 1 1.000000 13 0.000000
321 2 611.730000 -2376.560000 396.960000 1 1.000000 13 -3.000000
322 2 614.357000 -2384.910000 392.414000 1 1.000000 1 -3.000000
323 2 617.062000 -2392.300000 386.398000 1 1.000000 1 -3.000000
324 2 618.012000 -2399.660000 379.852000 1 1.000000 1 -3.000000
325 2 617.245000 -2405.270000 371.685000 1 1.000000 1 -3.000000
326 2 616.713000 -2408.410000 362.418000 1 1.000000 1 -3.000000
327 2 617.550000 -2409.700000 352.703000 1 1.000000 1 -3.000000
328 2 617.441000 -2410.070000 342.817000 1 1.000000 1 -3.000000
329 2 616.915000 -2409.900000 332.934000 1 1.000000 1 -3.000000
330 2 615.023000 -2410.640000 323.246000 1 1.000000 1 -3.000000
331 2 614.005000 -2408.200000 313.715000 1 1.000000 1 -3.000000
332 2 612.443000 -2404.010000 304.880000 1 1.000000 1 -3.000000
333 2 611.676000 -2401.470000 295.377000 1 1.000000 1 -3.000000
334 2 611.965000 -2398.300000 285.922000 1 1.000000 1 -3.000000
335 2 610.594000 -2396.710000 276.211000 1 1.000000 1 -3.000000
336 2 609.727000 -2399.270000 266.700000 1 1.000000 1 -3.000000
337 2 607.469000 -2402.790000 257.785000 1 1.000000 1 -3.000000
338 2 603.185000 -2404.080000 248.939000 1 1.000000 1 -3.000000
339 2 599.926000 -2403.430000 239.690000 1 1.000000 1 -3.000000
340 2 598.018000 -2404.130000 230.083000 1 1.000000 1 -3.000000
341 2 598.524000 -2403.340000 220.314000 1 1.000000 1 -3.000000
342 2 598.262000 -2401.990000 210.463000 1 1.000000 1 -3.000000
343 2 597.490000 -2401.390000 200.618000 1 1.000000 1 -3.000000
344 2 594.677000 -2398.470000 191.641000 1 1.000000 1 -3.000000
345 2 592.139000 -2397.530000 182.205000 1 1.000000 14 -3.000000
346 1 632.608000 -2418.750000 170.427000 1 1.000000 14 0.000000
347 3 623.253000 -2435.090000 199.905000 1 1.000000 14 0.000000
348 2 666.269000 -2451.330000 175.721000 1 1.000000 14 -3.000000
349 2 663.124000 -2450.180000 185.136000 1 1.000000 1 -3.000000
350 2 660.261000 -2453.600000 194.020000 1 1.000000 1 -3.000000
351 2 657.523000 -2458.360000 202.316000 1 1.000000 1 -3.000000
352 2 651.889000 -2461.920000 209.734000 1 1.000000 1 -3.000000
353 2 645.641000 -2465.760000 216.338000 1 1.000000 1 -3.000000
354 2 640.818000 -2470.450000 223.694000 1 1.000000 1 -3.000000
355 2 634.407000 -2476.640000 227.941000 1 1.000000 1 -3.000000
356 2 627.862000 -2483.610000 230.518000 1 1.000000 1 -3.000000
357 2 621.128000 -2489.520000 234.642000 1 1.000000 1 -3.000000
358 2 614.371000 -2492.990000 240.704000 1 1.000000 1 -3.000000
359 2 609.175000 -2497.260000 247.997000 1 1.000000 1 -3.000000
360 2 604.922000 -2504.830000 252.716000 1 1.000000 1 -3.000000
361 2 605.728000 -2513.540000 257.353000 1 1.000000 1 -3.000000
362 2 605.341000 -2520.180000 264.839000 1 1.000000 1 -3.000000
363 2 605.793000 -2526.590000 272.471000 1 1.000000 1 -3.000000
364 2 608.996000 -2533.690000 278.539000 1 1.000000 1 -3.000000
365 2 612.211000 -2538.720000 286.413000 1 1.000000 1 -3.000000
366 2 613.692000 -2543.310000 295.089000 1 1.000000 1 -3.000000
367 2 616.709000 -2549.500000 302.141000 1 1.000000 1 -3.000000
368 2 620.310000 -2557.700000 306.397000 1 1.000000 1 -3.000000
369 2 625.662000 -2566.080000 306.385000 1 1.000000 1 -3.000000
370 2 631.410000 -2573.790000 304.287000 1 1.000000 1 -3.000000
371 2 639.061000 -2579.430000 301.613000 1 1.000000 1 -3.000000
372 2 643.819000 -2587.760000 304.073000 1 1.000000 15 -3.000000
373 1 624.480000 -2607.690000 265.957000 1 1.000000 15 0.000000
374 3 617.774000 -2573.620000 261.536000 1 1.000000 15 0.000000
375 2 601.762000 -2606.510000 224.676000 1 1.000000 15 -3.000000
376 2 602.329000 -2596.960000 222.353000 1 1.000000 1 -3.000000
377 2 602.763000 -2587.300000 220.453000 1 1.000000 1 -3.000000
378 2 601.865000 -2578.330000 216.432000 1 1.000000 1 -3.000000
379 2 597.661000 -2572.180000 210.012000 1 1.000000 1 -3.000000
380 2 589.065000 -2567.770000 207.685000 1 1.000000 1 -3.000000
381 2 580.357000 -2563.460000 205.604000 1 1.000000 1 -3.000000
382 2 572.128000 -2558.030000 204.201000 1 1.000000 1 -3.000000
383 2 564.224000 -2552.100000 203.290000 1 1.000000 1 -3.000000
384 2 555.809000 -2546.880000 202.615000 1 1.000000 1 -3.000000
385 2 546.435000 -2543.760000 203.785000 1 1.000000 1 -3.000000
386 2 537.008000 -2540.990000 202.741000 1 1.000000 1 -3.000000
387 2 527.681000 -2539.050000 200.118000 1 1.000000 1 -3.000000
388 2 518.108000 -2538.670000 197.314000 1 1.000000 1 -3.000000
389 2 508.281000 -2538.430000 198.176000 1 1.000000 1 -3.000000
390 2 498.945000 -2540.920000 200.119000 1 1.000000 1 -3.000000
391 2 489.718000 -2544.270000 200.612000 1 1.000000 1 -3.000000
392 2 479.855000 -2545.690000 201.606000 1 1.000000 1 -3.000000
393 2 470.393000 -2548.140000 203.472000 1 1.000000 1 -3.000000
394 2 461.804000 -2552.220000 206.418000 1 1.000000 1 -3.000000
395 2 453.301000 -2553.890000 211.273000 1 1.000000 1 -3.000000
396 2 443.665000 -2555.950000 211.512000 1 1.000000 1 -3.000000
397 2 433.815000 -2555.550000 210.223000 1 1.000000 1 -3.000000
398 2 424.043000 -2554.290000 210.110000 1 1.000000 1 -3.000000
399 2 414.096000 -2555.280000 210.056000 1 1.000000 16 -3.000000
400 1 404.705000 -2528.090000 172.559000 1 1.000000 16 0.000000
401 3 439.451000 -2531.650000 171.414000 1 1.000000 16 0.000000
402 2 416.578000 -2505.260000 133.073000 1 1.000000 16 -3.000000
403 2 426.051000 -2505.010000 135.708000 1 1.000000 1 -3.000000
404 2 435.891000 -2504.820000 137.580000 1 1.000000 1 -3.000000
405 2 445.284000 -2503.590000 140.213000 1 1.000000 1 -3.000000
406 2 454.017000 -2500.150000 143.733000 1 1.000000 1 -3.000000
407 2 460.948000 -2494.350000 147.756000 1 1.000000 1 -3.000000
408 2 469.138000 -2493.110000 153.290000 1 1.000000 1 -3.000000
409 2 471.224000 -2493.020000 162.879000 1 1.000000 1 -3.000000
410 2 472.182000 -2493.760000 172.750000 1 1.000000 1 -3.000000
411 2 469.238000 -2488.760000 180.702000 1 1.000000 1 -3.000000
412 2 468.380000 -2483.050000 188.747000 1 1.000000 1 -3.000000
413 2 469.095000 -2479.280000 197.896000 1 1.000000 1 -3.000000
414 2 467.288000 -2475.270000 206.727000 1 1.000000 1 -3.000000
415 2 462.475000 -2474.930000 215.462000 1 1.000000 1 -3.000000
416 2 457.138000 -2474.770000 223.782000 1 1.000000 1 -3.000000
417 2 453.177000 -2476.110000 232.642000 1 1.000000 1 -3.000000
418 2 450.194000 -2480.040000 241.303000 1 1.000000 1 -3.000000
419 2 445.595000 -2484.380000 248.870000 1 1.000000 1 -3.000000
420 2 441.160000 -2485.190000 257.543000 1 1.000000 1 -3.000000
421 2 437.037000 -2483.630000 266.345000 1 1.000000 1 -3.000000
422 2 431.709000 -2485.740000 274.489000 1 1.000000 1 -3.000000
423 2 423.717000 -2486.490000 280.262000 1 1.000000 1 -3.000000
424 2 418.725000 -2490.790000 287.734000 1 1.000000 1 -3.000000
425 2 412.692000 -2496.280000 293.470000 1 1.000000 1 -3.000000
426 2 409.622000 -2504.820000 297.718000 1 1.000000 17 -3.000000
427 1 443.492000 -2525.770000 272.383000 1 1.000000 17 0.000000
428 3 448.991000 -2491.770000 266.228000 1 1.000000 17 0.000000
429 2 480.522000 -2525.860000 243.175000 1 1.000000 17 -3.000000
430 2 482.956000 -2516.210000 242.431000 1 1.000000 1 -3.000000
431 2 483.254000 -2506.660000 240.902000 1 1.000000 1 -3.000000
432 2 484.107000 -2496.890000 239.985000 1 1.000000 1 -3.000000
433 2 484.284000 -2487.270000 242.507000 1 1.000000 1 -3.000000
434 2 484.507000 -2477.550000 244.416000 1 1.000000 1 -3.000000
435 2 481.488000 -2468.280000 245.064000 1 1.000000 1 -3.000000
436 2 476.875000 -2459.910000 247.158000 1 1.000000 1 -3.000000
437 2 472.306000 -2451.520000 249.806000 1 1.000000 1 -3.000000
438 2 469.065000 -2442.100000 249.543000 1 1.000000 1 -3.000000
439 2 466.369000 -2432.580000 249.811000 1 1.000000 1 -3.000000
440 2 464.783000 -2423.080000 247.376000 1 1.000000 1 -3.000000
441 2 465.600000 -2413.190000 248.149000 1 1.000000 1 -3.000000
442 2 464.155000 -2404.360000 252.531000 1 1.000000 1 -3.000000
443 2 461.921000 -2397.320000 259.165000 1 1.000000 1 -3.000000
444 2 462.164000 -2390.910000 266.699000 1 1.000000 1 -3.000000
445 2 461.059000 -2382.510000 271.640000 1 1.000000 1 -3.000000
446 2 459.999000 -2372.780000 272.391000 1 1.000000 1 -3.000000
447 2 458.114000 -2363.610000 269.454000 1 1.000000 1 -3.000000
448 2 461.133000 -2355.690000 264.429000 1 1.000000 1 -3.000000
449 2 464.667000 -2348.400000 258.928000 1 1.000000 1 -3.000000
450 2 464.721000 -2342.540000 251.004000 1 1.000000 1 -3.000000
451 2 463.328000 -2336.480000 243.336000 1 1.000000 1 -3.000000
452 2 460.179000 -2332.490000 234.774000 1 1.000000 1 -3.000000
453 2 455.581000 -2329.930000 226.329000 1 1.000000 18 -3.000000
454 1 415.394000 -2354.610000 226.780000 1 1.000000 18 0.000000
455 3 424.947000 -2354.020000 260.474000 1 1.000000 18 0.000000
456 2 380.441000 -2377.900000 248.292000 1 1.000000 18 -3.000000
457 2 382.999000 -2381.790000 257.108000 1 1.000000 1 -3.000000
458 2 387.544000 -2381.500000 265.777000 1 1.000000 1 -3.000000
459 2 393.475000 -2380.130000 273.714000 1 1.000000 1 -3.000000
460 2 398.323000 -2379.800000 282.329000 1 1.000000 1 -3.000000
461 2 401.520000 -2376.150000 290.834000 1 1.000000 1 -3.000000
462 2 408.196000 -2374.040000 297.772000 1 1.000000 1 -3.000000
463 2 414.999000 -2371.790000 304.589000 1 1.000000 1 -3.000000
464 2 421.083000 -2367.500000 311.042000 1 1.000000 1 -3.000000
465 2 424.689000 -2362.790000 318.952000 1 1.000000 1 -3.000000