LAMMPS data file

4067 atoms
4067 ellipsoids
4516 bonds
8882 angles
0 dihedrals

3 atom types
5 bond types
12 angle types
0 dihedral types

-4631.092947 4670.465898 xlo xhi
-4631.092947 4670.465898 ylo yhi
-4631.092947 4670.465898 zlo zhi

Masses

1 196016.000000
2 1950.000000
3 19500.000000

Atoms

1 2 666.342000 -2955.080000 735.347000 1 1.000000 1 -3.000000
2 2 666.606000 -2957.020000 745.010000 1 1.000000 1 -3.000000
3 2 666.824000 -2959.970000 754.492000 1 1.000000 1 -3.000000
4 2 666.000000 -2962.520000 763.981000 1 1.000000 1 -3.000000
5 2 662.395000 -2966.910000 772.003000 1 1.000000 1 -3.000000
6 2 656.575000 -2970.280000 779.269000 1 1.000000 1 -3.000000
7 2 649.254000 -2975.200000 783.605000 1 1.000000 1 -3.000000
8 2 642.031000 -2980.560000 787.570000 1 1.000000 1 -3.000000
9 2 635.893000 -2987.560000 790.788000 1 1.000000 1 -3.000000
10 2 629.871000 -2993.430000 795.871000 1 1.000000 1 -3.000000
11 2 622.822000 -2998.040000 801.086000 1 1.000000 1 -3.000000
12 2 615.408000 -3002.110000 806.469000 1 1.000000 1 -3.000000
13 2 608.651000 -3003.180000 813.705000 1 1.000000 1 -3.000000
14 2 604.107000 -3006.280000 821.942000 1 1.000000 1 -3.000000
15 2 598.748000 -3010.880000 828.940000 1 1.000000 1 -3.000000
16 2 592.617000 -3016.860000 834.081000 1 1.000000 1 -3.000000
17 2 586.302000 -3023.090000 838.571000 1 1.000000 1 -3.000000
18 2 577.841000 -3023.270000 843.648000 1 1.000000 1 -3.000000
19 2 571.270000 -3022.550000 850.929000 1 1.000000 1 -3.000000
20 2 564.185000 -3022.120000 857.810000 1 1.000000 1 -3.000000
21 2 555.667000 -3018.760000 861.642000 1 1.000000 2 -3.000000
22 1 561.206000 -2974.460000 876.864000 1 1.000000 2 0.000000
23 3 583.071000 -2976.270000 849.609000 1 1.000000 2 0.000000
24 2 578.727000 -2930.730000 873.801000 1 1.000000 2 -3.000000
25 2 582.293000 -2933.550000 864.840000 1 1.000000 1 -3.000000
26 2 585.678000 -2935.980000 855.902000 1 1.000000 1 -3.000000
27 2 589.680000 -2938.880000 847.451000 1 1.000000 1 -3.000000
28 2 591.534000 -2941.350000 838.109000 1 1.000000 1 -3.000000
29 2 591.391000 -2939.900000 828.333000 1 1.000000 1 -3.000000
30 2 589.926000 -2936.710000 819.212000 1 1.000000 1 -3.000000
31 2 590.120000 -2934.700000 809.625000 1 1.000000 1 -3.000000
32 2 588.543000 -2928.730000 801.995000 1 1.000000 1 -3.000000
33 2 585.253000 -2924.560000 793.579000 1 1.000000 1 -3.000000
34 2 582.758000 -2923.160000 784.012000 1 1.000000 1 -3.000000
35 2 580.103000 -2922.100000 774.532000 1 1.000000 1 -3.000000
36 2 576.594000 -2921.530000 765.340000 1 1.000000 1 -3.000000
37 2 572.989000 -2922.270000 756.165000 1 1.000000 1 -3.000000
38 2 571.560000 -2921.820000 746.385000 1 1.000000 1 -3.000000
39 2 575.152000 -2923.210000 737.207000 1 1.000000 1 -3.000000
40 2 578.618000 -2924.680000 728.029000 1 1.000000 1 -3.000000
41 2 578.792000 -2927.330000 718.534000 1 1.000000 1 -3.000000
42 2 578.242000 -2931.400000 709.444000 1 1.000000 1 -3.000000
43 2 575.129000 -2936.340000 701.499000 1 1.000000 1 -3.000000
44 2 571.999000 -2941.940000 694.046000 1 1.000000 1 -3.000000
45 2 567.307000 -2945.470000 686.188000 1 1.000000 1 -3.000000
46 2 561.345000 -2949.500000 679.435000 1 1.000000 1 -3.000000
47 2 555.158000 -2954.800000 673.888000 1 1.000000 1 -3.000000
48 2 547.953000 -2957.990000 667.948000 1 1.000000 3 -3.000000
49 1 509.283000 -2943.140000 690.555000 1 1.000000 3 0.000000
50 3 535.007000 -2924.750000 705.560000 1 1.000000 3 0.000000
51 2 486.971000 -2919.500000 724.745000 1 1.000000 3 -3.000000
52 2 494.307000 -2912.920000 725.133000 1 1.000000 1 -3.000000
53 2 502.846000 -2908.170000 724.003000 1 1.000000 1 -3.000000
54 2 509.290000 -2901.050000 721.398000 1 1.000000 1 -3.000000
55 2 510.793000 -2891.370000 720.219000 1 1.000000 1 -3.000000
56 2 509.971000 -2882.030000 716.709000 1 1.000000 1 -3.000000
57 2 509.879000 -2872.320000 714.762000 1 1.000000 1 -3.000000
58 2 509.701000 -2862.590000 712.523000 1 1.000000 1 -3.000000
59 2 511.645000 -2853.440000 709.329000 1 1.000000 1 -3.000000
60 2 510.776000 -2844.170000 706.161000 1 1.000000 1 -3.000000
61 2 505.799000 -2836.790000 701.869000 1 1.000000 1 -3.000000
62 2 499.686000 -2830.390000 697.273000 1 1.000000 1 -3.000000
63 2 492.583000 -2824.850000 693.179000 1 1.000000 1 -3.000000
64 2 486.866000 -2820.830000 686.206000 1 1.000000 1 -3.000000
65 2 480.317000 -2817.150000 679.501000 1 1.000000 1 -3.000000
66 2 471.822000 -2815.030000 675.101000 1 1.000000 1 -3.000000
67 2 463.937000 -2811.630000 670.086000 1 1.000000 1 -3.000000
68 2 456.276000 -2810.370000 663.990000 1 1.000000 1 -3.000000
69 2 449.000000 -2806.130000 658.903000 1 1.000000 1 -3.000000
70 2 441.552000 -2800.180000 656.150000 1 1.000000 1 -3.000000
71 2 433.155000 -2794.910000 655.852000 1 1.000000 1 -3.000000
72 2 426.152000 -2788.090000 657.815000 1 1.000000 1 -3.000000
73 2 419.374000 -2781.470000 661.081000 1 1.000000 1 -3.000000
74 2 413.857000 -2773.320000 662.867000 1 1.000000 1 -3.000000
75 2 407.305000 -2765.990000 662.894000 1 1.000000 4 -3.000000
76 1 439.173000 -2732.500000 672.083000 1 1.000000 4 0.000000
77 3 457.500000 -2756.580000 654.591000 1 1.000000 4 0.000000
78 2 482.475000 -2713.840000 670.180000 1 1.000000 4 -3.000000
79 2 484.387000 -2719.580000 662.402000 1 1.000000 1 -3.000000
80 2 485.222000 -2726.270000 655.070000 1 1.000000 1 -3.000000
81 2 491.294000 -2729.370000 647.926000 1 1.000000 1 -3.000000
82 2 496.216000 -2731.170000 639.356000 1 1.000000 1 -3.000000
83 2 501.297000 -2733.030000 631.031000 1 1.000000 1 -3.000000
84 2 506.993000 -2735.860000 623.338000 1 1.000000 1 -3.000000
85 2 510.909000 -2740.580000 615.657000 1 1.000000 1 -3.000000
86 2 514.969000 -2747.440000 609.895000 1 1.000000 1 -3.000000
87 2 517.204000 -2753.150000 602.006000 1 1.000000 1 -3.000000
88 2 515.994000 -2759.440000 594.628000 1 1.000000 1 -3.000000
89 2 514.334000 -2766.620000 588.107000 1 1.000000 1 -3.000000
90 2 511.285000 -2774.210000 582.375000 1 1.000000 1 -3.000000
91 2 508.201000 -2778.690000 574.230000 1 1.000000 1 -3.000000
92 2 504.602000 -2782.460000 565.848000 1 1.000000 1 -3.000000
93 2 502.523000 -2787.360000 557.463000 1 1.000000 1 -3.000000
94 2 499.978000 -2795.350000 552.135000 1 1.000000 1 -3.000000
95 2 495.628000 -2803.060000 547.890000 1 1.000000 1 -3.000000
96 2 490.405000 -2810.820000 544.744000 1 1.000000 1 -3.000000
97 2 483.484000 -2816.410000 540.527000 1 1.000000 1 -3.000000
98 2 475.859000 -2822.170000 537.726000 1 1.000000 1 -3.000000
99 2 469.410000 -2827.800000 532.724000 1 1.000000 1 -3.000000
100 2 462.986000 -2832.560000 526.800000 1 1.000000 1 -3.000000
101 2 457.135000 -2835.500000 519.355000 1 1.000000 1 -3.000000
102 2 452.753000 -2838.440000 511.015000 1 1.000000 5 -3.000000
103 1 419.722000 -2804.940000 514.826000 1 1.000000 5 0.000000
104 3 447.528000 -2790.740000 530.636000 1 1.000000 5 0.000000
105 2 402.630000 -2764.400000 531.868000 1 1.000000 5 -3.000000
106 2 411.309000 -2760.800000 534.658000 1 1.000000 1 -3.000000
107 2 421.028000 -2759.660000 535.834000 1 1.000000 1 -3.000000
108 2 429.972000 -2755.920000 533.184000 1 1.000000 1 -3.000000
109 2 436.958000 -2752.500000 527.068000 1 1.000000 1 -3.000000
110 2 442.214000 -2747.360000 520.487000 1 1.000000 1 -3.000000
111 2 447.643000 -2743.750000 512.961000 1 1.000000 1 -3.000000
112 2 452.750000 -2738.770000 506.141000 1 1.000000 1 -3.000000
113 2 455.308000 -2730.840000 500.802000 1 1.000000 1 -3.000000
114 2 457.143000 -2724.490000 493.355000 1 1.000000 1 -3.000000
115 2 456.774000 -2716.690000 487.347000 1 1.000000 1 -3.000000
116 2 458.617000 -2707.830000 483.509000 1 1.000000 1 -3.000000
117 2 456.450000 -2698.990000 479.589000 1 1.000000 1 -3.000000
118 2 452.117000 -2690.400000 477.625000 1 1.000000 1 -3.000000
119 2 448.692000 -2682.100000 473.455000 1 1.000000 1 -3.000000
120 2 445.768000 -2673.060000 470.650000 1 1.000000 1 -3.000000
121 2 443.501000 -2663.820000 467.668000 1 1.000000 1 -3.000000
122 2 448.386000 -2655.180000 468.328000 1 1.000000 1 -3.000000
123 2 452.198000 -2646.000000 468.269000 1 1.000000 1 -3.000000
124 2 455.544000 -2636.790000 469.364000 1 1.000000 1 -3.000000
125 2 457.596000 -2627.550000 471.880000 1 1.000000 1 -3.000000
126 2 457.650000 -2617.920000 474.416000 1 1.000000 1 -3.000000
127 2 457.470000 -2608.520000 477.572000 1 1.000000 1 -3.000000
128 2 461.549000 -2600.280000 481.354000 1 1.000000 1 -3.000000
129 2 465.491000 -2592.090000 485.428000 1 1.000000 6 -3.000000
130 1 498.322000 -2604.730000 453.900000 1 1.000000 6 0.000000
131 3 488.291000 -2635.180000 467.962000 1 1.000000 6 0.000000
132 2 522.830000 -2636.460000 429.033000 1 1.000000 6 -3.000000
133 2 516.327000 -2643.890000 428.399000 1 1.000000 1 -3.000000
134 2 508.657000 -2650.290000 428.728000 1 1.000000 1 -3.000000
135 2 501.051000 -2656.440000 430.156000 1 1.000000 1 -3.000000
136 2 494.939000 -2663.730000 432.949000 1 1.000000 1 -3.000000
137 2 487.098000 -2668.220000 436.790000 1 1.000000 1 -3.000000
138 2 479.581000 -2674.680000 437.543000 1 1.000000 1 -3.000000
139 2 474.288000 -2683.100000 437.343000 1 1.000000 1 -3.000000
140 2 470.308000 -2692.140000 437.975000 1 1.000000 1 -3.000000
141 2 466.390000 -2701.190000 438.335000 1 1.000000 1 -3.000000
142 2 465.678000 -2710.830000 440.566000 1 1.000000 1 -3.000000
143 2 466.080000 -2720.660000 441.094000 1 1.000000 1 -3.000000
144 2 465.277000 -2730.420000 442.281000 1 1.000000 1 -3.000000
145 2 465.173000 -2740.160000 444.229000 1 1.000000 1 -3.000000
146 2 465.357000 -2749.400000 448.233000 1 1.000000 1 -3.000000
147 2 466.513000 -2757.610000 453.760000 1 1.000000 1 -3.000000
148 2 470.271000 -2765.130000 459.084000 1 1.000000 1 -3.000000
149 2 473.382000 -2771.250000 466.187000 1 1.000000 1 -3.000000
150 2 474.934000 -2780.550000 469.334000 1 1.000000 1 -3.000000
151 2 478.416000 -2789.410000 472.606000 1 1.000000 1 -3.000000
152 2 480.649000 -2797.820000 477.514000 1 1.000000 1 -3.000000
153 2 481.025000 -2807.120000 481.059000 1 1.000000 1 -3.000000
154 2 481.686000 -2815.780000 485.782000 1 1.000000 1 -3.000000
155 2 477.767000 -2824.260000 488.608000 1 1.000000 1 -3.000000
156 2 474.434000 -2832.530000 492.928000 1 1.000000 7 -3.000000
157 1 467.987000 -2847.980000 448.758000 1 1.000000 7 0.000000
158 3 489.611000 -2820.950000 444.692000 1 1.000000 7 0.000000
159 2 476.867000 -2848.090000 402.380000 1 1.000000 7 -3.000000
160 2 484.739000 -2842.790000 399.213000 1 1.000000 1 -3.000000
161 2 491.688000 -2835.950000 397.608000 1 1.000000 1 -3.000000
162 2 498.516000 -2829.220000 400.255000 1 1.000000 1 -3.000000
163 2 503.532000 -2821.400000 403.867000 1 1.000000 1 -3.000000
164 2 511.373000 -2816.010000 407.147000 1 1.000000 1 -3.000000
165 2 518.224000 -2809.020000 407.857000 1 1.000000 1 -3.000000
166 2 526.416000 -2804.520000 411.390000 1 1.000000 1 -3.000000
167 2 534.943000 -2799.890000 412.400000 1 1.000000 1 -3.000000
168 2 543.745000 -2796.230000 414.936000 1 1.000000 1 -3.000000
169 2 551.464000 -2791.140000 418.469000 1 1.000000 1 -3.000000
170 2 559.138000 -2784.970000 419.885000 1 1.000000 1 -3.000000
171 2 566.584000 -2778.520000 420.241000 1 1.000000 1 -3.000000
172 2 573.099000 -2771.570000 417.658000 1 1.000000 1 -3.000000
173 2 580.355000 -2765.330000 415.059000 1 1.000000 1 -3.000000
174 2 586.728000 -2758.670000 411.389000 1 1.000000 1 -3.000000
175 2 590.957000 -2751.780000 405.658000 1 1.000000 1 -3.000000
176 2 591.650000 -2743.810000 399.598000 1 1.000000 1 -3.000000
177 2 590.381000 -2739.120000 391.105000 1 1.000000 1 -3.000000
178 2 588.983000 -2734.880000 382.369000 1 1.000000 1 -3.000000
179 2 588.194000 -2731.530000 373.034000 1 1.000000 1 -3.000000
180 2 586.964000 -2731.760000 363.163000 1 1.000000 1 -3.000000
181 2 587.044000 -2732.150000 353.166000 1 1.000000 1 -3.000000
182 2 590.892000 -2732.950000 343.969000 1 1.000000 1 -3.000000
183 2 591.885000 -2732.710000 334.141000 1 1.000000 8 -3.000000
184 1 595.255000 -2685.880000 329.359000 1 1.000000 8 0.000000
185 3 600.525000 -2690.940000 363.630000 1 1.000000 8 0.000000
186 2 600.446000 -2642.040000 345.991000 1 1.000000 8 -3.000000
187 2 602.275000 -2643.060000 355.699000 1 1.000000 1 -3.000000
188 2 602.703000 -2645.100000 365.384000 1 1.000000 1 -3.000000
189 2 604.444000 -2649.170000 374.315000 1 1.000000 1 -3.000000
190 2 605.060000 -2652.340000 383.787000 1 1.000000 1 -3.000000
191 2 608.169000 -2651.150000 393.034000 1 1.000000 1 -3.000000
192 2 612.991000 -2653.170000 401.428000 1 1.000000 1 -3.000000
193 2 618.359000 -2656.940000 408.755000 1 1.000000 1 -3.000000
194 2 621.884000 -2659.470000 417.680000 1 1.000000 1 -3.000000
195 2 623.473000 -2662.940000 426.880000 1 1.000000 1 -3.000000
196 2 628.728000 -2667.890000 433.689000 1 1.000000 1 -3.000000
197 2 635.162000 -2666.870000 441.114000 1 1.000000 1 -3.000000
198 2 643.428000 -2665.910000 446.531000 1 1.000000 1 -3.000000
199 2 649.691000 -2665.970000 454.069000 1 1.000000 1 -3.000000
200 2 655.118000 -2665.920000 462.334000 1 1.000000 1 -3.000000
201 2 662.525000 -2668.120000 468.496000 1 1.000000 1 -3.000000
202 2 670.067000 -2671.170000 474.135000 1 1.000000 1 -3.000000
203 2 677.686000 -2673.640000 479.977000 1 1.000000 1 -3.000000
204 2 685.334000 -2677.920000 484.627000 1 1.000000 1 -3.000000
205 2 695.009000 -2679.420000 485.812000 1 1.000000 1 -3.000000
206 2 703.385000 -2684.750000 485.309000 1 1.000000 1 -3.000000
207 2 709.162000 -2692.640000 484.157000 1 1.000000 1 -3.000000
208 2 714.467000 -2699.820000 480.017000 1 1.000000 1 -3.000000
209 2 719.617000 -2707.330000 476.049000 1 1.000000 1 -3.000000
210 2 725.402000 -2715.130000 474.387000 1 1.000000 9 -3.000000
211 1 709.059000 -2744.140000 507.868000 1 1.000000 9 0.000000
212 3 682.506000 -2721.850000 502.746000 1 1.000000 9 0.000000
213 2 676.658000 -2758.480000 539.027000 1 1.000000 9 -3.000000
214 2 673.812000 -2752.170000 531.916000 1 1.000000 1 -3.000000
215 2 670.703000 -2744.850000 526.218000 1 1.000000 1 -3.000000
216 2 666.667000 -2740.230000 518.360000 1 1.000000 1 -3.000000
217 2 660.687000 -2736.250000 511.689000 1 1.000000 1 -3.000000
218 2 654.638000 -2731.380000 505.391000 1 1.000000 1 -3.000000
219 2 650.430000 -2726.570000 497.868000 1 1.000000 1 -3.000000
220 2 648.131000 -2718.270000 492.901000 1 1.000000 1 -3.000000
221 2 645.252000 -2710.400000 487.727000 1 1.000000 1 -3.000000
222 2 640.275000 -2702.220000 485.529000 1 1.000000 1 -3.000000
223 2 634.026000 -2694.730000 484.280000 1 1.000000 1 -3.000000
224 2 628.003000 -2686.800000 484.216000 1 1.000000 1 -3.000000
225 2 622.465000 -2678.750000 484.578000 1 1.000000 1 -3.000000
226 2 617.216000 -2670.350000 485.713000 1 1.000000 1 -3.000000
227 2 610.131000 -2663.990000 488.446000 1 1.000000 1 -3.000000
228 2 601.910000 -2660.370000 492.575000 1 1.000000 1 -3.000000
229 2 595.435000 -2654.920000 497.714000 1 1.000000 1 -3.000000
230 2 588.156000 -2651.360000 503.311000 1 1.000000 1 -3.000000
231 2 584.472000 -2648.850000 511.991000 1 1.000000 1 -3.000000
232 2 580.756000 -2647.290000 521.097000 1 1.000000 1 -3.000000
233 2 574.513000 -2644.600000 528.452000 1 1.000000 1 -3.000000
234 2 568.511000 -2642.810000 536.197000 1 1.000000 1 -3.000000
235 2 565.174000 -2639.650000 544.999000 1 1.000000 1 -3.000000
236 2 560.918000 -2637.100000 553.638000 1 1.000000 1 -3.000000
237 2 553.927000 -2632.670000 559.128000 1 1.000000 10 -3.000000
238 1 574.454000 -2590.290000 562.184000 1 1.000000 10 0.000000
239 3 587.494000 -2603.390000 532.474000 1 1.000000 10 0.000000
240 2 606.562000 -2558.200000 549.271000 1 1.000000 10 -3.000000
241 2 611.622000 -2559.690000 540.795000 1 1.000000 1 -3.000000
242 2 614.019000 -2560.790000 531.219000 1 1.000000 1 -3.000000
243 2 612.351000 -2564.840000 522.216000 1 1.000000 1 -3.000000
244 2 609.226000 -2569.050000 513.733000 1 1.000000 1 -3.000000
245 2 606.223000 -2569.750000 504.363000 1 1.000000 1 -3.000000
246 2 602.088000 -2570.460000 495.445000 1 1.000000 1 -3.000000
247 2 596.742000 -2573.640000 487.686000 1 1.000000 1 -3.000000
248 2 592.199000 -2573.730000 478.886000 1 1.000000 1 -3.000000
249 2 588.453000 -2574.340000 469.744000 1 1.000000 1 -3.000000
250 2 581.776000 -2571.840000 462.703000 1 1.000000 1 -3.000000
251 2 574.509000 -2569.030000 456.769000 1 1.000000 1 -3.000000
252 2 566.983000 -2563.550000 453.258000 1 1.000000 1 -3.000000
253 2 559.616000 -2557.120000 452.291000 1 1.000000 1 -3.000000
254 2 550.855000 -2552.690000 451.371000 1 1.000000 1 -3.000000
255 2 542.811000 -2548.120000 447.787000 1 1.000000 1 -3.000000
256 2 536.016000 -2542.160000 443.844000 1 1.000000 1 -3.000000
257 2 529.873000 -2538.600000 437.008000 1 1.000000 1 -3.000000
258 2 521.945000 -2538.780000 431.034000 1 1.000000 1 -3.000000
259 2 515.169000 -2537.070000 424.067000 1 1.000000 1 -3.000000
260 2 507.046000 -2537.240000 418.547000 1 1.000000 1 -3.000000
261 2 498.968000 -2538.600000 412.959000 1 1.000000 1 -3.000000
262 2 490.642000 -2541.380000 408.627000 1 1.000000 1 -3.000000
263 2 481.983000 -2545.010000 405.417000 1 1.000000 1 -3.000000
264 2 472.767000 -2546.270000 401.903000 1 1.000000 11 -3.000000
265 1 493.635000 -2513.440000 375.165000 1 1.000000 11 0.000000
266 3 506.813000 -2507.210000 406.933000 1 1.000000 11 0.000000
267 2 523.284000 -2477.520000 367.794000 1 1.000000 11 -3.000000
268 2 527.604000 -2478.670000 376.604000 1 1.000000 1 -3.000000
269 2 531.155000 -2474.060000 384.849000 1 1.000000 1 -3.000000
270 2 535.861000 -2468.940000 391.900000 1 1.000000 1 -3.000000
271 2 539.173000 -2466.080000 400.599000 1 1.000000 1 -3.000000
272 2 542.730000 -2465.200000 409.886000 1 1.000000 1 -3.000000
273 2 549.652000 -2465.260000 416.913000 1 1.000000 1 -3.000000
274 2 555.232000 -2466.820000 424.939000 1 1.000000 1 -3.000000
275 2 563.647000 -2466.130000 430.397000 1 1.000000 1 -3.000000
276 2 571.684000 -2466.450000 435.921000 1 1.000000 1 -3.000000
277 2 576.017000 -2467.450000 444.790000 1 1.000000 1 -3.000000
278 2 581.117000 -2468.650000 453.189000 1 1.000000 1 -3.000000
279 2 584.392000 -2470.360000 462.341000 1 1.000000 1 -3.000000
280 2 586.129000 -2472.500000 471.837000 1 1.000000 1 -3.000000
281 2 585.877000 -2476.210000 481.061000 1 1.000000 1 -3.000000
282 2 582.992000 -2477.600000 490.561000 1 1.000000 1 -3.000000
283 2 582.117000 -2480.920000 499.926000 1 1.000000 1 -3.000000
284 2 582.104000 -2485.700000 508.528000 1 1.000000 1 -3.000000
285 2 579.118000 -2491.660000 515.826000 1 1.000000 1 -3.000000
286 2 575.914000 -2497.050000 523.443000 1 1.000000 1 -3.000000
287 2 573.406000 -2500.960000 532.230000 1 1.000000 1 -3.000000
288 2 572.854000 -2503.890000 541.680000 1 1.000000 1 -3.000000
289 2 570.924000 -2506.700000 550.870000 1 1.000000 1 -3.000000
290 2 566.449000 -2511.490000 558.055000 1 1.000000 1 -3.000000
291 2 563.481000 -2516.640000 566.073000 1 1.000000 12 -3.000000
292 1 590.362000 -2484.720000 588.026000 1 1.000000 12 0.000000
293 3 580.180000 -2468.040000 559.043000 1 1.000000 12 0.000000
294 2 610.744000 -2442.330000 592.187000 1 1.000000 12 -3.000000
295 2 612.216000 -2437.730000 583.547000 1 1.000000 1 -3.000000
296 2 612.100000 -2432.730000 575.067000 1 1.000000 1 -3.000000
297 2 609.798000 -2425.710000 568.625000 1 1.000000 1 -3.000000
298 2 606.928000 -2419.960000 561.168000 1 1.000000 1 -3.000000
299 2 602.950000 -2414.760000 553.707000 1 1.000000 1 -3.000000
300 2 600.767000 -2409.010000 545.922000 1 1.000000 1 -3.000000
301 2 600.575000 -2401.950000 539.045000 1 1.000000 1 -3.000000
302 2 601.391000 -2395.000000 531.946000 1 1.000000 1 -3.000000
303 2 601.449000 -2389.440000 523.815000 1 1.000000 1 -3.000000
304 2 603.831000 -2383.720000 516.000000 1 1.000000 1 -3.000000
305 2 604.125000 -2379.190000 507.333000 1 1.000000 1 -3.000000
306 2 605.267000 -2372.730000 499.947000 1 1.000000 1 -3.000000
307 2 606.394000 -2368.350000 491.191000 1 1.000000 1 -3.000000
308 2 604.976000 -2362.120000 483.610000 1 1.000000 1 -3.000000
309 2 600.814000 -2356.230000 476.763000 1 1.000000 1 -3.000000
310 2 594.095000 -2351.120000 471.594000 1 1.000000 1 -3.000000
311 2 588.040000 -2345.610000 466.025000 1 1.000000 1 -3.000000
312 2 582.591000 -2338.240000 462.474000 1 1.000000 1 -3.000000
313 2 575.144000 -2331.940000 461.484000 1 1.000000 1 -3.000000
314 2 567.619000 -2326.210000 458.489000 1 1.000000 1 -3.000000
315 2 559.938000 -2320.690000 455.633000 1 1.000000 1 -3.000000
316 2 550.945000 -2316.500000 454.597000 1 1.000000 1 -3.000000
317 2 543.594000 -2310.580000 457.455000 1 1.000000 1 -3.000000
318 2 534.485000 -2308.160000 460.097000 1 1.000000 13 -3.000000
319 1 549.941000 -2272.950000 487.472000 1 1.000000 13 0.000000
320 3 577.834000 -2294.040000 485.382000 1 1.000000 13 0.000000
321 2 581.521000 -2252.170000 515.610000 1 1.000000 13 -3.000000
322 2 590.808000 -2255.430000 514.769000 1 1.000000 1 -3.000000
323 2 599.639000 -2258.530000 511.507000 1 1.000000 1 -3.000000
324 2 608.665000 -2262.510000 510.269000 1 1.000000 1 -3.000000
325 2 615.582000 -2269.380000 508.051000 1 1.000000 1 -3.000000
326 2 622.912000 -2275.760000 505.615000 1 1.000000 1 -3.000000
327 2 631.254000 -2280.680000 503.162000 1 1.000000 1 -3.000000
328 2 637.750000 -2287.700000 505.732000 1 1.000000 1 -3.000000
329 2 643.521000 -2295.640000 507.230000 1 1.000000 1 -3.000000
330 2 650.546000 -2302.390000 509.485000 1 1.000000 1 -3.000000
331 2 659.090000 -2306.590000 512.075000 1 1.000000 1 -3.000000
332 2 666.739000 -2312.990000 512.369000 1 1.000000 1 -3.000000
333 2 674.600000 -2318.560000 514.640000 1 1.000000 1 -3.000000
334 2 681.143000 -2326.020000 515.373000 1 1.000000 1 -3.000000
335 2 687.013000 -2333.890000 516.312000 1 1.000000 1 -3.000000
336 2 691.979000 -2342.520000 516.218000 1 1.000000 1 -3.000000
337 2 696.699000 -2351.340000 515.778000 1 1.000000 1 -3.000000
338 2 700.090000 -2360.580000 515.662000 1 1.000000 1 -3.000000
339 2 701.601000 -2370.290000 516.190000 1 1.000000 1 -3.000000
340 2 702.388000 -2379.760000 519.438000 1 1.000000 1 -3.000000
341 2 706.830000 -2387.410000 523.903000 1 1.000000 1 -3.000000
342 2 709.143000 -2396.700000 526.464000 1 1.000000 1 -3.000000
343 2 708.464000 -2405.700000 530.566000 1 1.000000 1 -3.000000
344 2 710.269000 -2415.020000 533.288000 1 1.000000 1 -3.000000
345 2 712.882000 -2423.040000 538.529000 1 1.000000 14 -3.000000
346 1 672.344000 -2440.970000 522.350000 1 1.000000 14 0.000000
347 3 679.154000 -2414.970000 500.004000 1 1.000000 14 0.000000
348 2 637.735000 -2444.880000 490.545000 1 1.000000 14 -3.000000
349 2 640.642000 -2439.200000 483.111000 1 1.000000 1 -3.000000
350 2 644.224000 -2434.190000 475.318000 1 1.000000 1 -3.000000
351 2 646.987000 -2427.480000 468.838000 1 1.000000 1 -3.000000
352 2 650.528000 -2420.060000 463.390000 1 1.000000 1 -3.000000
353 2 654.479000 -2414.820000 456.067000 1 1.000000 1 -3.000000
354 2 654.573000 -2408.870000 448.080000 1 1.000000 1 -3.000000
355 2 654.904000 -2400.860000 442.389000 1 1.000000 1 -3.000000
356 2 654.554000 -2393.880000 435.398000 1 1.000000 1 -3.000000
357 2 654.693000 -2386.950000 428.238000 1 1.000000 1 -3.000000
358 2 654.198000 -2379.240000 422.096000 1 1.000000 1 -3.000000
359 2 656.942000 -2371.990000 416.027000 1 1.000000 1 -3.000000
360 2 658.446000 -2364.330000 409.645000 1 1.000000 1 -3.000000
361 2 664.396000 -2359.320000 403.516000 1 1.000000 1 -3.000000
362 2 669.151000 -2355.080000 395.924000 1 1.000000 1 -3.000000
363 2 669.688000 -2351.960000 386.479000 1 1.000000 1 -3.000000
364 2 666.586000 -2351.100000 377.072000 1 1.000000 1 -3.000000
365 2 665.067000 -2350.890000 367.287000 1 1.000000 1 -3.000000
366 2 664.434000 -2350.900000 357.524000 1 1.000000 1 -3.000000
367 2 661.715000 -2349.710000 348.152000 1 1.000000 1 -3.000000
368 2 659.962000 -2349.930000 338.418000 1 1.000000 1 -3.000000
369 2 658.329000 -2349.110000 328.686000 1 1.000000 1 -3.000000
370 2 657.206000 -2352.250000 319.294000 1 1.000000 1 -3.000000
371 2 658.187000 -2359.980000 313.255000 1 1.000000 1 -3.000000
372 2 658.909000 -2365.830000 305.356000 1 1.000000 15 -3.000000
373 1 679.837000 -2328.670000 285.154000 1 1.000000 15 0.000000
374 3 668.470000 -2315.780000 315.675000 1 1.000000 15 0.000000
375 2 695.324000 -2284.070000 284.569000 1 1.000000 15 -3.000000
376 2 694.677000 -2284.530000 294.484000 1 1.000000 1 -3.000000
377 2 695.726000 -2285.320000 304.406000 1 1.000000 1 -3.000000
378 2 701.708000 -2285.910000 312.327000 1 1.000000 1 -3.000000
379 2 705.577000 -2283.000000 320.887000 1 1.000000 1 -3.000000
380 2 705.936000 -2278.070000 329.431000 1 1.000000 1 -3.000000
381 2 706.703000 -2273.520000 338.337000 1 1.000000 1 -3.000000
382 2 709.172000 -2270.650000 347.550000 1 1.000000 1 -3.000000
383 2 710.816000 -2267.200000 356.618000 1 1.000000 1 -3.000000
384 2 711.823000 -2260.550000 363.843000 1 1.000000 1 -3.000000
385 2 710.959000 -2254.460000 371.580000 1 1.000000 1 -3.000000
386 2 710.842000 -2249.320000 379.951000 1 1.000000 1 -3.000000
387 2 711.612000 -2243.110000 387.563000 1 1.000000 1 -3.000000
388 2 711.289000 -2234.900000 393.123000 1 1.000000 1 -3.000000
389 2 706.728000 -2227.870000 398.258000 1 1.000000 1 -3.000000
390 2 702.921000 -2220.400000 403.443000 1 1.000000 1 -3.000000
391 2 700.651000 -2214.380000 411.047000 1 1.000000 1 -3.000000
392 2 699.691000 -2205.000000 414.047000 1 1.000000 1 -3.000000
393 2 698.994000 -2195.320000 416.047000 1 1.000000 1 -3.000000
394 2 695.776000 -2185.840000 416.040000 1 1.000000 1 -3.000000
395 2 695.717000 -2176.050000 414.622000 1 1.000000 1 -3.000000
396 2 692.074000 -2167.290000 417.345000 1 1.000000 1 -3.000000
397 2 686.275000 -2159.420000 419.186000 1 1.000000 1 -3.000000
398 2 681.401000 -2150.810000 420.053000 1 1.000000 1 -3.000000
399 2 683.651000 -2141.270000 418.892000 1 1.000000 16 -3.000000
400 1 665.768000 -2140.200000 375.210000 1 1.000000 16 0.000000
401 3 643.226000 -2160.610000 392.370000 1 1.000000 16 0.000000
402 2 635.975000 -2154.110000 341.468000 1 1.000000 16 -3.000000
403 2 628.209000 -2154.110000 347.547000 1 1.000000 1 -3.000000
404 2 619.967000 -2157.730000 351.755000 1 1.000000 1 -3.000000
405 2 611.380000 -2158.090000 356.488000 1 1.000000 1 -3.000000
406 2 603.134000 -2160.670000 361.492000 1 1.000000 1 -3.000000
407 2 596.099000 -2164.790000 366.959000 1 1.000000 1 -3.000000
408 2 589.076000 -2171.200000 370.029000 1 1.000000 1 -3.000000
409 2 581.327000 -2176.220000 373.589000 1 1.000000 1 -3.000000
410 2 573.087000 -2180.900000 376.055000 1 1.000000 1 -3.000000
411 2 564.424000 -2185.130000 378.163000 1 1.000000 1 -3.000000
412 2 555.579000 -2189.250000 379.285000 1 1.000000 1 -3.000000
413 2 546.777000 -2194.010000 378.627000 1 1.000000 1 -3.000000
414 2 538.781000 -2199.790000 379.200000 1 1.000000 1 -3.000000
415 2 532.042000 -2206.590000 376.909000 1 1.000000 1 -3.000000
416 2 525.049000 -2213.390000 375.193000 1 1.000000 1 -3.000000
417 2 517.942000 -2220.280000 373.791000 1 1.000000 1 -3.000000
418 2 510.975000 -2224.760000 368.344000 1 1.000000 1 -3.000000
419 2 502.458000 -2227.980000 364.258000 1 1.000000 1 -3.000000
420 2 496.541000 -2229.510000 356.507000 1 1.000000 1 -3.000000
421 2 490.242000 -2230.540000 348.813000 1 1.000000 1 -3.000000
422 2 482.103000 -2232.030000 343.405000 1 1.000000 1 -3.000000
423 2 474.176000 -2238.070000 343.956000 1 1.000000 1 -3.000000
424 2 466.749000 -2244.400000 345.900000 1 1.000000 1 -3.000000
425 2 459.788000 -2251.320000 345.469000 1 1.000000 1 -3.000000
426 2 451.021000 -2255.110000 343.162000 1 1.000000 17 -3.000000
427 1 428.797000 -2239.890000 381.854000 1 1.000000 17 0.000000
428 3 456.789000 -2218.880000 380.011000 1 1.000000 17 0.000000
429 2 423.168000 -2211.100000 418.755000 1 1.000000 17 -3.000000
430 2 430.068000 -2204.280000 416.715000 1 1.000000 1 -3.000000
431 2 435.818000 -2196.500000 413.842000 1 1.000000 1 -3.000000
432 2 440.898000 -2189.390000 409.028000 1 1.000000 1 -3.000000
433 2 444.812000 -2182.530000 403.236000 1 1.000000 1 -3.000000
434 2 448.912000 -2175.410000 397.861000 1 1.000000 1 -3.000000
435 2 449.580000 -2169.230000 390.102000 1 1.000000 1 -3.000000
436 2 446.984000 -2169.110000 380.597000 1 1.000000 1 -3.000000
437 2 447.886000 -2166.740000 370.981000 1 1.000000 1 -3.000000
438 2 448.666000 -2163.390000 361.790000 1 1.000000 1 -3.000000
439 2 450.079000 -2160.970000 352.373000 1 1.000000 1 -3.000000
440 2 453.684000 -2158.240000 343.457000 1 1.000000 1 -3.000000
441 2 458.499000 -2153.580000 336.034000 1 1.000000 1 -3.000000
442 2 460.871000 -2148.550000 327.834000 1 1.000000 1 -3.000000
443 2 462.648000 -2143.670000 319.498000 1 1.000000 1 -3.000000
444 2 462.978000 -2138.090000 311.276000 1 1.000000 1 -3.000000
445 2 462.552000 -2130.990000 304.448000 1 1.000000 1 -3.000000
446 2 462.877000 -2124.500000 296.987000 1 1.000000 1 -3.000000
447 2 467.111000 -2118.400000 290.380000 1 1.000000 1 -3.000000
448 2 471.549000 -2113.080000 283.298000 1 1.000000 1 -3.000000
449 2 476.647000 -2107.460000 277.098000 1 1.000000 1 -3.000000
450 2 481.144000 -2103.110000 269.492000 1 1.000000 1 -3.000000
451 2 487.370000 -2102.330000 261.924000 1 1.000000 1 -3.000000
452 2 495.439000 -2098.340000 257.446000 1 1.000000 1 -3.000000
453 2 501.417000 -2092.580000 252.156000 1 1.000000 18 -3.000000
454 1 537.452000 -2089.230000 282.396000 1 1.000000 18 0.000000
455 3 511.617000 -2102.490000 302.211000 1 1.000000 18 0.000000
456 2 558.732000 -2097.910000 323.681000 1 1.000000 18 -3.000000
457 2 550.022000 -2099.920000 327.931000 1 1.000000 1 -3.000000
458 2 542.795000 -2102.770000 333.924000 1 1.000000 1 -3.000000
459 2 535.166000 -2106.130000 339.344000 1 1.000000 1 -3.000000
460 2 529.326000 -2111.920000 344.714000 1 1.000000 1 -3.000000
461 2 524.164000 -2117.760000 351.033000 1 1.000000 1 -3.000000
462 2 517.348000 -2121.490000 357.189000 1 1.000000 1 -3.000000
463 2 511.177000 -2122.280000 364.846000 1 1.000000 1 -3.000000
464 2 506.029000 -2122.140000 373.307000 1 1.000000 1 -3.000000
465 2 499.776000 -2122.660000 380.887000 1 1.000000 1 -3.000000