LAMMPS data file

4067 atoms
4067 ellipsoids
4516 bonds
8882 angles
0 dihedrals

3 atom types
5 bond types
12 angle types
0 dihedral types

-4631.092947 4670.465898 xlo xhi
-4631.092947 4670.465898 ylo yhi
-4631.092947 4670.465898 zlo zhi

Masses

1 196016.000000
2 1950.000000
3 19500.000000

Atoms

1 2 743.506000 -3113.360000 462.600000 1 1.000000 1 -3.000000
2 2 738.608000 -3105.660000 458.830000 1 1.000000 1 -3.000000
3 2 734.420000 -3096.660000 458.108000 1 1.000000 1 -3.000000
4 2 730.971000 -3087.800000 460.741000 1 1.000000 1 -3.000000
5 2 727.391000 -3079.730000 465.294000 1 1.000000 1 -3.000000
6 2 726.235000 -3072.310000 471.602000 1 1.000000 1 -3.000000
7 2 724.936000 -3065.100000 478.068000 1 1.000000 1 -3.000000
8 2 726.309000 -3059.130000 485.897000 1 1.000000 1 -3.000000
9 2 729.485000 -3053.750000 493.429000 1 1.000000 1 -3.000000
10 2 733.723000 -3048.520000 500.722000 1 1.000000 1 -3.000000
11 2 738.726000 -3042.060000 506.346000 1 1.000000 1 -3.000000
12 2 741.545000 -3033.710000 510.673000 1 1.000000 1 -3.000000
13 2 742.201000 -3025.420000 515.925000 1 1.000000 1 -3.000000
14 2 746.256000 -3018.270000 521.276000 1 1.000000 1 -3.000000
15 2 751.526000 -3010.840000 525.306000 1 1.000000 1 -3.000000
16 2 756.121000 -3002.150000 526.523000 1 1.000000 1 -3.000000
17 2 759.745000 -2992.840000 526.441000 1 1.000000 1 -3.000000
18 2 766.629000 -2986.130000 528.444000 1 1.000000 1 -3.000000
19 2 773.876000 -2979.500000 529.832000 1 1.000000 1 -3.000000
20 2 779.811000 -2971.670000 530.681000 1 1.000000 1 -3.000000
21 2 786.739000 -2964.810000 531.727000 1 1.000000 2 -3.000000
22 1 815.887000 -2987.520000 502.301000 1 1.000000 2 0.000000
23 3 784.217000 -2993.550000 488.508000 1 1.000000 2 0.000000
24 2 825.393000 -3014.580000 464.886000 1 1.000000 2 -3.000000
25 2 816.818000 -3014.150000 460.319000 1 1.000000 1 -3.000000
26 2 808.730000 -3018.500000 456.373000 1 1.000000 1 -3.000000
27 2 799.494000 -3020.900000 453.979000 1 1.000000 1 -3.000000
28 2 790.297000 -3019.300000 450.677000 1 1.000000 1 -3.000000
29 2 781.908000 -3014.520000 448.627000 1 1.000000 1 -3.000000
30 2 773.817000 -3009.100000 447.482000 1 1.000000 1 -3.000000
31 2 766.252000 -3002.650000 447.619000 1 1.000000 1 -3.000000
32 2 759.402000 -2995.460000 448.804000 1 1.000000 1 -3.000000
33 2 751.764000 -2989.100000 448.547000 1 1.000000 1 -3.000000
34 2 742.732000 -2985.330000 449.698000 1 1.000000 1 -3.000000
35 2 734.363000 -2979.890000 449.903000 1 1.000000 1 -3.000000
36 2 727.159000 -2973.200000 449.359000 1 1.000000 1 -3.000000
37 2 719.252000 -2967.730000 451.616000 1 1.000000 1 -3.000000
38 2 710.620000 -2965.560000 455.777000 1 1.000000 1 -3.000000
39 2 702.062000 -2963.610000 460.341000 1 1.000000 1 -3.000000
40 2 693.015000 -2963.070000 464.514000 1 1.000000 1 -3.000000
41 2 684.583000 -2958.570000 467.480000 1 1.000000 1 -3.000000
42 2 675.129000 -2955.400000 468.376000 1 1.000000 1 -3.000000
43 2 666.855000 -2950.270000 466.780000 1 1.000000 1 -3.000000
44 2 659.275000 -2944.110000 465.043000 1 1.000000 1 -3.000000
45 2 653.756000 -2938.310000 459.224000 1 1.000000 1 -3.000000
46 2 648.382000 -2931.610000 454.408000 1 1.000000 1 -3.000000
47 2 646.630000 -2923.170000 449.472000 1 1.000000 1 -3.000000
48 2 643.997000 -2915.070000 444.712000 1 1.000000 3 -3.000000
49 1 651.324000 -2931.860000 401.241000 1 1.000000 3 0.000000
50 3 670.492000 -2953.130000 421.399000 1 1.000000 3 0.000000
51 2 669.554000 -2962.490000 370.317000 1 1.000000 3 -3.000000
52 2 672.121000 -2964.460000 379.751000 1 1.000000 1 -3.000000
53 2 675.214000 -2966.270000 388.922000 1 1.000000 1 -3.000000
54 2 680.933000 -2968.420000 396.748000 1 1.000000 1 -3.000000
55 2 687.577000 -2971.310000 403.457000 1 1.000000 1 -3.000000
56 2 695.373000 -2973.040000 409.482000 1 1.000000 1 -3.000000
57 2 704.878000 -2972.270000 412.032000 1 1.000000 1 -3.000000
58 2 714.673000 -2973.560000 412.420000 1 1.000000 1 -3.000000
59 2 724.377000 -2975.350000 412.099000 1 1.000000 1 -3.000000
60 2 733.956000 -2975.040000 409.997000 1 1.000000 1 -3.000000
61 2 740.814000 -2975.730000 402.885000 1 1.000000 1 -3.000000
62 2 747.390000 -2974.430000 395.679000 1 1.000000 1 -3.000000
63 2 753.570000 -2973.660000 387.890000 1 1.000000 1 -3.000000
64 2 760.566000 -2975.380000 381.009000 1 1.000000 1 -3.000000
65 2 768.888000 -2978.700000 376.687000 1 1.000000 1 -3.000000
66 2 776.111000 -2979.590000 369.943000 1 1.000000 1 -3.000000
67 2 784.107000 -2978.290000 364.461000 1 1.000000 1 -3.000000
68 2 788.814000 -2976.440000 355.916000 1 1.000000 1 -3.000000
69 2 792.629000 -2975.120000 346.871000 1 1.000000 1 -3.000000
70 2 794.721000 -2973.490000 337.257000 1 1.000000 1 -3.000000
71 2 798.077000 -2970.600000 328.397000 1 1.000000 1 -3.000000
72 2 803.662000 -2964.660000 322.747000 1 1.000000 1 -3.000000
73 2 810.337000 -2960.210000 317.051000 1 1.000000 1 -3.000000
74 2 815.008000 -2955.950000 309.491000 1 1.000000 1 -3.000000
75 2 820.370000 -2954.150000 301.417000 1 1.000000 4 -3.000000
76 1 823.615000 -2990.660000 271.704000 1 1.000000 4 0.000000
77 3 800.456000 -3001.800000 295.361000 1 1.000000 4 0.000000
78 2 813.852000 -3034.600000 257.506000 1 1.000000 4 -3.000000
79 2 805.799000 -3036.690000 262.935000 1 1.000000 1 -3.000000
80 2 797.339000 -3037.130000 267.981000 1 1.000000 1 -3.000000
81 2 789.260000 -3038.570000 273.662000 1 1.000000 1 -3.000000
82 2 783.634000 -3039.950000 281.591000 1 1.000000 1 -3.000000
83 2 776.216000 -3039.070000 288.168000 1 1.000000 1 -3.000000
84 2 770.579000 -3040.560000 296.012000 1 1.000000 1 -3.000000
85 2 765.279000 -3044.250000 303.400000 1 1.000000 1 -3.000000
86 2 757.569000 -3047.390000 308.523000 1 1.000000 1 -3.000000
87 2 749.241000 -3051.600000 311.773000 1 1.000000 1 -3.000000
88 2 742.966000 -3057.560000 316.923000 1 1.000000 1 -3.000000
89 2 736.371000 -3063.100000 321.736000 1 1.000000 1 -3.000000
90 2 728.394000 -3067.120000 325.935000 1 1.000000 1 -3.000000
91 2 721.414000 -3072.990000 329.531000 1 1.000000 1 -3.000000
92 2 713.135000 -3076.990000 333.278000 1 1.000000 1 -3.000000
93 2 705.880000 -3082.400000 337.381000 1 1.000000 1 -3.000000
94 2 699.490000 -3089.300000 340.557000 1 1.000000 1 -3.000000
95 2 693.281000 -3093.250000 347.138000 1 1.000000 1 -3.000000
96 2 690.059000 -3097.030000 355.672000 1 1.000000 1 -3.000000
97 2 684.436000 -3100.500000 363.161000 1 1.000000 1 -3.000000
98 2 678.113000 -3104.430000 369.537000 1 1.000000 1 -3.000000
99 2 670.621000 -3109.980000 372.870000 1 1.000000 1 -3.000000
100 2 664.221000 -3116.660000 376.112000 1 1.000000 1 -3.000000
101 2 658.594000 -3124.120000 379.135000 1 1.000000 1 -3.000000
102 2 656.233000 -3133.730000 378.389000 1 1.000000 5 -3.000000
103 1 667.571000 -3137.400000 424.103000 1 1.000000 5 0.000000
104 3 680.862000 -3106.330000 415.035000 1 1.000000 5 0.000000
105 2 688.232000 -3122.460000 463.681000 1 1.000000 5 -3.000000
106 2 686.589000 -3112.910000 462.129000 1 1.000000 1 -3.000000
107 2 685.124000 -3103.240000 460.956000 1 1.000000 1 -3.000000
108 2 684.072000 -3093.300000 460.270000 1 1.000000 1 -3.000000
109 2 681.492000 -3083.750000 458.711000 1 1.000000 1 -3.000000
110 2 678.456000 -3074.340000 459.258000 1 1.000000 1 -3.000000
111 2 674.741000 -3065.240000 458.778000 1 1.000000 1 -3.000000
112 2 667.025000 -3060.070000 462.204000 1 1.000000 1 -3.000000
113 2 659.621000 -3055.050000 466.673000 1 1.000000 1 -3.000000
114 2 651.837000 -3051.500000 471.765000 1 1.000000 1 -3.000000
115 2 643.113000 -3048.490000 475.144000 1 1.000000 1 -3.000000
116 2 635.456000 -3043.660000 478.968000 1 1.000000 1 -3.000000
117 2 629.829000 -3037.210000 483.786000 1 1.000000 1 -3.000000
118 2 624.283000 -3029.380000 486.274000 1 1.000000 1 -3.000000
119 2 618.623000 -3021.380000 487.664000 1 1.000000 1 -3.000000
120 2 610.467000 -3015.780000 488.367000 1 1.000000 1 -3.000000
121 2 601.247000 -3012.490000 489.148000 1 1.000000 1 -3.000000
122 2 592.564000 -3010.780000 484.869000 1 1.000000 1 -3.000000
123 2 583.386000 -3008.820000 481.792000 1 1.000000 1 -3.000000
124 2 574.040000 -3005.960000 480.187000 1 1.000000 1 -3.000000
125 2 564.842000 -3001.950000 479.920000 1 1.000000 1 -3.000000
126 2 555.174000 -3000.130000 478.667000 1 1.000000 1 -3.000000
127 2 545.731000 -2999.220000 481.680000 1 1.000000 1 -3.000000
128 2 536.823000 -3003.390000 480.422000 1 1.000000 1 -3.000000
129 2 527.152000 -3005.410000 479.589000 1 1.000000 6 -3.000000
130 1 526.500000 -3050.540000 493.356000 1 1.000000 6 0.000000
131 3 557.940000 -3039.310000 504.046000 1 1.000000 6 0.000000
132 2 544.116000 -3088.060000 515.874000 1 1.000000 6 -3.000000
133 2 550.907000 -3081.020000 517.498000 1 1.000000 1 -3.000000
134 2 557.837000 -3074.440000 520.335000 1 1.000000 1 -3.000000
135 2 564.954000 -3068.730000 524.526000 1 1.000000 1 -3.000000
136 2 572.741000 -3066.670000 530.288000 1 1.000000 1 -3.000000
137 2 580.577000 -3065.020000 536.264000 1 1.000000 1 -3.000000
138 2 588.247000 -3065.240000 542.646000 1 1.000000 1 -3.000000
139 2 597.439000 -3064.720000 546.296000 1 1.000000 1 -3.000000
140 2 606.081000 -3068.240000 549.559000 1 1.000000 1 -3.000000
141 2 614.949000 -3069.400000 553.600000 1 1.000000 1 -3.000000
142 2 622.519000 -3067.370000 559.471000 1 1.000000 1 -3.000000
143 2 630.051000 -3065.150000 565.358000 1 1.000000 1 -3.000000
144 2 637.012000 -3063.250000 572.231000 1 1.000000 1 -3.000000
145 2 640.821000 -3061.650000 581.228000 1 1.000000 1 -3.000000
146 2 645.175000 -3058.360000 589.620000 1 1.000000 1 -3.000000
147 2 645.192000 -3053.330000 598.276000 1 1.000000 1 -3.000000
148 2 647.108000 -3051.010000 607.740000 1 1.000000 1 -3.000000
149 2 652.792000 -3051.070000 615.938000 1 1.000000 1 -3.000000
150 2 649.943000 -3050.730000 625.316000 1 1.000000 1 -3.000000
151 2 649.406000 -3051.620000 635.149000 1 1.000000 1 -3.000000
152 2 649.900000 -3047.560000 644.180000 1 1.000000 1 -3.000000
153 2 648.213000 -3042.770000 652.750000 1 1.000000 1 -3.000000
154 2 646.164000 -3042.260000 662.366000 1 1.000000 1 -3.000000
155 2 644.611000 -3044.960000 671.863000 1 1.000000 1 -3.000000
156 2 642.045000 -3047.280000 681.081000 1 1.000000 7 -3.000000
157 1 686.168000 -3034.270000 691.513000 1 1.000000 7 0.000000
158 3 683.382000 -3026.690000 657.359000 1 1.000000 7 0.000000
159 2 727.996000 -3014.780000 681.399000 1 1.000000 7 -3.000000
160 2 721.555000 -3010.730000 675.253000 1 1.000000 1 -3.000000
161 2 717.411000 -3002.320000 671.812000 1 1.000000 1 -3.000000
162 2 711.257000 -2995.560000 668.135000 1 1.000000 1 -3.000000
163 2 705.272000 -2988.540000 664.541000 1 1.000000 1 -3.000000
164 2 697.012000 -2983.260000 663.461000 1 1.000000 1 -3.000000
165 2 690.329000 -2976.590000 660.551000 1 1.000000 1 -3.000000
166 2 682.582000 -2971.360000 657.476000 1 1.000000 1 -3.000000
167 2 673.516000 -2967.600000 656.189000 1 1.000000 1 -3.000000
168 2 665.001000 -2962.860000 654.455000 1 1.000000 1 -3.000000
169 2 656.724000 -2961.390000 649.354000 1 1.000000 1 -3.000000
170 2 651.487000 -2954.140000 645.093000 1 1.000000 1 -3.000000
171 2 645.472000 -2947.440000 640.912000 1 1.000000 1 -3.000000
172 2 639.787000 -2940.750000 636.347000 1 1.000000 1 -3.000000
173 2 633.971000 -2933.000000 634.391000 1 1.000000 1 -3.000000
174 2 627.432000 -2925.670000 633.250000 1 1.000000 1 -3.000000
175 2 618.566000 -2921.430000 634.388000 1 1.000000 1 -3.000000
176 2 611.120000 -2915.060000 633.744000 1 1.000000 1 -3.000000
177 2 602.961000 -2909.730000 632.320000 1 1.000000 1 -3.000000
178 2 595.315000 -2903.360000 631.660000 1 1.000000 1 -3.000000
179 2 586.911000 -2898.150000 632.436000 1 1.000000 1 -3.000000
180 2 579.756000 -2891.330000 632.963000 1 1.000000 1 -3.000000
181 2 572.129000 -2885.970000 636.295000 1 1.000000 1 -3.000000
182 2 565.544000 -2882.780000 643.085000 1 1.000000 1 -3.000000
183 2 559.417000 -2881.020000 650.603000 1 1.000000 8 -3.000000
184 1 586.109000 -2866.060000 686.557000 1 1.000000 8 0.000000
185 3 608.640000 -2867.130000 659.925000 1 1.000000 8 0.000000
186 2 627.079000 -2853.780000 706.430000 1 1.000000 8 -3.000000
187 2 633.289000 -2852.300000 698.794000 1 1.000000 1 -3.000000
188 2 640.035000 -2849.960000 692.024000 1 1.000000 1 -3.000000
189 2 645.996000 -2848.390000 684.300000 1 1.000000 1 -3.000000
190 2 650.908000 -2850.790000 675.867000 1 1.000000 1 -3.000000
191 2 657.849000 -2852.840000 669.207000 1 1.000000 1 -3.000000
192 2 665.784000 -2853.690000 663.440000 1 1.000000 1 -3.000000
193 2 672.999000 -2851.690000 657.003000 1 1.000000 1 -3.000000
194 2 679.688000 -2850.820000 649.667000 1 1.000000 1 -3.000000
195 2 687.404000 -2846.090000 645.605000 1 1.000000 1 -3.000000
196 2 693.047000 -2840.500000 639.748000 1 1.000000 1 -3.000000
197 2 699.599000 -2835.460000 634.343000 1 1.000000 1 -3.000000
198 2 704.808000 -2829.140000 628.632000 1 1.000000 1 -3.000000
199 2 709.501000 -2823.430000 622.121000 1 1.000000 1 -3.000000
200 2 715.522000 -2819.510000 615.277000 1 1.000000 1 -3.000000
201 2 721.505000 -2814.110000 609.665000 1 1.000000 1 -3.000000
202 2 722.829000 -2806.150000 603.950000 1 1.000000 1 -3.000000
203 2 725.674000 -2797.690000 599.690000 1 1.000000 1 -3.000000
204 2 728.060000 -2789.330000 595.110000 1 1.000000 1 -3.000000
205 2 732.286000 -2781.510000 590.703000 1 1.000000 1 -3.000000
206 2 739.860000 -2775.960000 587.828000 1 1.000000 1 -3.000000
207 2 746.312000 -2769.310000 584.687000 1 1.000000 1 -3.000000
208 2 752.987000 -2763.280000 580.865000 1 1.000000 1 -3.000000
209 2 761.509000 -2759.520000 577.957000 1 1.000000 1 -3.000000
210 2 770.440000 -2755.670000 575.747000 1 1.000000 9 -3.000000
211 1 796.941000 -2788.560000 596.527000 1 1.000000 9 0.000000
212 3 769.247000 -2806.520000 585.287000 1 1.000000 9 0.000000
213 2 805.922000 -2832.400000 611.585000 1 1.000000 9 -3.000000
214 2 798.529000 -2836.220000 606.369000 1 1.000000 1 -3.000000
215 2 792.084000 -2841.210000 600.710000 1 1.000000 1 -3.000000
216 2 787.093000 -2846.590000 594.131000 1 1.000000 1 -3.000000
217 2 782.031000 -2849.780000 586.114000 1 1.000000 1 -3.000000
218 2 775.411000 -2852.700000 579.466000 1 1.000000 1 -3.000000
219 2 769.391000 -2850.140000 572.203000 1 1.000000 1 -3.000000
220 2 764.321000 -2846.320000 564.496000 1 1.000000 1 -3.000000
221 2 758.091000 -2843.810000 557.147000 1 1.000000 1 -3.000000
222 2 754.660000 -2842.990000 547.868000 1 1.000000 1 -3.000000
223 2 752.266000 -2840.600000 538.558000 1 1.000000 1 -3.000000
224 2 747.398000 -2841.160000 529.934000 1 1.000000 1 -3.000000
225 2 743.432000 -2841.470000 520.875000 1 1.000000 1 -3.000000
226 2 743.110000 -2844.830000 511.646000 1 1.000000 1 -3.000000
227 2 743.795000 -2852.290000 505.210000 1 1.000000 1 -3.000000
228 2 743.015000 -2859.370000 498.310000 1 1.000000 1 -3.000000
229 2 740.843000 -2864.580000 490.039000 1 1.000000 1 -3.000000
230 2 739.107000 -2870.300000 482.224000 1 1.000000 1 -3.000000
231 2 740.554000 -2874.810000 473.533000 1 1.000000 1 -3.000000
232 2 742.541000 -2877.960000 464.433000 1 1.000000 1 -3.000000
233 2 741.445000 -2880.100000 454.751000 1 1.000000 1 -3.000000
234 2 739.213000 -2882.110000 445.235000 1 1.000000 1 -3.000000
235 2 736.263000 -2880.280000 436.008000 1 1.000000 1 -3.000000
236 2 734.610000 -2879.630000 426.301000 1 1.000000 1 -3.000000
237 2 731.930000 -2878.300000 416.926000 1 1.000000 10 -3.000000
238 1 692.459000 -2852.830000 421.148000 1 1.000000 10 0.000000
239 3 705.198000 -2852.990000 453.603000 1 1.000000 10 0.000000
240 2 662.516000 -2824.920000 444.708000 1 1.000000 10 -3.000000
241 2 664.185000 -2826.250000 454.276000 1 1.000000 1 -3.000000
242 2 662.693000 -2825.730000 464.052000 1 1.000000 1 -3.000000
243 2 660.158000 -2825.600000 473.531000 1 1.000000 1 -3.000000
244 2 654.261000 -2823.180000 481.135000 1 1.000000 1 -3.000000
245 2 646.852000 -2822.520000 487.702000 1 1.000000 1 -3.000000
246 2 638.878000 -2821.060000 493.558000 1 1.000000 1 -3.000000
247 2 631.114000 -2818.090000 499.063000 1 1.000000 1 -3.000000
248 2 622.377000 -2816.880000 503.585000 1 1.000000 1 -3.000000
249 2 613.756000 -2814.560000 507.862000 1 1.000000 1 -3.000000
250 2 608.488000 -2811.400000 515.579000 1 1.000000 1 -3.000000
251 2 603.176000 -2805.870000 521.950000 1 1.000000 1 -3.000000
252 2 600.746000 -2800.580000 530.000000 1 1.000000 1 -3.000000
253 2 598.541000 -2793.800000 536.932000 1 1.000000 1 -3.000000
254 2 596.884000 -2786.540000 543.564000 1 1.000000 1 -3.000000
255 2 595.460000 -2778.950000 549.723000 1 1.000000 1 -3.000000
256 2 592.628000 -2775.520000 558.618000 1 1.000000 1 -3.000000
257 2 589.566000 -2774.740000 567.971000 1 1.000000 1 -3.000000
258 2 586.860000 -2774.140000 577.513000 1 1.000000 1 -3.000000
259 2 584.029000 -2769.200000 585.598000 1 1.000000 1 -3.000000
260 2 578.631000 -2765.760000 593.130000 1 1.000000 1 -3.000000
261 2 571.790000 -2762.770000 599.770000 1 1.000000 1 -3.000000
262 2 562.726000 -2760.900000 603.390000 1 1.000000 1 -3.000000
263 2 553.482000 -2760.240000 606.673000 1 1.000000 1 -3.000000
264 2 544.693000 -2763.840000 609.801000 1 1.000000 11 -3.000000
265 1 528.598000 -2724.340000 630.036000 1 1.000000 11 0.000000
266 3 550.562000 -2712.680000 605.607000 1 1.000000 11 0.000000
267 2 524.791000 -2677.480000 633.925000 1 1.000000 11 -3.000000
268 2 529.942000 -2673.920000 626.263000 1 1.000000 1 -3.000000
269 2 535.104000 -2673.870000 617.791000 1 1.000000 1 -3.000000
270 2 540.473000 -2672.920000 609.540000 1 1.000000 1 -3.000000
271 2 543.410000 -2672.120000 600.081000 1 1.000000 1 -3.000000
272 2 543.704000 -2673.350000 590.266000 1 1.000000 1 -3.000000
273 2 544.660000 -2675.980000 580.756000 1 1.000000 1 -3.000000
274 2 547.253000 -2674.940000 571.240000 1 1.000000 1 -3.000000
275 2 553.467000 -2675.120000 563.548000 1 1.000000 1 -3.000000
276 2 561.109000 -2673.690000 557.375000 1 1.000000 1 -3.000000
277 2 568.743000 -2674.740000 551.094000 1 1.000000 1 -3.000000
278 2 573.323000 -2673.510000 542.409000 1 1.000000 1 -3.000000
279 2 575.770000 -2671.750000 533.131000 1 1.000000 1 -3.000000
280 2 580.650000 -2669.240000 524.817000 1 1.000000 1 -3.000000
281 2 585.030000 -2667.170000 516.315000 1 1.000000 1 -3.000000
282 2 589.815000 -2666.610000 507.721000 1 1.000000 1 -3.000000
283 2 593.668000 -2666.680000 498.652000 1 1.000000 1 -3.000000
284 2 594.042000 -2670.120000 489.390000 1 1.000000 1 -3.000000
285 2 594.927000 -2671.510000 479.602000 1 1.000000 1 -3.000000
286 2 597.796000 -2670.250000 470.157000 1 1.000000 1 -3.000000
287 2 602.208000 -2668.770000 461.491000 1 1.000000 1 -3.000000
288 2 608.840000 -2669.190000 454.041000 1 1.000000 1 -3.000000
289 2 613.700000 -2669.170000 445.404000 1 1.000000 1 -3.000000
290 2 618.854000 -2668.790000 437.020000 1 1.000000 1 -3.000000
291 2 622.412000 -2667.900000 427.762000 1 1.000000 12 -3.000000
292 1 587.077000 -2682.550000 400.089000 1 1.000000 12 0.000000
293 3 570.445000 -2668.320000 427.510000 1 1.000000 12 0.000000
294 2 541.529000 -2686.330000 388.228000 1 1.000000 12 -3.000000
295 2 541.342000 -2677.470000 392.515000 1 1.000000 1 -3.000000
296 2 543.059000 -2668.310000 396.074000 1 1.000000 1 -3.000000
297 2 544.391000 -2660.860000 402.411000 1 1.000000 1 -3.000000
298 2 547.352000 -2652.950000 407.666000 1 1.000000 1 -3.000000
299 2 551.143000 -2647.850000 415.186000 1 1.000000 1 -3.000000
300 2 556.194000 -2642.510000 421.873000 1 1.000000 1 -3.000000
301 2 562.349000 -2636.480000 426.703000 1 1.000000 1 -3.000000
302 2 568.652000 -2630.900000 431.841000 1 1.000000 1 -3.000000
303 2 572.084000 -2626.810000 440.168000 1 1.000000 1 -3.000000
304 2 573.803000 -2622.560000 448.859000 1 1.000000 1 -3.000000
305 2 575.433000 -2616.510000 456.620000 1 1.000000 1 -3.000000
306 2 577.649000 -2613.450000 465.898000 1 1.000000 1 -3.000000
307 2 576.772000 -2609.250000 474.634000 1 1.000000 1 -3.000000
308 2 577.399000 -2603.730000 482.920000 1 1.000000 1 -3.000000
309 2 574.585000 -2597.370000 489.904000 1 1.000000 1 -3.000000
310 2 573.723000 -2591.860000 497.968000 1 1.000000 1 -3.000000
311 2 571.151000 -2585.490000 505.036000 1 1.000000 1 -3.000000
312 2 567.577000 -2579.170000 511.494000 1 1.000000 1 -3.000000
313 2 563.403000 -2570.670000 514.647000 1 1.000000 1 -3.000000
314 2 557.247000 -2567.100000 521.657000 1 1.000000 1 -3.000000
315 2 550.081000 -2567.110000 528.374000 1 1.000000 1 -3.000000
316 2 540.952000 -2568.820000 531.641000 1 1.000000 1 -3.000000
317 2 532.743000 -2571.700000 536.440000 1 1.000000 1 -3.000000
318 2 527.028000 -2571.660000 544.720000 1 1.000000 13 -3.000000
319 1 569.196000 -2559.210000 561.775000 1 1.000000 13 0.000000
320 3 576.898000 -2574.290000 531.214000 1 1.000000 13 0.000000
321 2 616.160000 -2555.190000 559.372000 1 1.000000 13 -3.000000
322 2 618.201000 -2560.000000 551.063000 1 1.000000 1 -3.000000
323 2 619.177000 -2564.910000 542.603000 1 1.000000 1 -3.000000
324 2 619.493000 -2569.710000 533.890000 1 1.000000 1 -3.000000
325 2 620.445000 -2571.710000 524.328000 1 1.000000 1 -3.000000
326 2 618.096000 -2576.680000 516.140000 1 1.000000 1 -3.000000
327 2 613.842000 -2582.230000 509.180000 1 1.000000 1 -3.000000
328 2 612.625000 -2590.930000 504.552000 1 1.000000 1 -3.000000
329 2 610.212000 -2600.570000 503.570000 1 1.000000 1 -3.000000
330 2 613.302000 -2609.980000 503.685000 1 1.000000 1 -3.000000
331 2 615.384000 -2619.730000 503.883000 1 1.000000 1 -3.000000
332 2 620.104000 -2628.470000 504.930000 1 1.000000 1 -3.000000
333 2 625.112000 -2636.610000 507.224000 1 1.000000 1 -3.000000
334 2 628.325000 -2645.900000 508.587000 1 1.000000 1 -3.000000
335 2 631.428000 -2655.200000 510.129000 1 1.000000 1 -3.000000
336 2 632.196000 -2665.090000 509.951000 1 1.000000 1 -3.000000
337 2 635.461000 -2674.440000 509.828000 1 1.000000 1 -3.000000
338 2 637.286000 -2683.390000 513.406000 1 1.000000 1 -3.000000
339 2 641.077000 -2692.390000 514.244000 1 1.000000 1 -3.000000
340 2 644.376000 -2701.640000 515.633000 1 1.000000 1 -3.000000
341 2 649.258000 -2709.570000 519.420000 1 1.000000 1 -3.000000
342 2 654.502000 -2716.440000 524.363000 1 1.000000 1 -3.000000
343 2 659.695000 -2722.750000 529.889000 1 1.000000 1 -3.000000
344 2 666.751000 -2728.530000 533.505000 1 1.000000 1 -3.000000
345 2 673.776000 -2735.130000 535.509000 1 1.000000 14 -3.000000
346 1 686.382000 -2752.840000 493.577000 1 1.000000 14 0.000000
347 3 667.761000 -2724.510000 485.191000 1 1.000000 14 0.000000
348 2 684.236000 -2754.970000 446.500000 1 1.000000 14 -3.000000
349 2 684.100000 -2745.580000 443.059000 1 1.000000 1 -3.000000
350 2 684.426000 -2737.100000 437.997000 1 1.000000 1 -3.000000
351 2 682.790000 -2728.220000 434.012000 1 1.000000 1 -3.000000
352 2 682.693000 -2719.890000 428.664000 1 1.000000 1 -3.000000
353 2 681.525000 -2710.580000 425.748000 1 1.000000 1 -3.000000
354 2 679.230000 -2702.370000 420.788000 1 1.000000 1 -3.000000
355 2 679.417000 -2693.700000 416.497000 1 1.000000 1 -3.000000
356 2 677.403000 -2684.730000 412.784000 1 1.000000 1 -3.000000
357 2 675.853000 -2674.930000 411.687000 1 1.000000 1 -3.000000
358 2 671.727000 -2666.540000 408.484000 1 1.000000 1 -3.000000
359 2 666.487000 -2658.790000 405.054000 1 1.000000 1 -3.000000
360 2 659.008000 -2652.510000 403.354000 1 1.000000 1 -3.000000
361 2 651.616000 -2646.510000 400.583000 1 1.000000 1 -3.000000
362 2 646.355000 -2638.180000 399.738000 1 1.000000 1 -3.000000
363 2 642.088000 -2629.330000 398.838000 1 1.000000 1 -3.000000
364 2 639.158000 -2620.540000 395.640000 1 1.000000 1 -3.000000
365 2 635.186000 -2614.100000 389.316000 1 1.000000 1 -3.000000
366 2 631.984000 -2609.010000 381.459000 1 1.000000 1 -3.000000
367 2 629.685000 -2605.120000 372.748000 1 1.000000 1 -3.000000
368 2 629.841000 -2598.870000 365.198000 1 1.000000 1 -3.000000
369 2 630.739000 -2592.710000 357.480000 1 1.000000 1 -3.000000
370 2 632.913000 -2587.510000 349.397000 1 1.000000 1 -3.000000
371 2 629.524000 -2582.260000 341.857000 1 1.000000 1 -3.000000
372 2 631.581000 -2574.300000 336.313000 1 1.000000 15 -3.000000
373 1 642.266000 -2537.990000 364.508000 1 1.000000 15 0.000000
374 3 607.705000 -2541.540000 368.808000 1 1.000000 15 0.000000
375 2 632.417000 -2506.630000 398.390000 1 1.000000 15 -3.000000
376 2 623.786000 -2510.010000 402.181000 1 1.000000 1 -3.000000
377 2 614.348000 -2511.880000 404.873000 1 1.000000 1 -3.000000
378 2 605.479000 -2516.020000 406.203000 1 1.000000 1 -3.000000
379 2 596.226000 -2519.270000 406.238000 1 1.000000 1 -3.000000
380 2 587.249000 -2523.210000 404.974000 1 1.000000 1 -3.000000
381 2 578.940000 -2528.280000 403.443000 1 1.000000 1 -3.000000
382 2 571.078000 -2533.850000 401.086000 1 1.000000 1 -3.000000
383 2 564.382000 -2541.030000 400.868000 1 1.000000 1 -3.000000
384 2 557.060000 -2547.260000 403.759000 1 1.000000 1 -3.000000
385 2 549.697000 -2551.180000 409.240000 1 1.000000 1 -3.000000
386 2 542.910000 -2554.500000 415.549000 1 1.000000 1 -3.000000
387 2 537.007000 -2558.900000 422.315000 1 1.000000 1 -3.000000
388 2 531.458000 -2563.780000 428.766000 1 1.000000 1 -3.000000
389 2 525.121000 -2571.020000 431.197000 1 1.000000 1 -3.000000
390 2 519.207000 -2578.460000 433.569000 1 1.000000 1 -3.000000
391 2 515.428000 -2586.790000 437.181000 1 1.000000 1 -3.000000
392 2 512.412000 -2594.080000 443.100000 1 1.000000 1 -3.000000
393 2 509.029000 -2600.610000 449.713000 1 1.000000 1 -3.000000
394 2 506.468000 -2609.370000 453.252000 1 1.000000 1 -3.000000
395 2 505.406000 -2618.630000 456.805000 1 1.000000 1 -3.000000
396 2 504.886000 -2628.510000 456.696000 1 1.000000 1 -3.000000
397 2 503.287000 -2638.210000 457.682000 1 1.000000 1 -3.000000
398 2 501.816000 -2647.000000 462.083000 1 1.000000 1 -3.000000
399 2 504.127000 -2655.710000 466.173000 1 1.000000 16 -3.000000
400 1 474.809000 -2655.970000 503.157000 1 1.000000 16 0.000000
401 3 472.302000 -2623.140000 491.421000 1 1.000000 16 0.000000
402 2 441.830000 -2636.950000 531.006000 1 1.000000 16 -3.000000
403 2 442.890000 -2628.700000 525.750000 1 1.000000 1 -3.000000
404 2 440.543000 -2619.580000 522.704000 1 1.000000 1 -3.000000
405 2 436.757000 -2611.180000 519.007000 1 1.000000 1 -3.000000
406 2 433.572000 -2602.870000 514.797000 1 1.000000 1 -3.000000
407 2 427.026000 -2596.520000 511.044000 1 1.000000 1 -3.000000
408 2 420.439000 -2594.600000 503.886000 1 1.000000 1 -3.000000
409 2 413.571000 -2594.800000 496.772000 1 1.000000 1 -3.000000
410 2 406.888000 -2595.900000 489.757000 1 1.000000 1 -3.000000
411 2 400.413000 -2596.040000 482.417000 1 1.000000 1 -3.000000
412 2 393.575000 -2597.150000 475.381000 1 1.000000 1 -3.000000
413 2 385.392000 -2596.690000 469.905000 1 1.000000 1 -3.000000
414 2 379.788000 -2595.700000 461.668000 1 1.000000 1 -3.000000
415 2 371.861000 -2594.300000 455.774000 1 1.000000 1 -3.000000
416 2 364.058000 -2589.870000 451.663000 1 1.000000 1 -3.000000
417 2 357.962000 -2583.510000 447.089000 1 1.000000 1 -3.000000
418 2 349.435000 -2578.910000 445.327000 1 1.000000 1 -3.000000
419 2 340.298000 -2575.490000 443.108000 1 1.000000 1 -3.000000
420 2 331.685000 -2574.540000 438.356000 1 1.000000 1 -3.000000
421 2 324.629000 -2573.540000 431.482000 1 1.000000 1 -3.000000
422 2 317.335000 -2572.760000 424.653000 1 1.000000 1 -3.000000
423 2 308.540000 -2571.620000 420.141000 1 1.000000 1 -3.000000
424 2 299.307000 -2570.930000 416.724000 1 1.000000 1 -3.000000
425 2 289.706000 -2568.890000 415.344000 1 1.000000 1 -3.000000
426 2 280.484000 -2565.820000 413.751000 1 1.000000 17 -3.000000
427 1 285.221000 -2569.670000 367.039000 1 1.000000 17 0.000000
428 3 309.183000 -2592.000000 379.319000 1 1.000000 17 0.000000
429 2 303.266000 -2588.700000 327.787000 1 1.000000 17 -3.000000
430 2 304.232000 -2597.590000 331.874000 1 1.000000 1 -3.000000
431 2 304.964000 -2607.150000 334.301000 1 1.000000 1 -3.000000
432 2 305.657000 -2615.810000 339.256000 1 1.000000 1 -3.000000
433 2 307.301000 -2622.190000 346.523000 1 1.000000 1 -3.000000
434 2 306.216000 -2627.790000 354.657000 1 1.000000 1 -3.000000
435 2 300.875000 -2628.140000 362.780000 1 1.000000 1 -3.000000
436 2 294.524000 -2631.660000 369.500000 1 1.000000 1 -3.000000
437 2 288.861000 -2635.000000 376.966000 1 1.000000 1 -3.000000
438 2 284.017000 -2639.730000 384.112000 1 1.000000 1 -3.000000
439 2 277.612000 -2641.120000 391.551000 1 1.000000 1 -3.000000
440 2 271.451000 -2641.380000 399.357000 1 1.000000 1 -3.000000
441 2 266.321000 -2640.650000 407.826000 1 1.000000 1 -3.000000
442 2 260.900000 -2640.560000 416.043000 1 1.000000 1 -3.000000
443 2 256.184000 -2638.390000 424.449000 1 1.000000 1 -3.000000
444 2 255.454000 -2637.970000 434.331000 1 1.000000 1 -3.000000
445 2 256.640000 -2639.620000 443.947000 1 1.000000 1 -3.000000
446 2 254.952000 -2640.510000 453.693000 1 1.000000 1 -3.000000
447 2 251.308000 -2645.060000 461.763000 1 1.000000 1 -3.000000
448 2 248.283000 -2649.920000 469.981000 1 1.000000 1 -3.000000
449 2 244.790000 -2655.900000 477.145000 1 1.000000 1 -3.000000
450 2 245.700000 -2663.330000 483.763000 1 1.000000 1 -3.000000
451 2 244.574000 -2669.190000 491.558000 1 1.000000 1 -3.000000
452 2 245.103000 -2673.540000 500.460000 1 1.000000 1 -3.000000
453 2 246.408000 -2678.510000 508.772000 1 1.000000 18 -3.000000
454 1 277.460000 -2710.720000 493.692000 1 1.000000 18 0.000000
455 3 279.573000 -2685.530000 469.397000 1 1.000000 18 0.000000
456 2 312.155000 -2725.700000 465.377000 1 1.000000 18 -3.000000
457 2 316.909000 -2718.030000 461.540000 1 1.000000 1 -3.000000
458 2 319.384000 -2709.580000 456.971000 1 1.000000 1 -3.000000
459 2 320.469000 -2701.670000 451.276000 1 1.000000 1 -3.000000
460 2 318.916000 -2692.560000 447.570000 1 1.000000 1 -3.000000
461 2 315.627000 -2683.800000 444.248000 1 1.000000 1 -3.000000
462 2 315.965000 -2674.570000 441.188000 1 1.000000 1 -3.000000
463 2 321.720000 -2666.840000 438.763000 1 1.000000 1 -3.000000
464 2 326.041000 -2657.960000 437.551000 1 1.000000 1 -3.000000
465 2 331.974000 -2651.030000 433.608000 1 1.000000 1 -3.000000