LAMMPS data file

4067 atoms
4067 ellipsoids
4516 bonds
8882 angles
0 dihedrals

3 atom types
5 bond types
12 angle types
0 dihedral types

-4631.092947 4670.465898 xlo xhi
-4631.092947 4670.465898 ylo yhi
-4631.092947 4670.465898 zlo zhi

Masses

1 196016.000000
2 1950.000000
3 19500.000000

Atoms

1 2 871.242000 -3095.260000 755.138000 1 1.000000 1 -3.000000
2 2 867.696000 -3092.780000 746.280000 1 1.000000 1 -3.000000
3 2 861.958000 -3093.790000 738.280000 1 1.000000 1 -3.000000
4 2 857.326000 -3091.280000 729.847000 1 1.000000 1 -3.000000
5 2 854.686000 -3088.190000 720.825000 1 1.000000 1 -3.000000
6 2 855.401000 -3088.070000 710.799000 1 1.000000 1 -3.000000
7 2 852.585000 -3085.990000 701.543000 1 1.000000 1 -3.000000
8 2 852.942000 -3083.910000 691.935000 1 1.000000 1 -3.000000
9 2 851.753000 -3085.550000 682.273000 1 1.000000 1 -3.000000
10 2 850.457000 -3088.410000 672.926000 1 1.000000 1 -3.000000
11 2 849.892000 -3092.000000 663.722000 1 1.000000 1 -3.000000
12 2 848.977000 -3096.640000 655.030000 1 1.000000 1 -3.000000
13 2 846.273000 -3103.600000 648.494000 1 1.000000 1 -3.000000
14 2 845.081000 -3108.330000 639.839000 1 1.000000 1 -3.000000
15 2 843.829000 -3110.410000 630.245000 1 1.000000 1 -3.000000
16 2 843.891000 -3111.240000 620.365000 1 1.000000 1 -3.000000
17 2 844.697000 -3112.750000 610.751000 1 1.000000 1 -3.000000
18 2 845.060000 -3116.370000 601.472000 1 1.000000 1 -3.000000
19 2 843.475000 -3121.950000 593.339000 1 1.000000 1 -3.000000
20 2 844.062000 -3124.070000 583.744000 1 1.000000 1 -3.000000
21 2 846.114000 -3122.330000 574.202000 1 1.000000 2 -3.000000
22 1 893.397000 -3121.130000 575.801000 1 1.000000 2 0.000000
23 3 884.547000 -3134.520000 606.800000 1 1.000000 2 0.000000
24 2 935.028000 -3131.710000 595.238000 1 1.000000 2 -3.000000
25 2 930.792000 -3135.830000 602.990000 1 1.000000 1 -3.000000
26 2 927.297000 -3139.430000 611.436000 1 1.000000 1 -3.000000
27 2 923.740000 -3142.570000 620.083000 1 1.000000 1 -3.000000
28 2 920.471000 -3145.450000 628.971000 1 1.000000 1 -3.000000
29 2 913.549000 -3148.630000 635.345000 1 1.000000 1 -3.000000
30 2 905.286000 -3152.040000 639.560000 1 1.000000 1 -3.000000
31 2 898.419000 -3156.690000 645.030000 1 1.000000 1 -3.000000
32 2 894.032000 -3159.640000 653.416000 1 1.000000 1 -3.000000
33 2 888.299000 -3164.670000 659.772000 1 1.000000 1 -3.000000
34 2 882.415000 -3170.400000 665.584000 1 1.000000 1 -3.000000
35 2 874.748000 -3176.380000 667.056000 1 1.000000 1 -3.000000
36 2 866.331000 -3181.070000 668.876000 1 1.000000 1 -3.000000
37 2 858.488000 -3185.020000 673.340000 1 1.000000 1 -3.000000
38 2 850.632000 -3187.310000 678.949000 1 1.000000 1 -3.000000
39 2 845.120000 -3189.870000 686.812000 1 1.000000 1 -3.000000
40 2 841.061000 -3193.050000 695.089000 1 1.000000 1 -3.000000
41 2 838.318000 -3198.500000 702.950000 1 1.000000 1 -3.000000
42 2 838.873000 -3206.160000 708.935000 1 1.000000 1 -3.000000
43 2 837.449000 -3213.030000 715.762000 1 1.000000 1 -3.000000
44 2 839.955000 -3220.560000 721.783000 1 1.000000 1 -3.000000
45 2 844.484000 -3228.270000 725.844000 1 1.000000 1 -3.000000
46 2 850.527000 -3234.760000 730.087000 1 1.000000 1 -3.000000
47 2 854.565000 -3243.470000 732.463000 1 1.000000 1 -3.000000
48 2 858.492000 -3252.430000 731.770000 1 1.000000 3 -3.000000
49 1 901.267000 -3232.480000 731.971000 1 1.000000 3 0.000000
50 3 879.857000 -3205.240000 726.191000 1 1.000000 3 0.000000
51 2 930.681000 -3195.700000 730.274000 1 1.000000 3 -3.000000
52 2 922.833000 -3189.710000 730.845000 1 1.000000 1 -3.000000
53 2 916.478000 -3182.180000 731.941000 1 1.000000 1 -3.000000
54 2 910.202000 -3174.660000 730.870000 1 1.000000 1 -3.000000
55 2 903.157000 -3168.470000 727.671000 1 1.000000 1 -3.000000
56 2 895.579000 -3162.930000 724.300000 1 1.000000 1 -3.000000
57 2 886.670000 -3160.450000 720.928000 1 1.000000 1 -3.000000
58 2 877.969000 -3156.960000 717.731000 1 1.000000 1 -3.000000
59 2 869.175000 -3153.510000 714.960000 1 1.000000 1 -3.000000
60 2 859.760000 -3153.610000 711.813000 1 1.000000 1 -3.000000
61 2 850.236000 -3152.470000 709.271000 1 1.000000 1 -3.000000
62 2 840.967000 -3149.840000 707.630000 1 1.000000 1 -3.000000
63 2 831.001000 -3149.240000 706.706000 1 1.000000 1 -3.000000
64 2 821.823000 -3148.720000 702.845000 1 1.000000 1 -3.000000
65 2 811.869000 -3149.200000 701.964000 1 1.000000 1 -3.000000
66 2 802.192000 -3147.880000 700.359000 1 1.000000 1 -3.000000
67 2 792.670000 -3149.840000 698.057000 1 1.000000 1 -3.000000
68 2 783.928000 -3149.810000 693.488000 1 1.000000 1 -3.000000
69 2 775.473000 -3147.430000 688.785000 1 1.000000 1 -3.000000
70 2 768.188000 -3142.200000 684.775000 1 1.000000 1 -3.000000
71 2 760.857000 -3135.580000 683.651000 1 1.000000 1 -3.000000
72 2 753.259000 -3129.340000 682.141000 1 1.000000 1 -3.000000
73 2 744.390000 -3125.070000 682.164000 1 1.000000 1 -3.000000
74 2 734.947000 -3122.230000 682.935000 1 1.000000 1 -3.000000
75 2 725.695000 -3118.760000 683.777000 1 1.000000 4 -3.000000
76 1 736.271000 -3091.990000 646.429000 1 1.000000 4 0.000000
77 3 756.911000 -3119.970000 642.285000 1 1.000000 4 0.000000
78 2 761.179000 -3081.570000 607.680000 1 1.000000 4 -3.000000
79 2 770.259000 -3085.340000 606.970000 1 1.000000 1 -3.000000
80 2 779.984000 -3086.820000 607.878000 1 1.000000 1 -3.000000
81 2 788.810000 -3085.740000 603.470000 1 1.000000 1 -3.000000
82 2 797.267000 -3087.800000 598.968000 1 1.000000 1 -3.000000
83 2 802.902000 -3091.660000 591.873000 1 1.000000 1 -3.000000
84 2 808.679000 -3094.220000 584.298000 1 1.000000 1 -3.000000
85 2 813.832000 -3093.600000 575.918000 1 1.000000 1 -3.000000
86 2 819.347000 -3095.140000 567.827000 1 1.000000 1 -3.000000
87 2 824.687000 -3097.480000 559.901000 1 1.000000 1 -3.000000
88 2 830.285000 -3100.630000 552.230000 1 1.000000 1 -3.000000
89 2 834.493000 -3103.150000 543.642000 1 1.000000 1 -3.000000
90 2 838.971000 -3104.210000 534.955000 1 1.000000 1 -3.000000
91 2 841.148000 -3105.860000 525.531000 1 1.000000 1 -3.000000
92 2 843.004000 -3107.480000 515.977000 1 1.000000 1 -3.000000
93 2 845.489000 -3114.070000 509.078000 1 1.000000 1 -3.000000
94 2 848.857000 -3120.210000 502.210000 1 1.000000 1 -3.000000
95 2 847.687000 -3127.110000 495.188000 1 1.000000 1 -3.000000
96 2 844.743000 -3134.370000 489.155000 1 1.000000 1 -3.000000
97 2 840.510000 -3142.680000 485.776000 1 1.000000 1 -3.000000
98 2 838.167000 -3152.190000 484.925000 1 1.000000 1 -3.000000
99 2 835.108000 -3160.850000 480.999000 1 1.000000 1 -3.000000
100 2 831.608000 -3167.550000 474.631000 1 1.000000 1 -3.000000
101 2 830.187000 -3175.950000 469.746000 1 1.000000 1 -3.000000
102 2 826.934000 -3184.260000 465.180000 1 1.000000 5 -3.000000
103 1 782.386000 -3174.720000 453.110000 1 1.000000 5 0.000000
104 3 796.284000 -3143.180000 458.475000 1 1.000000 5 0.000000
105 2 745.987000 -3145.630000 445.347000 1 1.000000 5 -3.000000
106 2 751.944000 -3137.850000 444.298000 1 1.000000 1 -3.000000
107 2 757.526000 -3130.370000 441.187000 1 1.000000 1 -3.000000
108 2 762.720000 -3122.230000 439.505000 1 1.000000 1 -3.000000
109 2 768.814000 -3114.450000 440.447000 1 1.000000 1 -3.000000
110 2 773.290000 -3105.730000 441.777000 1 1.000000 1 -3.000000
111 2 779.657000 -3098.120000 443.195000 1 1.000000 1 -3.000000
112 2 783.027000 -3088.690000 443.229000 1 1.000000 1 -3.000000
113 2 788.406000 -3080.380000 443.318000 1 1.000000 1 -3.000000
114 2 792.551000 -3071.470000 444.774000 1 1.000000 1 -3.000000
115 2 795.878000 -3062.640000 447.655000 1 1.000000 1 -3.000000
116 2 795.849000 -3053.980000 452.386000 1 1.000000 1 -3.000000
117 2 801.278000 -3047.490000 457.445000 1 1.000000 1 -3.000000
118 2 806.606000 -3039.420000 459.458000 1 1.000000 1 -3.000000
119 2 811.688000 -3032.010000 463.465000 1 1.000000 1 -3.000000
120 2 811.906000 -3024.010000 469.282000 1 1.000000 1 -3.000000
121 2 809.010000 -3018.910000 477.212000 1 1.000000 1 -3.000000
122 2 805.360000 -3013.380000 484.693000 1 1.000000 1 -3.000000
123 2 800.840000 -3008.690000 492.222000 1 1.000000 1 -3.000000
124 2 795.481000 -3007.150000 500.419000 1 1.000000 1 -3.000000
125 2 788.530000 -3004.320000 506.689000 1 1.000000 1 -3.000000
126 2 781.382000 -3003.520000 513.446000 1 1.000000 1 -3.000000
127 2 777.233000 -3003.740000 522.429000 1 1.000000 1 -3.000000
128 2 771.679000 -3004.620000 530.559000 1 1.000000 1 -3.000000
129 2 765.272000 -3008.420000 537.128000 1 1.000000 6 -3.000000
130 1 797.717000 -3026.950000 565.932000 1 1.000000 6 0.000000
131 3 816.869000 -3012.600000 540.392000 1 1.000000 6 0.000000
132 2 842.009000 -3034.880000 580.070000 1 1.000000 6 -3.000000
133 2 848.299000 -3029.820000 574.199000 1 1.000000 1 -3.000000
134 2 853.483000 -3024.010000 568.196000 1 1.000000 1 -3.000000
135 2 857.547000 -3016.650000 563.106000 1 1.000000 1 -3.000000
136 2 857.911000 -3009.120000 556.652000 1 1.000000 1 -3.000000
137 2 856.802000 -3001.780000 550.202000 1 1.000000 1 -3.000000
138 2 856.373000 -2995.220000 542.824000 1 1.000000 1 -3.000000
139 2 856.260000 -2991.390000 533.652000 1 1.000000 1 -3.000000
140 2 855.225000 -2988.100000 524.434000 1 1.000000 1 -3.000000
141 2 855.543000 -2984.760000 515.134000 1 1.000000 1 -3.000000
142 2 855.249000 -2984.140000 505.150000 1 1.000000 1 -3.000000
143 2 855.737000 -2982.730000 495.315000 1 1.000000 1 -3.000000
144 2 857.343000 -2981.700000 485.682000 1 1.000000 1 -3.000000
145 2 860.087000 -2976.360000 477.747000 1 1.000000 1 -3.000000
146 2 862.246000 -2969.610000 471.036000 1 1.000000 1 -3.000000
147 2 867.226000 -2964.710000 464.151000 1 1.000000 1 -3.000000
148 2 874.552000 -2962.150000 457.988000 1 1.000000 1 -3.000000
149 2 877.654000 -2956.100000 450.707000 1 1.000000 1 -3.000000
150 2 881.642000 -2950.830000 443.346000 1 1.000000 1 -3.000000
151 2 886.811000 -2945.200000 437.016000 1 1.000000 1 -3.000000
152 2 892.456000 -2940.550000 430.438000 1 1.000000 1 -3.000000
153 2 893.598000 -2936.600000 421.530000 1 1.000000 1 -3.000000
154 2 896.818000 -2937.200000 412.189000 1 1.000000 1 -3.000000
155 2 898.531000 -2935.000000 402.631000 1 1.000000 1 -3.000000
156 2 899.012000 -2934.220000 392.741000 1 1.000000 7 -3.000000
157 1 860.433000 -2955.700000 376.138000 1 1.000000 7 0.000000
158 3 852.923000 -2950.700000 409.950000 1 1.000000 7 0.000000
159 2 818.865000 -2977.360000 381.281000 1 1.000000 7 -3.000000
160 2 815.980000 -2974.520000 390.194000 1 1.000000 1 -3.000000
161 2 811.834000 -2968.680000 397.054000 1 1.000000 1 -3.000000
162 2 808.372000 -2961.870000 403.297000 1 1.000000 1 -3.000000
163 2 803.850000 -2954.410000 407.918000 1 1.000000 1 -3.000000
164 2 798.354000 -2948.150000 413.252000 1 1.000000 1 -3.000000
165 2 790.984000 -2944.080000 418.447000 1 1.000000 1 -3.000000
166 2 784.143000 -2939.070000 423.568000 1 1.000000 1 -3.000000
167 2 777.994000 -2931.820000 426.368000 1 1.000000 1 -3.000000
168 2 772.029000 -2924.090000 427.773000 1 1.000000 1 -3.000000
169 2 764.534000 -2917.690000 429.495000 1 1.000000 1 -3.000000
170 2 756.011000 -2913.210000 432.146000 1 1.000000 1 -3.000000
171 2 746.844000 -2909.160000 432.018000 1 1.000000 1 -3.000000
172 2 738.336000 -2904.690000 434.734000 1 1.000000 1 -3.000000
173 2 730.875000 -2901.270000 440.268000 1 1.000000 1 -3.000000
174 2 722.995000 -2896.290000 443.630000 1 1.000000 1 -3.000000
175 2 715.869000 -2889.630000 445.039000 1 1.000000 1 -3.000000
176 2 706.132000 -2888.870000 443.740000 1 1.000000 1 -3.000000
177 2 697.187000 -2887.230000 439.929000 1 1.000000 1 -3.000000
178 2 688.278000 -2885.910000 435.577000 1 1.000000 1 -3.000000
179 2 679.408000 -2885.060000 431.413000 1 1.000000 1 -3.000000
180 2 671.882000 -2881.660000 426.065000 1 1.000000 1 -3.000000
181 2 665.485000 -2875.310000 421.563000 1 1.000000 1 -3.000000
182 2 658.240000 -2873.520000 415.096000 1 1.000000 1 -3.000000
183 2 652.142000 -2870.490000 407.977000 1 1.000000 8 -3.000000
184 1 626.161000 -2909.800000 409.264000 1 1.000000 8 0.000000
185 3 642.724000 -2910.150000 440.106000 1 1.000000 8 0.000000
186 2 611.548000 -2950.160000 428.837000 1 1.000000 8 -3.000000
187 2 614.305000 -2948.620000 438.034000 1 1.000000 1 -3.000000
188 2 617.290000 -2944.870000 446.537000 1 1.000000 1 -3.000000
189 2 616.428000 -2939.960000 455.052000 1 1.000000 1 -3.000000
190 2 613.174000 -2935.880000 463.468000 1 1.000000 1 -3.000000
191 2 610.390000 -2932.280000 472.347000 1 1.000000 1 -3.000000
192 2 608.082000 -2928.030000 480.817000 1 1.000000 1 -3.000000
193 2 607.959000 -2923.570000 489.678000 1 1.000000 1 -3.000000
194 2 609.522000 -2921.540000 499.187000 1 1.000000 1 -3.000000
195 2 609.857000 -2921.990000 509.140000 1 1.000000 1 -3.000000
196 2 610.036000 -2919.400000 518.683000 1 1.000000 1 -3.000000
197 2 611.310000 -2915.140000 527.601000 1 1.000000 1 -3.000000
198 2 612.012000 -2908.640000 534.876000 1 1.000000 1 -3.000000
199 2 611.429000 -2900.490000 540.468000 1 1.000000 1 -3.000000
200 2 609.195000 -2894.290000 547.849000 1 1.000000 1 -3.000000
201 2 608.458000 -2889.680000 556.648000 1 1.000000 1 -3.000000
202 2 609.673000 -2881.660000 562.368000 1 1.000000 1 -3.000000
203 2 610.544000 -2872.880000 566.759000 1 1.000000 1 -3.000000
204 2 613.895000 -2866.160000 573.193000 1 1.000000 1 -3.000000
205 2 617.285000 -2857.410000 575.996000 1 1.000000 1 -3.000000
206 2 621.010000 -2848.210000 576.731000 1 1.000000 1 -3.000000
207 2 620.296000 -2838.550000 574.692000 1 1.000000 1 -3.000000
208 2 618.815000 -2829.310000 571.872000 1 1.000000 1 -3.000000
209 2 619.766000 -2820.000000 568.370000 1 1.000000 1 -3.000000
210 2 620.466000 -2811.620000 563.081000 1 1.000000 9 -3.000000
211 1 621.476000 -2787.200000 603.378000 1 1.000000 9 0.000000
212 3 631.163000 -2819.360000 613.373000 1 1.000000 9 0.000000
213 2 632.056000 -2781.640000 648.995000 1 1.000000 9 -3.000000
214 2 639.181000 -2788.550000 648.970000 1 1.000000 1 -3.000000
215 2 646.686000 -2794.950000 648.513000 1 1.000000 1 -3.000000
216 2 654.490000 -2800.780000 646.813000 1 1.000000 1 -3.000000
217 2 662.159000 -2807.080000 646.714000 1 1.000000 1 -3.000000
218 2 666.395000 -2815.910000 648.369000 1 1.000000 1 -3.000000
219 2 671.016000 -2823.850000 651.764000 1 1.000000 1 -3.000000
220 2 675.510000 -2832.060000 655.219000 1 1.000000 1 -3.000000
221 2 679.925000 -2840.430000 658.353000 1 1.000000 1 -3.000000
222 2 684.073000 -2848.660000 661.907000 1 1.000000 1 -3.000000
223 2 687.124000 -2853.590000 669.876000 1 1.000000 1 -3.000000
224 2 687.204000 -2857.270000 679.002000 1 1.000000 1 -3.000000
225 2 689.569000 -2861.460000 687.599000 1 1.000000 1 -3.000000
226 2 690.694000 -2863.270000 697.226000 1 1.000000 1 -3.000000
227 2 686.838000 -2864.160000 706.342000 1 1.000000 1 -3.000000
228 2 680.939000 -2866.960000 713.800000 1 1.000000 1 -3.000000
229 2 672.766000 -2867.440000 719.444000 1 1.000000 1 -3.000000
230 2 664.783000 -2866.850000 725.438000 1 1.000000 1 -3.000000
231 2 656.167000 -2866.110000 730.264000 1 1.000000 1 -3.000000
232 2 647.081000 -2869.160000 733.150000 1 1.000000 1 -3.000000
233 2 637.592000 -2871.740000 734.056000 1 1.000000 1 -3.000000
234 2 628.081000 -2871.690000 736.699000 1 1.000000 1 -3.000000
235 2 618.763000 -2871.490000 739.766000 1 1.000000 1 -3.000000
236 2 609.277000 -2869.070000 741.614000 1 1.000000 1 -3.000000
237 2 600.165000 -2866.880000 744.798000 1 1.000000 10 -3.000000
238 1 608.969000 -2839.200000 781.987000 1 1.000000 10 0.000000
239 3 638.606000 -2837.510000 763.587000 1 1.000000 10 0.000000
240 2 636.377000 -2810.950000 807.979000 1 1.000000 10 -3.000000
241 2 642.518000 -2811.380000 800.383000 1 1.000000 1 -3.000000
242 2 645.383000 -2805.180000 793.235000 1 1.000000 1 -3.000000
243 2 649.482000 -2798.880000 786.795000 1 1.000000 1 -3.000000
244 2 652.608000 -2794.470000 778.509000 1 1.000000 1 -3.000000
245 2 655.719000 -2790.860000 769.845000 1 1.000000 1 -3.000000
246 2 660.507000 -2786.940000 762.156000 1 1.000000 1 -3.000000
247 2 662.861000 -2780.390000 755.195000 1 1.000000 1 -3.000000
248 2 663.800000 -2774.400000 747.472000 1 1.000000 1 -3.000000
249 2 665.779000 -2767.200000 740.871000 1 1.000000 1 -3.000000
250 2 665.741000 -2761.620000 732.626000 1 1.000000 1 -3.000000
251 2 665.559000 -2757.040000 723.972000 1 1.000000 1 -3.000000
252 2 663.923000 -2751.540000 715.898000 1 1.000000 1 -3.000000
253 2 661.065000 -2745.330000 708.610000 1 1.000000 1 -3.000000
254 2 657.079000 -2738.650000 702.361000 1 1.000000 1 -3.000000
255 2 649.760000 -2735.910000 696.396000 1 1.000000 1 -3.000000
256 2 640.853000 -2733.310000 692.722000 1 1.000000 1 -3.000000
257 2 631.702000 -2731.950000 689.505000 1 1.000000 1 -3.000000
258 2 621.891000 -2732.860000 689.003000 1 1.000000 1 -3.000000
259 2 611.974000 -2733.010000 688.384000 1 1.000000 1 -3.000000
260 2 602.222000 -2732.400000 689.589000 1 1.000000 1 -3.000000
261 2 592.593000 -2734.630000 688.688000 1 1.000000 1 -3.000000
262 2 583.611000 -2738.720000 687.552000 1 1.000000 1 -3.000000
263 2 574.067000 -2740.530000 685.772000 1 1.000000 1 -3.000000
264 2 564.550000 -2743.290000 684.811000 1 1.000000 11 -3.000000
265 1 550.964000 -2708.000000 713.046000 1 1.000000 11 0.000000
266 3 578.285000 -2694.440000 696.118000 1 1.000000 11 0.000000
267 2 553.592000 -2664.140000 730.128000 1 1.000000 11 -3.000000
268 2 553.777000 -2661.070000 720.699000 1 1.000000 1 -3.000000
269 2 556.314000 -2655.790000 712.652000 1 1.000000 1 -3.000000
270 2 558.057000 -2652.930000 703.410000 1 1.000000 1 -3.000000
271 2 562.254000 -2650.080000 694.934000 1 1.000000 1 -3.000000
272 2 563.995000 -2649.530000 685.239000 1 1.000000 1 -3.000000
273 2 566.612000 -2648.610000 675.733000 1 1.000000 1 -3.000000
274 2 569.020000 -2646.530000 666.383000 1 1.000000 1 -3.000000
275 2 569.604000 -2646.790000 656.399000 1 1.000000 1 -3.000000
276 2 572.665000 -2647.430000 647.023000 1 1.000000 1 -3.000000
277 2 575.713000 -2645.370000 637.803000 1 1.000000 1 -3.000000
278 2 578.471000 -2644.850000 628.396000 1 1.000000 1 -3.000000
279 2 582.358000 -2645.520000 619.309000 1 1.000000 1 -3.000000
280 2 583.617000 -2647.120000 609.629000 1 1.000000 1 -3.000000
281 2 582.175000 -2650.360000 600.349000 1 1.000000 1 -3.000000
282 2 579.127000 -2651.930000 591.114000 1 1.000000 1 -3.000000
283 2 573.870000 -2649.580000 583.140000 1 1.000000 1 -3.000000
284 2 568.425000 -2647.490000 575.087000 1 1.000000 1 -3.000000
285 2 561.868000 -2644.410000 568.269000 1 1.000000 1 -3.000000
286 2 555.515000 -2639.780000 562.346000 1 1.000000 1 -3.000000
287 2 552.287000 -2633.210000 555.505000 1 1.000000 1 -3.000000
288 2 545.075000 -2629.570000 549.745000 1 1.000000 1 -3.000000
289 2 539.575000 -2626.430000 542.124000 1 1.000000 1 -3.000000
290 2 533.860000 -2622.750000 534.933000 1 1.000000 1 -3.000000
291 2 528.307000 -2623.230000 526.769000 1 1.000000 12 -3.000000
292 1 491.775000 -2631.270000 555.494000 1 1.000000 12 0.000000
293 3 517.316000 -2622.300000 577.460000 1 1.000000 12 0.000000
294 2 469.985000 -2629.800000 597.301000 1 1.000000 12 -3.000000
295 2 473.991000 -2621.030000 595.292000 1 1.000000 1 -3.000000
296 2 478.008000 -2611.940000 594.867000 1 1.000000 1 -3.000000
297 2 480.014000 -2602.480000 596.873000 1 1.000000 1 -3.000000
298 2 481.935000 -2592.900000 596.914000 1 1.000000 1 -3.000000
299 2 482.384000 -2582.900000 597.064000 1 1.000000 1 -3.000000
300 2 485.093000 -2573.520000 595.564000 1 1.000000 1 -3.000000
301 2 488.314000 -2564.590000 593.006000 1 1.000000 1 -3.000000
302 2 488.842000 -2554.920000 591.106000 1 1.000000 1 -3.000000
303 2 491.407000 -2545.490000 589.636000 1 1.000000 1 -3.000000
304 2 492.918000 -2536.220000 586.413000 1 1.000000 1 -3.000000
305 2 496.090000 -2527.190000 583.598000 1 1.000000 1 -3.000000
306 2 499.492000 -2518.080000 581.629000 1 1.000000 1 -3.000000
307 2 503.737000 -2509.230000 581.590000 1 1.000000 1 -3.000000
308 2 509.611000 -2501.360000 581.004000 1 1.000000 1 -3.000000
309 2 515.109000 -2493.170000 582.075000 1 1.000000 1 -3.000000
310 2 520.099000 -2484.590000 583.070000 1 1.000000 1 -3.000000
311 2 526.477000 -2477.120000 584.925000 1 1.000000 1 -3.000000
312 2 533.927000 -2472.450000 589.555000 1 1.000000 1 -3.000000
313 2 541.919000 -2468.150000 593.605000 1 1.000000 1 -3.000000
314 2 547.534000 -2461.420000 598.232000 1 1.000000 1 -3.000000
315 2 553.776000 -2458.680000 605.398000 1 1.000000 1 -3.000000
316 2 557.314000 -2454.950000 613.948000 1 1.000000 1 -3.000000
317 2 559.633000 -2449.550000 621.937000 1 1.000000 1 -3.000000
318 2 562.044000 -2445.930000 630.917000 1 1.000000 13 -3.000000
319 1 528.267000 -2413.380000 625.877000 1 1.000000 13 0.000000
320 3 511.458000 -2443.350000 619.006000 1 1.000000 13 0.000000
321 2 483.570000 -2399.520000 619.336000 1 1.000000 13 -3.000000
322 2 483.880000 -2406.220000 612.036000 1 1.000000 1 -3.000000
323 2 483.233000 -2413.820000 605.679000 1 1.000000 1 -3.000000
324 2 485.085000 -2418.810000 597.541000 1 1.000000 1 -3.000000
325 2 486.427000 -2421.450000 588.127000 1 1.000000 1 -3.000000
326 2 485.417000 -2421.790000 578.285000 1 1.000000 1 -3.000000
327 2 478.186000 -2421.040000 571.785000 1 1.000000 1 -3.000000
328 2 469.707000 -2419.060000 566.903000 1 1.000000 1 -3.000000
329 2 463.467000 -2419.220000 559.247000 1 1.000000 1 -3.000000
330 2 458.202000 -2420.150000 550.877000 1 1.000000 1 -3.000000
331 2 452.757000 -2423.660000 543.379000 1 1.000000 1 -3.000000
332 2 451.738000 -2430.490000 536.377000 1 1.000000 1 -3.000000
333 2 450.946000 -2435.450000 528.053000 1 1.000000 1 -3.000000
334 2 451.456000 -2438.590000 518.665000 1 1.000000 1 -3.000000
335 2 455.020000 -2441.790000 510.062000 1 1.000000 1 -3.000000
336 2 458.002000 -2445.310000 501.314000 1 1.000000 1 -3.000000
337 2 461.851000 -2448.440000 492.803000 1 1.000000 1 -3.000000
338 2 468.556000 -2448.560000 485.452000 1 1.000000 1 -3.000000
339 2 474.725000 -2449.360000 477.681000 1 1.000000 1 -3.000000
340 2 478.493000 -2452.660000 469.112000 1 1.000000 1 -3.000000
341 2 479.430000 -2454.530000 459.354000 1 1.000000 1 -3.000000
342 2 478.365000 -2457.740000 450.015000 1 1.000000 1 -3.000000
343 2 475.104000 -2461.380000 441.333000 1 1.000000 1 -3.000000
344 2 470.687000 -2464.560000 433.026000 1 1.000000 1 -3.000000
345 2 462.904000 -2465.340000 427.004000 1 1.000000 14 -3.000000
346 1 467.410000 -2419.160000 418.282000 1 1.000000 14 0.000000
347 3 500.396000 -2430.050000 420.945000 1 1.000000 14 0.000000
348 2 492.113000 -2378.950000 416.133000 1 1.000000 14 -3.000000
349 2 499.262000 -2383.730000 411.079000 1 1.000000 1 -3.000000
350 2 505.577000 -2388.850000 405.401000 1 1.000000 1 -3.000000
351 2 511.876000 -2393.330000 399.198000 1 1.000000 1 -3.000000
352 2 518.759000 -2397.700000 393.575000 1 1.000000 1 -3.000000
353 2 526.114000 -2402.760000 389.390000 1 1.000000 1 -3.000000
354 2 533.175000 -2404.770000 382.723000 1 1.000000 1 -3.000000
355 2 541.565000 -2404.180000 377.522000 1 1.000000 1 -3.000000
356 2 550.231000 -2401.120000 373.817000 1 1.000000 1 -3.000000
357 2 558.445000 -2395.810000 372.503000 1 1.000000 1 -3.000000
358 2 566.499000 -2390.170000 373.056000 1 1.000000 1 -3.000000
359 2 574.564000 -2384.760000 371.661000 1 1.000000 1 -3.000000
360 2 579.205000 -2376.190000 369.905000 1 1.000000 1 -3.000000
361 2 583.898000 -2367.430000 369.912000 1 1.000000 1 -3.000000
362 2 587.920000 -2358.860000 366.756000 1 1.000000 1 -3.000000
363 2 592.278000 -2349.930000 366.875000 1 1.000000 1 -3.000000
364 2 595.826000 -2340.900000 369.369000 1 1.000000 1 -3.000000
365 2 599.193000 -2331.430000 368.620000 1 1.000000 1 -3.000000
366 2 599.789000 -2321.540000 367.223000 1 1.000000 1 -3.000000
367 2 597.645000 -2312.050000 366.986000 1 1.000000 1 -3.000000
368 2 595.833000 -2302.170000 366.130000 1 1.000000 1 -3.000000
369 2 593.171000 -2292.720000 365.088000 1 1.000000 1 -3.000000
370 2 591.663000 -2284.180000 360.232000 1 1.000000 1 -3.000000
371 2 591.510000 -2274.660000 357.767000 1 1.000000 1 -3.000000
372 2 588.852000 -2266.450000 352.799000 1 1.000000 15 -3.000000
373 1 629.152000 -2245.390000 340.331000 1 1.000000 15 0.000000
374 3 639.492000 -2269.040000 363.984000 1 1.000000 15 0.000000
375 2 676.035000 -2240.230000 340.920000 1 1.000000 15 -3.000000
376 2 680.054000 -2249.110000 343.071000 1 1.000000 1 -3.000000
377 2 681.936000 -2258.330000 345.926000 1 1.000000 1 -3.000000
378 2 683.125000 -2267.200000 350.079000 1 1.000000 1 -3.000000
379 2 683.559000 -2275.630000 355.234000 1 1.000000 1 -3.000000
380 2 683.294000 -2285.350000 357.546000 1 1.000000 1 -3.000000
381 2 684.467000 -2294.080000 361.959000 1 1.000000 1 -3.000000
382 2 683.470000 -2303.140000 365.794000 1 1.000000 1 -3.000000
383 2 685.022000 -2312.430000 368.829000 1 1.000000 1 -3.000000
384 2 688.279000 -2319.860000 374.644000 1 1.000000 1 -3.000000
385 2 692.904000 -2328.120000 377.400000 1 1.000000 1 -3.000000
386 2 697.900000 -2335.260000 382.030000 1 1.000000 1 -3.000000
387 2 704.332000 -2340.910000 387.251000 1 1.000000 1 -3.000000
388 2 709.958000 -2347.740000 391.834000 1 1.000000 1 -3.000000
389 2 714.495000 -2356.110000 394.852000 1 1.000000 1 -3.000000
390 2 718.283000 -2364.410000 398.536000 1 1.000000 1 -3.000000
391 2 721.427000 -2373.340000 400.710000 1 1.000000 1 -3.000000
392 2 723.775000 -2382.730000 403.068000 1 1.000000 1 -3.000000
393 2 725.760000 -2391.730000 406.690000 1 1.000000 1 -3.000000
394 2 726.111000 -2401.560000 405.782000 1 1.000000 1 -3.000000
395 2 723.339000 -2411.060000 406.043000 1 1.000000 1 -3.000000
396 2 718.442000 -2419.570000 405.140000 1 1.000000 1 -3.000000
397 2 712.253000 -2427.290000 403.858000 1 1.000000 1 -3.000000
398 2 705.161000 -2433.950000 403.864000 1 1.000000 1 -3.000000
399 2 697.596000 -2440.500000 405.481000 1 1.000000 16 -3.000000
400 1 665.387000 -2419.960000 377.758000 1 1.000000 16 0.000000
401 3 693.664000 -2399.690000 373.537000 1 1.000000 16 0.000000
402 2 652.157000 -2389.680000 344.021000 1 1.000000 16 -3.000000
403 2 660.890000 -2386.690000 340.296000 1 1.000000 1 -3.000000
404 2 668.559000 -2381.230000 337.022000 1 1.000000 1 -3.000000
405 2 678.358000 -2379.820000 336.032000 1 1.000000 1 -3.000000
406 2 688.321000 -2379.880000 334.844000 1 1.000000 1 -3.000000
407 2 697.548000 -2383.140000 333.441000 1 1.000000 1 -3.000000
408 2 707.228000 -2383.630000 331.183000 1 1.000000 1 -3.000000
409 2 716.074000 -2381.820000 327.229000 1 1.000000 1 -3.000000
410 2 725.626000 -2379.560000 326.171000 1 1.000000 1 -3.000000
411 2 734.551000 -2377.880000 322.468000 1 1.000000 1 -3.000000
412 2 743.236000 -2377.730000 317.730000 1 1.000000 1 -3.000000
413 2 749.800000 -2377.180000 310.370000 1 1.000000 1 -3.000000
414 2 755.086000 -2379.720000 302.523000 1 1.000000 1 -3.000000
415 2 758.153000 -2384.050000 294.174000 1 1.000000 1 -3.000000
416 2 760.983000 -2387.690000 285.415000 1 1.000000 1 -3.000000
417 2 760.438000 -2395.670000 279.585000 1 1.000000 1 -3.000000
418 2 759.023000 -2403.350000 273.349000 1 1.000000 1 -3.000000
419 2 759.947000 -2408.760000 265.198000 1 1.000000 1 -3.000000
420 2 764.301000 -2416.640000 261.201000 1 1.000000 1 -3.000000
421 2 767.422000 -2424.470000 255.870000 1 1.000000 1 -3.000000
422 2 769.315000 -2432.010000 249.638000 1 1.000000 1 -3.000000
423 2 769.041000 -2438.250000 241.903000 1 1.000000 1 -3.000000
424 2 768.357000 -2442.710000 232.973000 1 1.000000 1 -3.000000
425 2 763.709000 -2448.580000 226.431000 1 1.000000 1 -3.000000
426 2 758.382000 -2453.560000 219.706000 1 1.000000 17 -3.000000
427 1 721.955000 -2467.630000 246.189000 1 1.000000 17 0.000000
428 3 726.352000 -2434.320000 255.671000 1 1.000000 17 0.000000
429 2 690.498000 -2462.300000 280.950000 1 1.000000 17 -3.000000
430 2 690.872000 -2452.400000 280.649000 1 1.000000 1 -3.000000
431 2 691.416000 -2442.540000 281.133000 1 1.000000 1 -3.000000
432 2 691.425000 -2432.820000 282.625000 1 1.000000 1 -3.000000
433 2 689.635000 -2423.040000 282.722000 1 1.000000 1 -3.000000
434 2 689.641000 -2413.080000 282.816000 1 1.000000 1 -3.000000
435 2 688.002000 -2404.430000 287.312000 1 1.000000 1 -3.000000
436 2 686.222000 -2395.280000 290.578000 1 1.000000 1 -3.000000
437 2 683.629000 -2386.290000 293.640000 1 1.000000 1 -3.000000
438 2 679.146000 -2377.740000 295.757000 1 1.000000 1 -3.000000
439 2 671.635000 -2371.520000 296.067000 1 1.000000 1 -3.000000
440 2 663.132000 -2366.630000 297.577000 1 1.000000 1 -3.000000
441 2 654.540000 -2361.790000 297.614000 1 1.000000 1 -3.000000
442 2 645.240000 -2358.590000 297.787000 1 1.000000 1 -3.000000
443 2 636.473000 -2354.300000 296.870000 1 1.000000 1 -3.000000
444 2 627.896000 -2349.300000 296.022000 1 1.000000 1 -3.000000
445 2 623.503000 -2340.790000 293.627000 1 1.000000 1 -3.000000
446 2 619.072000 -2333.200000 289.273000 1 1.000000 1 -3.000000
447 2 613.001000 -2325.520000 287.260000 1 1.000000 1 -3.000000
448 2 609.776000 -2316.300000 286.949000 1 1.000000 1 -3.000000
449 2 606.304000 -2307.160000 284.949000 1 1.000000 1 -3.000000
450 2 602.126000 -2298.380000 282.825000 1 1.000000 1 -3.000000
451 2 595.585000 -2291.000000 282.483000 1 1.000000 1 -3.000000
452 2 593.682000 -2281.400000 284.053000 1 1.000000 1 -3.000000
453 2 596.239000 -2271.790000 283.966000 1 1.000000 18 -3.000000
454 1 549.561000 -2265.720000 287.106000 1 1.000000 18 0.000000
455 3 552.493000 -2295.980000 269.760000 1 1.000000 18 0.000000
456 2 504.740000 -2277.870000 279.144000 1 1.000000 18 -3.000000
457 2 505.096000 -2287.380000 276.494000 1 1.000000 1 -3.000000
458 2 504.638000 -2295.650000 271.021000 1 1.000000 1 -3.000000
459 2 505.316000 -2304.810000 267.659000 1 1.000000 1 -3.000000
460 2 503.804000 -2314.360000 266.520000 1 1.000000 1 -3.000000
461 2 501.646000 -2323.930000 266.830000 1 1.000000 1 -3.000000
462 2 499.134000 -2333.280000 269.098000 1 1.000000 1 -3.000000
463 2 499.886000 -2342.790000 272.010000 1 1.000000 1 -3.000000
464 2 495.622000 -2351.360000 274.185000 1 1.000000 1 -3.000000
465 2 491.803000 -2360.320000 275.063000 1 1.000000 1 -3.000000