LAMMPS data file

4067 atoms
4067 ellipsoids
4516 bonds
8882 angles
0 dihedrals

3 atom types
5 bond types
12 angle types
0 dihedral types

-4631.092947 4670.465898 xlo xhi
-4631.092947 4670.465898 ylo yhi
-4631.092947 4670.465898 zlo zhi

Masses

1 196016.000000
2 1950.000000
3 19500.000000

Atoms

1 2 669.244000 -2800.840000 566.050000 1 1.000000 1 -3.000000
2 2 671.299000 -2802.490000 575.638000 1 1.000000 1 -3.000000
3 2 672.336000 -2807.360000 584.254000 1 1.000000 1 -3.000000
4 2 675.828000 -2809.970000 593.121000 1 1.000000 1 -3.000000
5 2 678.121000 -2814.450000 601.714000 1 1.000000 1 -3.000000
6 2 681.018000 -2818.510000 610.273000 1 1.000000 1 -3.000000
7 2 683.082000 -2823.260000 618.788000 1 1.000000 1 -3.000000
8 2 687.348000 -2827.870000 626.418000 1 1.000000 1 -3.000000
9 2 692.221000 -2832.100000 633.879000 1 1.000000 1 -3.000000
10 2 697.859000 -2836.500000 640.572000 1 1.000000 1 -3.000000
11 2 698.354000 -2842.950000 648.160000 1 1.000000 1 -3.000000
12 2 699.895000 -2851.890000 652.088000 1 1.000000 1 -3.000000
13 2 704.271000 -2860.850000 653.301000 1 1.000000 1 -3.000000
14 2 705.486000 -2870.280000 655.709000 1 1.000000 1 -3.000000
15 2 708.164000 -2879.200000 659.277000 1 1.000000 1 -3.000000
16 2 713.735000 -2886.900000 662.039000 1 1.000000 1 -3.000000
17 2 721.587000 -2891.290000 666.381000 1 1.000000 1 -3.000000
18 2 726.917000 -2897.430000 672.098000 1 1.000000 1 -3.000000
19 2 733.430000 -2900.650000 678.734000 1 1.000000 1 -3.000000
20 2 739.774000 -2903.610000 685.776000 1 1.000000 1 -3.000000
21 2 747.201000 -2906.610000 691.691000 1 1.000000 2 -3.000000
22 1 769.173000 -2865.760000 700.342000 1 1.000000 2 0.000000
23 3 739.377000 -2855.670000 685.067000 1 1.000000 2 0.000000
24 2 774.025000 -2818.960000 697.019000 1 1.000000 2 -3.000000
25 2 765.010000 -2819.310000 692.768000 1 1.000000 1 -3.000000
26 2 757.257000 -2823.760000 688.514000 1 1.000000 1 -3.000000
27 2 748.893000 -2828.430000 685.729000 1 1.000000 1 -3.000000
28 2 742.734000 -2835.780000 683.259000 1 1.000000 1 -3.000000
29 2 738.388000 -2843.820000 679.429000 1 1.000000 1 -3.000000
30 2 737.383000 -2853.480000 680.803000 1 1.000000 1 -3.000000
31 2 734.582000 -2862.870000 682.043000 1 1.000000 1 -3.000000
32 2 730.537000 -2871.240000 685.645000 1 1.000000 1 -3.000000
33 2 724.089000 -2878.480000 687.487000 1 1.000000 1 -3.000000
34 2 717.538000 -2881.980000 693.823000 1 1.000000 1 -3.000000
35 2 710.149000 -2887.640000 697.222000 1 1.000000 1 -3.000000
36 2 702.891000 -2892.800000 701.386000 1 1.000000 1 -3.000000
37 2 699.390000 -2901.390000 704.561000 1 1.000000 1 -3.000000
38 2 695.398000 -2910.360000 703.485000 1 1.000000 1 -3.000000
39 2 689.887000 -2917.410000 699.513000 1 1.000000 1 -3.000000
40 2 682.521000 -2922.990000 696.203000 1 1.000000 1 -3.000000
41 2 675.771000 -2928.150000 691.368000 1 1.000000 1 -3.000000
42 2 668.824000 -2934.690000 688.354000 1 1.000000 1 -3.000000
43 2 663.500000 -2941.480000 683.577000 1 1.000000 1 -3.000000
44 2 662.778000 -2950.960000 681.126000 1 1.000000 1 -3.000000
45 2 662.992000 -2960.780000 680.888000 1 1.000000 1 -3.000000
46 2 662.532000 -2970.680000 681.393000 1 1.000000 1 -3.000000
47 2 664.733000 -2980.280000 681.591000 1 1.000000 1 -3.000000
48 2 666.421000 -2989.910000 681.257000 1 1.000000 3 -3.000000
49 1 708.827000 -2988.170000 660.606000 1 1.000000 3 0.000000
50 3 705.177000 -2956.130000 674.137000 1 1.000000 3 0.000000
51 2 750.522000 -2967.850000 651.820000 1 1.000000 3 -3.000000
52 2 747.301000 -2958.510000 652.177000 1 1.000000 1 -3.000000
53 2 745.784000 -2948.990000 654.329000 1 1.000000 1 -3.000000
54 2 744.527000 -2939.210000 655.539000 1 1.000000 1 -3.000000
55 2 747.622000 -2929.840000 655.197000 1 1.000000 1 -3.000000
56 2 751.082000 -2920.740000 653.353000 1 1.000000 1 -3.000000
57 2 755.645000 -2912.610000 649.887000 1 1.000000 1 -3.000000
58 2 761.112000 -2904.470000 648.210000 1 1.000000 1 -3.000000
59 2 767.541000 -2896.800000 648.878000 1 1.000000 1 -3.000000
60 2 775.542000 -2890.950000 649.319000 1 1.000000 1 -3.000000
61 2 783.517000 -2885.300000 650.911000 1 1.000000 1 -3.000000
62 2 791.632000 -2883.960000 656.514000 1 1.000000 1 -3.000000
63 2 800.170000 -2883.820000 661.511000 1 1.000000 1 -3.000000
64 2 809.171000 -2887.780000 663.438000 1 1.000000 1 -3.000000
65 2 818.504000 -2889.960000 661.392000 1 1.000000 1 -3.000000
66 2 828.494000 -2889.930000 661.127000 1 1.000000 1 -3.000000
67 2 837.937000 -2886.810000 659.747000 1 1.000000 1 -3.000000
68 2 845.938000 -2882.020000 656.353000 1 1.000000 1 -3.000000
69 2 855.080000 -2880.450000 652.650000 1 1.000000 1 -3.000000
70 2 862.352000 -2878.180000 646.320000 1 1.000000 1 -3.000000
71 2 870.472000 -2878.350000 640.832000 1 1.000000 1 -3.000000
72 2 877.439000 -2881.510000 634.521000 1 1.000000 1 -3.000000
73 2 884.060000 -2887.640000 630.649000 1 1.000000 1 -3.000000
74 2 891.085000 -2891.880000 624.911000 1 1.000000 1 -3.000000
75 2 894.670000 -2897.390000 617.550000 1 1.000000 4 -3.000000
76 1 861.691000 -2927.190000 601.945000 1 1.000000 4 0.000000
77 3 843.004000 -2899.890000 613.257000 1 1.000000 4 0.000000
78 2 817.166000 -2940.490000 593.823000 1 1.000000 4 -3.000000
79 2 811.750000 -2932.510000 596.147000 1 1.000000 1 -3.000000
80 2 805.623000 -2924.890000 595.154000 1 1.000000 1 -3.000000
81 2 803.355000 -2915.270000 596.219000 1 1.000000 1 -3.000000
82 2 802.056000 -2905.800000 598.740000 1 1.000000 1 -3.000000
83 2 802.346000 -2896.000000 600.269000 1 1.000000 1 -3.000000
84 2 801.658000 -2886.140000 601.467000 1 1.000000 1 -3.000000
85 2 803.168000 -2876.340000 602.452000 1 1.000000 1 -3.000000
86 2 804.985000 -2867.640000 606.789000 1 1.000000 1 -3.000000
87 2 807.451000 -2859.530000 611.889000 1 1.000000 1 -3.000000
88 2 809.672000 -2849.900000 612.224000 1 1.000000 1 -3.000000
89 2 815.069000 -2842.870000 616.462000 1 1.000000 1 -3.000000
90 2 820.903000 -2836.430000 621.169000 1 1.000000 1 -3.000000
91 2 827.169000 -2829.090000 623.239000 1 1.000000 1 -3.000000
92 2 835.057000 -2823.290000 624.135000 1 1.000000 1 -3.000000
93 2 841.141000 -2815.570000 624.424000 1 1.000000 1 -3.000000
94 2 845.228000 -2806.850000 626.906000 1 1.000000 1 -3.000000
95 2 849.602000 -2798.060000 627.499000 1 1.000000 1 -3.000000
96 2 853.027000 -2789.000000 625.711000 1 1.000000 1 -3.000000
97 2 855.599000 -2780.010000 622.335000 1 1.000000 1 -3.000000
98 2 852.836000 -2771.530000 617.977000 1 1.000000 1 -3.000000
99 2 849.553000 -2762.650000 614.921000 1 1.000000 1 -3.000000
100 2 849.938000 -2753.160000 612.016000 1 1.000000 1 -3.000000
101 2 850.885000 -2744.300000 607.956000 1 1.000000 1 -3.000000
102 2 853.165000 -2736.750000 601.903000 1 1.000000 5 -3.000000
103 1 827.101000 -2753.370000 566.364000 1 1.000000 5 0.000000
104 3 834.230000 -2782.090000 585.134000 1 1.000000 5 0.000000
105 2 805.056000 -2787.560000 542.543000 1 1.000000 5 -3.000000
106 2 803.191000 -2794.130000 549.688000 1 1.000000 1 -3.000000
107 2 797.484000 -2799.040000 556.230000 1 1.000000 1 -3.000000
108 2 789.356000 -2803.840000 559.154000 1 1.000000 1 -3.000000
109 2 781.661000 -2810.120000 559.273000 1 1.000000 1 -3.000000
110 2 776.308000 -2818.410000 560.555000 1 1.000000 1 -3.000000
111 2 771.815000 -2827.130000 559.326000 1 1.000000 1 -3.000000
112 2 766.539000 -2835.460000 558.383000 1 1.000000 1 -3.000000
113 2 760.029000 -2842.810000 557.180000 1 1.000000 1 -3.000000
114 2 753.081000 -2849.760000 558.359000 1 1.000000 1 -3.000000
115 2 745.530000 -2855.880000 556.938000 1 1.000000 1 -3.000000
116 2 741.536000 -2864.860000 557.872000 1 1.000000 1 -3.000000
117 2 739.793000 -2874.680000 558.051000 1 1.000000 1 -3.000000
118 2 738.317000 -2884.360000 558.836000 1 1.000000 1 -3.000000
119 2 739.325000 -2894.010000 560.455000 1 1.000000 1 -3.000000
120 2 742.097000 -2903.190000 563.021000 1 1.000000 1 -3.000000
121 2 745.265000 -2912.050000 566.036000 1 1.000000 1 -3.000000
122 2 748.201000 -2921.120000 568.694000 1 1.000000 1 -3.000000
123 2 750.427000 -2930.320000 571.945000 1 1.000000 1 -3.000000
124 2 755.959000 -2938.260000 574.391000 1 1.000000 1 -3.000000
125 2 762.006000 -2946.140000 575.269000 1 1.000000 1 -3.000000
126 2 767.400000 -2954.330000 576.509000 1 1.000000 1 -3.000000
127 2 773.805000 -2961.870000 575.212000 1 1.000000 1 -3.000000
128 2 778.899000 -2970.060000 572.699000 1 1.000000 1 -3.000000
129 2 784.334000 -2978.290000 571.376000 1 1.000000 6 -3.000000
130 1 764.582000 -2988.630000 529.819000 1 1.000000 6 0.000000
131 3 742.227000 -2965.660000 543.907000 1 1.000000 6 0.000000
132 2 732.076000 -2983.300000 496.029000 1 1.000000 6 -3.000000
133 2 735.527000 -2974.670000 499.414000 1 1.000000 1 -3.000000
134 2 736.862000 -2965.190000 501.505000 1 1.000000 1 -3.000000
135 2 736.732000 -2955.440000 500.807000 1 1.000000 1 -3.000000
136 2 740.314000 -2946.510000 498.666000 1 1.000000 1 -3.000000
137 2 747.359000 -2939.880000 496.514000 1 1.000000 1 -3.000000
138 2 755.416000 -2934.260000 497.056000 1 1.000000 1 -3.000000
139 2 763.371000 -2929.480000 500.500000 1 1.000000 1 -3.000000
140 2 772.277000 -2925.860000 502.356000 1 1.000000 1 -3.000000
141 2 779.934000 -2919.850000 503.207000 1 1.000000 1 -3.000000
142 2 788.926000 -2915.690000 503.705000 1 1.000000 1 -3.000000
143 2 797.625000 -2911.400000 501.880000 1 1.000000 1 -3.000000
144 2 806.478000 -2907.100000 500.815000 1 1.000000 1 -3.000000
145 2 814.719000 -2902.840000 497.397000 1 1.000000 1 -3.000000
146 2 821.730000 -2897.250000 493.155000 1 1.000000 1 -3.000000
147 2 829.762000 -2892.530000 489.600000 1 1.000000 1 -3.000000
148 2 838.186000 -2891.290000 484.506000 1 1.000000 1 -3.000000
149 2 847.285000 -2889.160000 481.093000 1 1.000000 1 -3.000000
150 2 856.608000 -2889.540000 477.552000 1 1.000000 1 -3.000000
151 2 866.190000 -2888.970000 474.941000 1 1.000000 1 -3.000000
152 2 875.950000 -2889.570000 474.593000 1 1.000000 1 -3.000000
153 2 885.534000 -2887.020000 474.294000 1 1.000000 1 -3.000000
154 2 894.269000 -2882.540000 475.181000 1 1.000000 1 -3.000000
155 2 902.401000 -2877.200000 474.530000 1 1.000000 1 -3.000000
156 2 909.239000 -2870.220000 475.331000 1 1.000000 7 -3.000000
157 1 890.165000 -2827.730000 468.280000 1 1.000000 7 0.000000
158 3 862.425000 -2847.640000 475.331000 1 1.000000 7 0.000000
159 2 854.033000 -2797.530000 464.901000 1 1.000000 7 -3.000000
160 2 847.963000 -2805.290000 463.813000 1 1.000000 1 -3.000000
161 2 845.101000 -2813.770000 459.582000 1 1.000000 1 -3.000000
162 2 844.194000 -2823.030000 456.500000 1 1.000000 1 -3.000000
163 2 843.123000 -2832.570000 454.035000 1 1.000000 1 -3.000000
164 2 843.498000 -2842.320000 456.321000 1 1.000000 1 -3.000000
165 2 844.655000 -2851.370000 460.135000 1 1.000000 1 -3.000000
166 2 842.704000 -2861.020000 460.451000 1 1.000000 1 -3.000000
167 2 845.392000 -2870.460000 458.724000 1 1.000000 1 -3.000000
168 2 846.547000 -2879.490000 454.921000 1 1.000000 1 -3.000000
169 2 847.373000 -2887.310000 448.878000 1 1.000000 1 -3.000000
170 2 849.119000 -2893.910000 441.804000 1 1.000000 1 -3.000000
171 2 850.353000 -2898.560000 433.182000 1 1.000000 1 -3.000000
172 2 848.181000 -2902.780000 424.435000 1 1.000000 1 -3.000000
173 2 845.590000 -2904.510000 415.045000 1 1.000000 1 -3.000000
174 2 844.946000 -2904.540000 405.206000 1 1.000000 1 -3.000000
175 2 841.995000 -2901.360000 396.232000 1 1.000000 1 -3.000000
176 2 840.584000 -2896.530000 387.696000 1 1.000000 1 -3.000000
177 2 840.387000 -2893.150000 378.242000 1 1.000000 1 -3.000000
178 2 840.489000 -2893.430000 368.427000 1 1.000000 1 -3.000000
179 2 839.759000 -2893.900000 358.618000 1 1.000000 1 -3.000000
180 2 837.334000 -2898.790000 350.306000 1 1.000000 1 -3.000000
181 2 837.620000 -2901.750000 340.957000 1 1.000000 1 -3.000000
182 2 839.610000 -2904.380000 331.597000 1 1.000000 1 -3.000000
183 2 836.330000 -2906.930000 322.553000 1 1.000000 8 -3.000000
184 1 789.568000 -2913.180000 324.063000 1 1.000000 8 0.000000
185 3 796.767000 -2899.110000 355.343000 1 1.000000 8 0.000000
186 2 746.971000 -2908.260000 343.624000 1 1.000000 8 -3.000000
187 2 751.706000 -2904.700000 351.392000 1 1.000000 1 -3.000000
188 2 755.667000 -2899.200000 358.655000 1 1.000000 1 -3.000000
189 2 757.519000 -2893.190000 366.397000 1 1.000000 1 -3.000000
190 2 758.132000 -2886.890000 374.147000 1 1.000000 1 -3.000000
191 2 758.292000 -2880.030000 381.122000 1 1.000000 1 -3.000000
192 2 757.030000 -2876.730000 390.353000 1 1.000000 1 -3.000000
193 2 756.983000 -2872.300000 399.160000 1 1.000000 1 -3.000000
194 2 757.012000 -2865.860000 406.624000 1 1.000000 1 -3.000000
195 2 756.985000 -2861.120000 415.411000 1 1.000000 1 -3.000000
196 2 758.471000 -2858.030000 424.744000 1 1.000000 1 -3.000000
197 2 763.475000 -2853.600000 432.100000 1 1.000000 1 -3.000000
198 2 767.611000 -2847.420000 438.687000 1 1.000000 1 -3.000000
199 2 771.736000 -2840.430000 444.317000 1 1.000000 1 -3.000000
200 2 772.958000 -2832.600000 450.336000 1 1.000000 1 -3.000000
201 2 774.322000 -2824.240000 455.540000 1 1.000000 1 -3.000000
202 2 776.747000 -2817.970000 462.726000 1 1.000000 1 -3.000000
203 2 779.802000 -2812.160000 470.114000 1 1.000000 1 -3.000000
204 2 786.296000 -2807.290000 475.624000 1 1.000000 1 -3.000000
205 2 794.150000 -2803.570000 480.561000 1 1.000000 1 -3.000000
206 2 798.980000 -2796.170000 485.059000 1 1.000000 1 -3.000000
207 2 795.676000 -2787.200000 487.426000 1 1.000000 1 -3.000000
208 2 791.124000 -2778.380000 488.072000 1 1.000000 1 -3.000000
209 2 789.059000 -2768.710000 488.001000 1 1.000000 1 -3.000000
210 2 784.106000 -2760.020000 488.664000 1 1.000000 9 -3.000000
211 1 805.379000 -2748.630000 448.017000 1 1.000000 9 0.000000
212 3 794.446000 -2781.420000 442.538000 1 1.000000 9 0.000000
213 2 817.853000 -2756.640000 403.341000 1 1.000000 9 -3.000000
214 2 809.380000 -2761.550000 402.318000 1 1.000000 1 -3.000000
215 2 800.260000 -2764.730000 400.192000 1 1.000000 1 -3.000000
216 2 792.395000 -2769.910000 397.137000 1 1.000000 1 -3.000000
217 2 785.147000 -2776.570000 396.032000 1 1.000000 1 -3.000000
218 2 776.511000 -2780.670000 398.304000 1 1.000000 1 -3.000000
219 2 767.660000 -2783.550000 401.620000 1 1.000000 1 -3.000000
220 2 759.308000 -2783.950000 407.106000 1 1.000000 1 -3.000000
221 2 751.890000 -2786.120000 413.179000 1 1.000000 1 -3.000000
222 2 743.649000 -2787.300000 418.435000 1 1.000000 1 -3.000000
223 2 734.409000 -2785.400000 421.413000 1 1.000000 1 -3.000000
224 2 725.043000 -2785.660000 424.491000 1 1.000000 1 -3.000000
225 2 716.592000 -2782.810000 429.041000 1 1.000000 1 -3.000000
226 2 706.890000 -2781.310000 430.728000 1 1.000000 1 -3.000000
227 2 697.275000 -2781.780000 432.920000 1 1.000000 1 -3.000000
228 2 687.809000 -2782.930000 435.704000 1 1.000000 1 -3.000000
229 2 679.557000 -2787.510000 438.542000 1 1.000000 1 -3.000000
230 2 670.526000 -2791.390000 440.627000 1 1.000000 1 -3.000000
231 2 662.828000 -2797.600000 441.514000 1 1.000000 1 -3.000000
232 2 653.684000 -2799.250000 445.154000 1 1.000000 1 -3.000000
233 2 645.578000 -2800.290000 450.744000 1 1.000000 1 -3.000000
234 2 637.966000 -2805.600000 454.535000 1 1.000000 1 -3.000000
235 2 631.452000 -2810.870000 459.719000 1 1.000000 1 -3.000000
236 2 623.537000 -2815.110000 463.934000 1 1.000000 1 -3.000000
237 2 616.006000 -2820.430000 467.647000 1 1.000000 10 -3.000000
238 1 599.318000 -2840.960000 428.559000 1 1.000000 10 0.000000
239 3 628.268000 -2824.780000 417.294000 1 1.000000 10 0.000000
240 2 602.256000 -2853.880000 383.227000 1 1.000000 10 -3.000000
241 2 611.850000 -2851.290000 382.698000 1 1.000000 1 -3.000000
242 2 621.353000 -2849.100000 380.601000 1 1.000000 1 -3.000000
243 2 630.725000 -2846.170000 379.946000 1 1.000000 1 -3.000000
244 2 640.521000 -2844.640000 379.275000 1 1.000000 1 -3.000000
245 2 650.539000 -2843.980000 378.965000 1 1.000000 1 -3.000000
246 2 659.930000 -2842.330000 376.873000 1 1.000000 1 -3.000000
247 2 668.627000 -2840.550000 372.587000 1 1.000000 1 -3.000000
248 2 676.782000 -2837.600000 367.605000 1 1.000000 1 -3.000000
249 2 685.143000 -2837.640000 362.090000 1 1.000000 1 -3.000000
250 2 693.875000 -2837.100000 357.453000 1 1.000000 1 -3.000000
251 2 702.000000 -2834.260000 352.561000 1 1.000000 1 -3.000000
252 2 706.218000 -2828.530000 345.508000 1 1.000000 1 -3.000000
253 2 710.766000 -2824.760000 337.646000 1 1.000000 1 -3.000000
254 2 716.395000 -2821.550000 330.229000 1 1.000000 1 -3.000000
255 2 722.509000 -2819.760000 322.555000 1 1.000000 1 -3.000000
256 2 728.456000 -2818.000000 314.803000 1 1.000000 1 -3.000000
257 2 733.178000 -2815.850000 306.347000 1 1.000000 1 -3.000000
258 2 737.105000 -2817.020000 297.187000 1 1.000000 1 -3.000000
259 2 741.902000 -2820.050000 289.113000 1 1.000000 1 -3.000000
260 2 748.587000 -2825.430000 284.188000 1 1.000000 1 -3.000000
261 2 752.679000 -2832.570000 278.677000 1 1.000000 1 -3.000000
262 2 755.369000 -2841.120000 274.497000 1 1.000000 1 -3.000000
263 2 757.914000 -2846.830000 266.831000 1 1.000000 1 -3.000000
264 2 760.523000 -2848.030000 257.457000 1 1.000000 11 -3.000000
265 1 719.009000 -2856.940000 236.890000 1 1.000000 11 0.000000
266 3 710.672000 -2834.340000 262.274000 1 1.000000 11 0.000000
267 2 671.936000 -2854.800000 234.313000 1 1.000000 11 -3.000000
268 2 672.109000 -2846.600000 239.780000 1 1.000000 1 -3.000000
269 2 673.825000 -2837.960000 244.351000 1 1.000000 1 -3.000000
270 2 676.983000 -2832.680000 252.141000 1 1.000000 1 -3.000000
271 2 681.173000 -2828.960000 260.176000 1 1.000000 1 -3.000000
272 2 683.603000 -2821.470000 266.253000 1 1.000000 1 -3.000000
273 2 687.306000 -2813.770000 271.471000 1 1.000000 1 -3.000000
274 2 688.544000 -2804.090000 273.416000 1 1.000000 1 -3.000000
275 2 692.028000 -2795.390000 276.559000 1 1.000000 1 -3.000000
276 2 697.897000 -2788.340000 280.231000 1 1.000000 1 -3.000000
277 2 702.862000 -2780.920000 284.687000 1 1.000000 1 -3.000000
278 2 706.739000 -2772.880000 289.014000 1 1.000000 1 -3.000000
279 2 713.986000 -2766.330000 291.167000 1 1.000000 1 -3.000000
280 2 720.518000 -2760.320000 295.690000 1 1.000000 1 -3.000000
281 2 729.056000 -2756.240000 298.298000 1 1.000000 1 -3.000000
282 2 738.292000 -2754.700000 301.245000 1 1.000000 1 -3.000000
283 2 747.106000 -2753.150000 305.538000 1 1.000000 1 -3.000000
284 2 755.647000 -2750.850000 309.940000 1 1.000000 1 -3.000000
285 2 765.067000 -2747.970000 311.063000 1 1.000000 1 -3.000000
286 2 772.199000 -2741.090000 310.894000 1 1.000000 1 -3.000000
287 2 778.752000 -2733.910000 312.665000 1 1.000000 1 -3.000000
288 2 786.288000 -2727.650000 311.827000 1 1.000000 1 -3.000000
289 2 794.073000 -2721.850000 309.921000 1 1.000000 1 -3.000000
290 2 799.234000 -2715.480000 304.474000 1 1.000000 1 -3.000000
291 2 803.780000 -2710.890000 296.912000 1 1.000000 12 -3.000000
292 1 781.646000 -2703.400000 255.913000 1 1.000000 12 0.000000
293 3 756.541000 -2717.390000 275.973000 1 1.000000 12 0.000000
294 2 744.070000 -2704.400000 227.422000 1 1.000000 12 -3.000000
295 2 739.345000 -2698.880000 234.299000 1 1.000000 1 -3.000000
296 2 735.490000 -2694.410000 242.121000 1 1.000000 1 -3.000000
297 2 731.054000 -2689.480000 249.445000 1 1.000000 1 -3.000000
298 2 725.522000 -2687.100000 257.260000 1 1.000000 1 -3.000000
299 2 721.887000 -2685.130000 266.172000 1 1.000000 1 -3.000000
300 2 716.531000 -2679.950000 272.805000 1 1.000000 1 -3.000000
301 2 712.467000 -2674.660000 280.224000 1 1.000000 1 -3.000000
302 2 706.921000 -2669.260000 286.382000 1 1.000000 1 -3.000000
303 2 698.034000 -2667.390000 290.662000 1 1.000000 1 -3.000000
304 2 690.063000 -2666.580000 296.518000 1 1.000000 1 -3.000000
305 2 682.096000 -2668.070000 302.523000 1 1.000000 1 -3.000000
306 2 674.861000 -2668.600000 309.212000 1 1.000000 1 -3.000000
307 2 667.434000 -2667.810000 315.652000 1 1.000000 1 -3.000000
308 2 660.150000 -2663.110000 320.081000 1 1.000000 1 -3.000000
309 2 652.728000 -2659.020000 325.046000 1 1.000000 1 -3.000000
310 2 646.698000 -2653.320000 330.287000 1 1.000000 1 -3.000000
311 2 640.474000 -2647.270000 334.904000 1 1.000000 1 -3.000000
312 2 632.377000 -2641.820000 336.664000 1 1.000000 1 -3.000000
313 2 624.079000 -2636.980000 334.589000 1 1.000000 1 -3.000000
314 2 615.568000 -2632.210000 333.510000 1 1.000000 1 -3.000000
315 2 606.674000 -2628.850000 330.485000 1 1.000000 1 -3.000000
316 2 598.836000 -2629.800000 324.612000 1 1.000000 1 -3.000000
317 2 591.812000 -2630.120000 317.569000 1 1.000000 1 -3.000000
318 2 584.461000 -2632.040000 311.043000 1 1.000000 13 -3.000000
319 1 583.758000 -2679.120000 306.703000 1 1.000000 13 0.000000
320 3 599.438000 -2674.060000 337.718000 1 1.000000 13 0.000000
321 2 589.147000 -2722.900000 323.343000 1 1.000000 13 -3.000000
322 2 591.993000 -2719.070000 331.918000 1 1.000000 1 -3.000000
323 2 590.803000 -2715.900000 341.378000 1 1.000000 1 -3.000000
324 2 589.342000 -2714.780000 351.066000 1 1.000000 1 -3.000000
325 2 590.449000 -2711.000000 360.172000 1 1.000000 1 -3.000000
326 2 593.258000 -2705.810000 368.111000 1 1.000000 1 -3.000000
327 2 598.900000 -2700.720000 374.451000 1 1.000000 1 -3.000000
328 2 602.042000 -2696.260000 382.757000 1 1.000000 1 -3.000000
329 2 604.291000 -2694.490000 392.166000 1 1.000000 1 -3.000000
330 2 606.487000 -2691.540000 401.183000 1 1.000000 1 -3.000000
331 2 612.472000 -2688.320000 408.391000 1 1.000000 1 -3.000000
332 2 614.486000 -2684.690000 417.568000 1 1.000000 1 -3.000000
333 2 616.520000 -2682.160000 426.994000 1 1.000000 1 -3.000000
334 2 621.888000 -2677.720000 433.979000 1 1.000000 1 -3.000000
335 2 629.256000 -2673.850000 439.232000 1 1.000000 1 -3.000000
336 2 637.466000 -2669.770000 443.165000 1 1.000000 1 -3.000000
337 2 644.156000 -2664.030000 447.789000 1 1.000000 1 -3.000000
338 2 650.929000 -2658.370000 452.343000 1 1.000000 1 -3.000000
339 2 658.135000 -2652.370000 455.863000 1 1.000000 1 -3.000000
340 2 665.753000 -2646.830000 458.904000 1 1.000000 1 -3.000000
341 2 672.926000 -2640.150000 460.006000 1 1.000000 1 -3.000000
342 2 679.537000 -2632.970000 460.437000 1 1.000000 1 -3.000000
343 2 685.828000 -2625.290000 460.304000 1 1.000000 1 -3.000000
344 2 694.261000 -2620.160000 461.678000 1 1.000000 1 -3.000000
345 2 702.359000 -2615.270000 465.002000 1 1.000000 14 -3.000000
346 1 677.927000 -2586.290000 493.033000 1 1.000000 14 0.000000
347 3 654.102000 -2609.850000 483.231000 1 1.000000 14 0.000000
348 2 639.359000 -2572.940000 516.595000 1 1.000000 14 -3.000000
349 2 634.023000 -2580.270000 512.670000 1 1.000000 1 -3.000000
350 2 627.532000 -2587.170000 509.610000 1 1.000000 1 -3.000000
351 2 618.891000 -2589.630000 505.547000 1 1.000000 1 -3.000000
352 2 613.757000 -2595.020000 498.923000 1 1.000000 1 -3.000000
353 2 609.067000 -2602.680000 494.732000 1 1.000000 1 -3.000000
354 2 601.733000 -2607.720000 490.334000 1 1.000000 1 -3.000000
355 2 595.288000 -2612.760000 484.787000 1 1.000000 1 -3.000000
356 2 592.311000 -2617.170000 476.504000 1 1.000000 1 -3.000000
357 2 585.413000 -2620.410000 470.121000 1 1.000000 1 -3.000000
358 2 578.657000 -2624.950000 464.403000 1 1.000000 1 -3.000000
359 2 570.934000 -2628.980000 459.748000 1 1.000000 1 -3.000000
360 2 563.257000 -2631.520000 454.023000 1 1.000000 1 -3.000000
361 2 555.838000 -2635.250000 448.513000 1 1.000000 1 -3.000000
362 2 547.826000 -2638.840000 443.840000 1 1.000000 1 -3.000000
363 2 540.072000 -2643.910000 440.618000 1 1.000000 1 -3.000000
364 2 532.088000 -2648.900000 437.663000 1 1.000000 1 -3.000000
365 2 524.348000 -2653.440000 433.559000 1 1.000000 1 -3.000000
366 2 517.579000 -2656.470000 426.809000 1 1.000000 1 -3.000000
367 2 508.587000 -2660.450000 425.412000 1 1.000000 1 -3.000000
368 2 500.217000 -2665.800000 424.539000 1 1.000000 1 -3.000000
369 2 490.711000 -2668.680000 422.861000 1 1.000000 1 -3.000000
370 2 481.760000 -2671.070000 419.235000 1 1.000000 1 -3.000000
371 2 473.627000 -2674.670000 414.941000 1 1.000000 1 -3.000000
372 2 465.997000 -2680.680000 413.010000 1 1.000000 15 -3.000000
373 1 440.956000 -2649.290000 437.726000 1 1.000000 15 0.000000
374 3 471.188000 -2632.380000 431.533000 1 1.000000 15 0.000000
375 2 435.172000 -2608.060000 459.999000 1 1.000000 15 -3.000000
376 2 444.954000 -2607.870000 459.446000 1 1.000000 1 -3.000000
377 2 454.306000 -2606.170000 461.917000 1 1.000000 1 -3.000000
378 2 462.737000 -2604.090000 466.770000 1 1.000000 1 -3.000000
379 2 469.911000 -2599.840000 472.013000 1 1.000000 1 -3.000000
380 2 477.067000 -2596.680000 478.164000 1 1.000000 1 -3.000000
381 2 483.114000 -2594.000000 485.682000 1 1.000000 1 -3.000000
382 2 488.488000 -2593.760000 493.841000 1 1.000000 1 -3.000000
383 2 493.245000 -2592.830000 502.417000 1 1.000000 1 -3.000000
384 2 497.842000 -2591.970000 511.255000 1 1.000000 1 -3.000000
385 2 499.550000 -2589.520000 520.744000 1 1.000000 1 -3.000000
386 2 503.241000 -2586.740000 529.575000 1 1.000000 1 -3.000000
387 2 505.296000 -2586.600000 539.204000 1 1.000000 1 -3.000000
388 2 508.773000 -2588.290000 548.368000 1 1.000000 1 -3.000000
389 2 510.734000 -2590.490000 557.685000 1 1.000000 1 -3.000000
390 2 511.823000 -2592.120000 567.339000 1 1.000000 1 -3.000000
391 2 515.932000 -2595.950000 575.500000 1 1.000000 1 -3.000000
392 2 516.440000 -2597.000000 585.301000 1 1.000000 1 -3.000000
393 2 517.316000 -2593.460000 594.499000 1 1.000000 1 -3.000000
394 2 513.445000 -2589.160000 602.579000 1 1.000000 1 -3.000000
395 2 510.592000 -2585.590000 611.433000 1 1.000000 1 -3.000000
396 2 510.550000 -2585.590000 621.301000 1 1.000000 1 -3.000000
397 2 511.938000 -2585.460000 631.089000 1 1.000000 1 -3.000000
398 2 510.563000 -2588.400000 640.432000 1 1.000000 1 -3.000000
399 2 508.662000 -2589.710000 650.079000 1 1.000000 16 -3.000000
400 1 516.345000 -2546.210000 666.817000 1 1.000000 16 0.000000
401 3 539.889000 -2549.310000 641.178000 1 1.000000 16 0.000000
402 2 539.683000 -2505.300000 668.743000 1 1.000000 16 -3.000000
403 2 543.255000 -2505.570000 659.407000 1 1.000000 1 -3.000000
404 2 547.103000 -2508.510000 650.790000 1 1.000000 1 -3.000000
405 2 550.200000 -2507.700000 641.306000 1 1.000000 1 -3.000000
406 2 552.853000 -2508.320000 631.769000 1 1.000000 1 -3.000000
407 2 552.705000 -2507.430000 621.877000 1 1.000000 1 -3.000000
408 2 552.593000 -2506.720000 612.132000 1 1.000000 1 -3.000000
409 2 553.469000 -2504.720000 602.497000 1 1.000000 1 -3.000000
410 2 554.500000 -2499.980000 593.956000 1 1.000000 1 -3.000000
411 2 556.214000 -2494.210000 586.037000 1 1.000000 1 -3.000000
412 2 555.039000 -2485.980000 580.799000 1 1.000000 1 -3.000000
413 2 551.258000 -2477.900000 576.536000 1 1.000000 1 -3.000000
414 2 547.415000 -2471.450000 570.020000 1 1.000000 1 -3.000000
415 2 544.824000 -2468.730000 560.926000 1 1.000000 1 -3.000000
416 2 541.794000 -2467.130000 551.572000 1 1.000000 1 -3.000000
417 2 535.711000 -2465.500000 543.848000 1 1.000000 1 -3.000000
418 2 530.732000 -2466.230000 535.417000 1 1.000000 1 -3.000000
419 2 524.515000 -2467.320000 527.905000 1 1.000000 1 -3.000000
420 2 519.378000 -2467.700000 519.431000 1 1.000000 1 -3.000000
421 2 522.383000 -2465.870000 510.121000 1 1.000000 1 -3.000000
422 2 524.466000 -2464.940000 500.459000 1 1.000000 1 -3.000000
423 2 523.232000 -2464.870000 490.659000 1 1.000000 1 -3.000000
424 2 522.460000 -2465.470000 480.909000 1 1.000000 1 -3.000000
425 2 521.966000 -2467.880000 471.361000 1 1.000000 1 -3.000000
426 2 521.842000 -2470.730000 461.956000 1 1.000000 17 -3.000000
427 1 486.354000 -2444.750000 445.174000 1 1.000000 17 0.000000
428 3 485.880000 -2437.630000 479.411000 1 1.000000 17 0.000000
429 2 448.487000 -2416.820000 449.950000 1 1.000000 17 -3.000000
430 2 454.579000 -2418.640000 457.629000 1 1.000000 1 -3.000000
431 2 461.764000 -2420.950000 464.028000 1 1.000000 1 -3.000000
432 2 465.955000 -2423.640000 472.538000 1 1.000000 1 -3.000000
433 2 468.964000 -2424.300000 481.895000 1 1.000000 1 -3.000000
434 2 468.415000 -2425.460000 491.669000 1 1.000000 1 -3.000000
435 2 467.880000 -2428.500000 501.171000 1 1.000000 1 -3.000000
436 2 469.067000 -2430.700000 510.752000 1 1.000000 1 -3.000000
437 2 470.818000 -2431.870000 520.434000 1 1.000000 1 -3.000000
438 2 476.256000 -2431.900000 528.741000 1 1.000000 1 -3.000000
439 2 480.487000 -2429.970000 537.425000 1 1.000000 1 -3.000000
440 2 485.070000 -2424.800000 544.608000 1 1.000000 1 -3.000000
441 2 490.752000 -2417.390000 548.079000 1 1.000000 1 -3.000000
442 2 497.149000 -2410.830000 551.850000 1 1.000000 1 -3.000000
443 2 505.450000 -2408.670000 556.755000 1 1.000000 1 -3.000000
444 2 514.211000 -2408.440000 561.291000 1 1.000000 1 -3.000000
445 2 522.920000 -2404.180000 563.719000 1 1.000000 1 -3.000000
446 2 532.110000 -2400.530000 562.991000 1 1.000000 1 -3.000000
447 2 541.118000 -2396.840000 560.804000 1 1.000000 1 -3.000000
448 2 550.305000 -2394.050000 558.253000 1 1.000000 1 -3.000000
449 2 559.046000 -2389.850000 556.051000 1 1.000000 1 -3.000000
450 2 568.770000 -2388.630000 554.812000 1 1.000000 1 -3.000000
451 2 578.472000 -2386.600000 554.792000 1 1.000000 1 -3.000000
452 2 588.352000 -2387.330000 556.298000 1 1.000000 1 -3.000000
453 2 597.931000 -2385.500000 557.602000 1 1.000000 18 -3.000000
454 1 612.734000 -2357.780000 522.334000 1 1.000000 18 0.000000
455 3 580.082000 -2346.890000 527.983000 1 1.000000 18 0.000000
456 2 606.878000 -2324.350000 489.555000 1 1.000000 18 -3.000000
457 2 597.932000 -2328.230000 488.513000 1 1.000000 1 -3.000000
458 2 588.540000 -2330.240000 486.020000 1 1.000000 1 -3.000000
459 2 578.640000 -2330.960000 486.007000 1 1.000000 1 -3.000000
460 2 568.936000 -2330.560000 487.310000 1 1.000000 1 -3.000000
461 2 559.010000 -2331.220000 488.252000 1 1.000000 1 -3.000000
462 2 550.048000 -2327.160000 488.203000 1 1.000000 1 -3.000000
463 2 540.221000 -2326.530000 488.590000 1 1.000000 1 -3.000000
464 2 530.436000 -2325.760000 490.121000 1 1.000000 1 -3.000000
465 2 520.723000 -2326.070000 490.122000 1 1.000000 1 -3.000000