LAMMPS data file

4067 atoms
4067 ellipsoids
4516 bonds
8882 angles
0 dihedrals

3 atom types
5 bond types
12 angle types
0 dihedral types

-4631.092947 4670.465898 xlo xhi
-4631.092947 4670.465898 ylo yhi
-4631.092947 4670.465898 zlo zhi

Masses

1 196016.000000
2 1950.000000
3 19500.000000

Atoms

1 2 367.553000 -2872.850000 325.890000 1 1.000000 1 -3.000000
2 2 376.792000 -2871.070000 328.899000 1 1.000000 1 -3.000000
3 2 385.794000 -2868.540000 332.049000 1 1.000000 1 -3.000000
4 2 392.780000 -2865.510000 338.259000 1 1.000000 1 -3.000000
5 2 398.613000 -2859.940000 343.985000 1 1.000000 1 -3.000000
6 2 403.476000 -2853.380000 349.510000 1 1.000000 1 -3.000000
7 2 411.951000 -2849.230000 352.511000 1 1.000000 1 -3.000000
8 2 421.803000 -2848.980000 352.888000 1 1.000000 1 -3.000000
9 2 431.726000 -2849.190000 352.455000 1 1.000000 1 -3.000000
10 2 441.084000 -2846.040000 353.210000 1 1.000000 1 -3.000000
11 2 450.818000 -2845.080000 351.943000 1 1.000000 1 -3.000000
12 2 460.062000 -2841.740000 353.337000 1 1.000000 1 -3.000000
13 2 469.122000 -2837.600000 352.719000 1 1.000000 1 -3.000000
14 2 477.753000 -2832.750000 352.940000 1 1.000000 1 -3.000000
15 2 486.113000 -2828.500000 356.223000 1 1.000000 1 -3.000000
16 2 491.914000 -2820.460000 357.108000 1 1.000000 1 -3.000000
17 2 494.502000 -2811.890000 361.402000 1 1.000000 1 -3.000000
18 2 498.933000 -2806.250000 368.100000 1 1.000000 1 -3.000000
19 2 502.864000 -2798.490000 372.916000 1 1.000000 1 -3.000000
20 2 507.430000 -2790.570000 376.826000 1 1.000000 1 -3.000000
21 2 514.868000 -2786.000000 381.495000 1 1.000000 2 -3.000000
22 1 519.706000 -2811.340000 421.043000 1 1.000000 2 0.000000
23 3 506.856000 -2834.540000 398.193000 1 1.000000 2 0.000000
24 2 517.200000 -2851.080000 446.311000 1 1.000000 2 -3.000000
25 2 518.302000 -2858.660000 440.126000 1 1.000000 1 -3.000000
26 2 519.685000 -2865.900000 433.537000 1 1.000000 1 -3.000000
27 2 519.138000 -2872.080000 425.847000 1 1.000000 1 -3.000000
28 2 515.782000 -2878.760000 419.408000 1 1.000000 1 -3.000000
29 2 515.556000 -2884.770000 411.506000 1 1.000000 1 -3.000000
30 2 514.796000 -2890.290000 403.512000 1 1.000000 1 -3.000000
31 2 514.355000 -2896.060000 395.543000 1 1.000000 1 -3.000000
32 2 512.774000 -2900.790000 386.897000 1 1.000000 1 -3.000000
33 2 510.255000 -2906.940000 379.535000 1 1.000000 1 -3.000000
34 2 511.524000 -2909.370000 369.995000 1 1.000000 1 -3.000000
35 2 514.176000 -2913.820000 361.562000 1 1.000000 1 -3.000000
36 2 513.730000 -2921.440000 355.218000 1 1.000000 1 -3.000000
37 2 510.356000 -2928.950000 349.672000 1 1.000000 1 -3.000000
38 2 504.473000 -2935.700000 345.691000 1 1.000000 1 -3.000000
39 2 499.473000 -2941.010000 339.012000 1 1.000000 1 -3.000000
40 2 494.029000 -2943.850000 331.183000 1 1.000000 1 -3.000000
41 2 491.730000 -2948.670000 322.974000 1 1.000000 1 -3.000000
42 2 491.740000 -2952.850000 314.030000 1 1.000000 1 -3.000000
43 2 488.646000 -2952.390000 304.717000 1 1.000000 1 -3.000000
44 2 488.557000 -2954.960000 295.128000 1 1.000000 1 -3.000000
45 2 486.358000 -2957.230000 285.766000 1 1.000000 1 -3.000000
46 2 486.130000 -2958.470000 275.840000 1 1.000000 1 -3.000000
47 2 488.098000 -2959.790000 266.100000 1 1.000000 1 -3.000000
48 2 489.387000 -2959.980000 256.206000 1 1.000000 3 -3.000000
49 1 535.959000 -2952.360000 256.467000 1 1.000000 3 0.000000
50 3 527.798000 -2953.620000 290.511000 1 1.000000 3 0.000000
51 2 577.300000 -2944.640000 277.706000 1 1.000000 3 -3.000000
52 2 573.796000 -2944.370000 286.915000 1 1.000000 1 -3.000000
53 2 570.039000 -2944.610000 296.107000 1 1.000000 1 -3.000000
54 2 564.372000 -2946.300000 304.051000 1 1.000000 1 -3.000000
55 2 559.194000 -2946.300000 312.436000 1 1.000000 1 -3.000000
56 2 554.923000 -2946.810000 321.405000 1 1.000000 1 -3.000000
57 2 549.918000 -2947.400000 329.870000 1 1.000000 1 -3.000000
58 2 546.845000 -2947.540000 339.339000 1 1.000000 1 -3.000000
59 2 544.726000 -2948.640000 348.893000 1 1.000000 1 -3.000000
60 2 542.454000 -2951.830000 357.963000 1 1.000000 1 -3.000000
61 2 542.720000 -2957.180000 366.350000 1 1.000000 1 -3.000000
62 2 545.605000 -2962.000000 374.435000 1 1.000000 1 -3.000000
63 2 549.666000 -2967.580000 381.458000 1 1.000000 1 -3.000000
64 2 555.036000 -2971.670000 388.690000 1 1.000000 1 -3.000000
65 2 560.511000 -2978.130000 393.910000 1 1.000000 1 -3.000000
66 2 561.911000 -2985.970000 399.741000 1 1.000000 1 -3.000000
67 2 565.117000 -2993.620000 405.258000 1 1.000000 1 -3.000000
68 2 562.339000 -3001.350000 410.890000 1 1.000000 1 -3.000000
69 2 560.399000 -3010.110000 415.185000 1 1.000000 1 -3.000000
70 2 558.734000 -3019.810000 415.260000 1 1.000000 1 -3.000000
71 2 556.905000 -3028.990000 412.022000 1 1.000000 1 -3.000000
72 2 553.912000 -3037.850000 408.771000 1 1.000000 1 -3.000000
73 2 553.439000 -3047.240000 405.614000 1 1.000000 1 -3.000000
74 2 554.116000 -3055.650000 400.501000 1 1.000000 1 -3.000000
75 2 552.211000 -3063.360000 394.400000 1 1.000000 4 -3.000000
76 1 550.484000 -3043.520000 351.689000 1 1.000000 4 0.000000
77 3 570.211000 -3021.170000 370.003000 1 1.000000 4 0.000000
78 2 561.254000 -3010.290000 320.011000 1 1.000000 4 -3.000000
79 2 563.000000 -3004.240000 327.775000 1 1.000000 1 -3.000000
80 2 568.504000 -3000.350000 335.114000 1 1.000000 1 -3.000000
81 2 574.796000 -2994.590000 339.980000 1 1.000000 1 -3.000000
82 2 581.698000 -2988.550000 343.549000 1 1.000000 1 -3.000000
83 2 588.164000 -2985.180000 350.254000 1 1.000000 1 -3.000000
84 2 593.649000 -2983.530000 358.504000 1 1.000000 1 -3.000000
85 2 598.504000 -2982.530000 367.149000 1 1.000000 1 -3.000000
86 2 604.276000 -2981.890000 375.261000 1 1.000000 1 -3.000000
87 2 611.394000 -2984.610000 381.565000 1 1.000000 1 -3.000000
88 2 617.512000 -2981.750000 388.843000 1 1.000000 1 -3.000000
89 2 621.808000 -2980.200000 397.625000 1 1.000000 1 -3.000000
90 2 627.097000 -2982.940000 405.519000 1 1.000000 1 -3.000000
91 2 635.760000 -2984.160000 409.975000 1 1.000000 1 -3.000000
92 2 644.363000 -2981.750000 414.112000 1 1.000000 1 -3.000000
93 2 652.241000 -2978.930000 419.344000 1 1.000000 1 -3.000000
94 2 661.107000 -2976.390000 423.033000 1 1.000000 1 -3.000000
95 2 669.170000 -2976.640000 428.697000 1 1.000000 1 -3.000000
96 2 676.852000 -2975.330000 434.656000 1 1.000000 1 -3.000000
97 2 682.848000 -2971.860000 441.681000 1 1.000000 1 -3.000000
98 2 690.211000 -2969.140000 447.579000 1 1.000000 1 -3.000000
99 2 697.197000 -2966.870000 454.295000 1 1.000000 1 -3.000000
100 2 705.492000 -2968.290000 459.403000 1 1.000000 1 -3.000000
101 2 712.586000 -2971.950000 465.394000 1 1.000000 1 -3.000000
102 2 721.145000 -2973.950000 469.928000 1 1.000000 5 -3.000000
103 1 715.070000 -3019.990000 478.657000 1 1.000000 5 0.000000
104 3 692.314000 -3013.820000 452.792000 1 1.000000 5 0.000000
105 2 692.123000 -3060.950000 474.290000 1 1.000000 5 -3.000000
106 2 687.191000 -3059.640000 465.910000 1 1.000000 1 -3.000000
107 2 682.639000 -3060.020000 457.002000 1 1.000000 1 -3.000000
108 2 678.693000 -3058.360000 448.003000 1 1.000000 1 -3.000000
109 2 676.415000 -3053.840000 439.380000 1 1.000000 1 -3.000000
110 2 675.517000 -3048.220000 431.270000 1 1.000000 1 -3.000000
111 2 675.604000 -3043.180000 422.725000 1 1.000000 1 -3.000000
112 2 673.532000 -3039.210000 413.802000 1 1.000000 1 -3.000000
113 2 674.280000 -3034.790000 404.952000 1 1.000000 1 -3.000000
114 2 674.572000 -3034.100000 395.105000 1 1.000000 1 -3.000000
115 2 675.918000 -3031.490000 385.625000 1 1.000000 1 -3.000000
116 2 678.004000 -3026.010000 377.637000 1 1.000000 1 -3.000000
117 2 678.095000 -3019.630000 369.878000 1 1.000000 1 -3.000000
118 2 680.251000 -3012.350000 363.442000 1 1.000000 1 -3.000000
119 2 683.769000 -3004.720000 358.086000 1 1.000000 1 -3.000000
120 2 683.845000 -2996.980000 352.046000 1 1.000000 1 -3.000000
121 2 683.062000 -2987.820000 348.431000 1 1.000000 1 -3.000000
122 2 681.568000 -2978.010000 347.801000 1 1.000000 1 -3.000000
123 2 683.503000 -2968.280000 347.177000 1 1.000000 1 -3.000000
124 2 688.234000 -2959.530000 347.068000 1 1.000000 1 -3.000000
125 2 694.990000 -2952.410000 345.013000 1 1.000000 1 -3.000000
126 2 702.535000 -2945.910000 345.418000 1 1.000000 1 -3.000000
127 2 707.758000 -2938.230000 342.117000 1 1.000000 1 -3.000000
128 2 711.519000 -2929.140000 341.599000 1 1.000000 1 -3.000000
129 2 715.008000 -2920.120000 339.334000 1 1.000000 6 -3.000000
130 1 751.372000 -2924.720000 369.110000 1 1.000000 6 0.000000
131 3 741.423000 -2957.870000 363.462000 1 1.000000 6 0.000000
132 2 782.171000 -2949.750000 394.621000 1 1.000000 6 -3.000000
133 2 779.894000 -2958.990000 397.183000 1 1.000000 1 -3.000000
134 2 779.690000 -2968.250000 400.903000 1 1.000000 1 -3.000000
135 2 779.314000 -2977.260000 405.175000 1 1.000000 1 -3.000000
136 2 777.570000 -2986.690000 407.820000 1 1.000000 1 -3.000000
137 2 774.663000 -2996.050000 409.237000 1 1.000000 1 -3.000000
138 2 772.298000 -3005.370000 407.259000 1 1.000000 1 -3.000000
139 2 769.412000 -3013.810000 402.973000 1 1.000000 1 -3.000000
140 2 764.732000 -3021.300000 398.414000 1 1.000000 1 -3.000000
141 2 762.405000 -3024.170000 389.159000 1 1.000000 1 -3.000000
142 2 758.606000 -3028.070000 380.838000 1 1.000000 1 -3.000000
143 2 755.802000 -3031.520000 371.762000 1 1.000000 1 -3.000000
144 2 751.762000 -3035.840000 363.737000 1 1.000000 1 -3.000000
145 2 749.710000 -3040.300000 355.177000 1 1.000000 1 -3.000000
146 2 746.583000 -3043.490000 346.268000 1 1.000000 1 -3.000000
147 2 744.288000 -3047.550000 337.398000 1 1.000000 1 -3.000000
148 2 742.771000 -3048.420000 327.606000 1 1.000000 1 -3.000000
149 2 741.548000 -3047.580000 317.835000 1 1.000000 1 -3.000000
150 2 738.576000 -3044.810000 308.706000 1 1.000000 1 -3.000000
151 2 734.674000 -3046.310000 299.594000 1 1.000000 1 -3.000000
152 2 732.427000 -3048.270000 290.169000 1 1.000000 1 -3.000000
153 2 729.033000 -3048.340000 280.748000 1 1.000000 1 -3.000000
154 2 726.501000 -3048.330000 271.184000 1 1.000000 1 -3.000000
155 2 720.052000 -3048.610000 263.523000 1 1.000000 1 -3.000000
156 2 711.293000 -3048.310000 259.064000 1 1.000000 7 -3.000000
157 1 694.797000 -3006.100000 272.405000 1 1.000000 7 0.000000
158 3 729.100000 -3003.660000 278.571000 1 1.000000 7 0.000000
159 2 699.062000 -2963.910000 293.184000 1 1.000000 7 -3.000000
160 2 707.835000 -2968.200000 295.023000 1 1.000000 1 -3.000000
161 2 717.694000 -2967.200000 295.435000 1 1.000000 1 -3.000000
162 2 726.991000 -2963.620000 294.969000 1 1.000000 1 -3.000000
163 2 736.294000 -2960.780000 293.281000 1 1.000000 1 -3.000000
164 2 745.469000 -2957.190000 294.343000 1 1.000000 1 -3.000000
165 2 754.100000 -2952.780000 296.081000 1 1.000000 1 -3.000000
166 2 761.550000 -2947.370000 299.660000 1 1.000000 1 -3.000000
167 2 766.418000 -2942.990000 307.083000 1 1.000000 1 -3.000000
168 2 771.416000 -2935.820000 311.593000 1 1.000000 1 -3.000000
169 2 777.065000 -2930.490000 317.800000 1 1.000000 1 -3.000000
170 2 782.742000 -2925.320000 324.087000 1 1.000000 1 -3.000000
171 2 790.559000 -2920.720000 327.808000 1 1.000000 1 -3.000000
172 2 797.033000 -2913.690000 330.156000 1 1.000000 1 -3.000000
173 2 803.609000 -2906.320000 330.072000 1 1.000000 1 -3.000000
174 2 811.085000 -2899.680000 329.964000 1 1.000000 1 -3.000000
175 2 819.056000 -2894.040000 328.602000 1 1.000000 1 -3.000000
176 2 826.056000 -2887.370000 327.274000 1 1.000000 1 -3.000000
177 2 833.222000 -2881.160000 324.538000 1 1.000000 1 -3.000000
178 2 840.328000 -2876.980000 319.082000 1 1.000000 1 -3.000000
179 2 848.590000 -2873.200000 315.201000 1 1.000000 1 -3.000000
180 2 857.514000 -2871.610000 311.102000 1 1.000000 1 -3.000000
181 2 866.858000 -2874.070000 309.508000 1 1.000000 1 -3.000000
182 2 875.396000 -2878.910000 308.785000 1 1.000000 1 -3.000000
183 2 884.206000 -2883.460000 308.595000 1 1.000000 8 -3.000000
184 1 900.264000 -2868.670000 350.397000 1 1.000000 8 0.000000
185 3 866.740000 -2876.260000 357.078000 1 1.000000 8 0.000000
186 2 895.578000 -2858.090000 396.098000 1 1.000000 8 -3.000000
187 2 886.416000 -2861.780000 394.922000 1 1.000000 1 -3.000000
188 2 877.555000 -2865.640000 397.300000 1 1.000000 1 -3.000000
189 2 867.899000 -2867.590000 398.436000 1 1.000000 1 -3.000000
190 2 858.574000 -2870.530000 399.834000 1 1.000000 1 -3.000000
191 2 849.750000 -2874.450000 401.604000 1 1.000000 1 -3.000000
192 2 840.490000 -2877.530000 402.879000 1 1.000000 1 -3.000000
193 2 831.317000 -2876.890000 406.393000 1 1.000000 1 -3.000000
194 2 822.196000 -2875.670000 410.326000 1 1.000000 1 -3.000000
195 2 813.968000 -2875.640000 415.859000 1 1.000000 1 -3.000000
196 2 807.387000 -2869.520000 420.019000 1 1.000000 1 -3.000000
197 2 802.548000 -2863.860000 426.372000 1 1.000000 1 -3.000000
198 2 796.563000 -2857.330000 430.794000 1 1.000000 1 -3.000000
199 2 792.283000 -2850.530000 436.376000 1 1.000000 1 -3.000000
200 2 790.560000 -2842.590000 441.882000 1 1.000000 1 -3.000000
201 2 788.623000 -2835.550000 448.443000 1 1.000000 1 -3.000000
202 2 786.587000 -2829.820000 456.346000 1 1.000000 1 -3.000000
203 2 784.402000 -2824.890000 464.601000 1 1.000000 1 -3.000000
204 2 782.660000 -2819.300000 472.550000 1 1.000000 1 -3.000000
205 2 779.174000 -2812.340000 478.760000 1 1.000000 1 -3.000000
206 2 778.038000 -2808.400000 487.746000 1 1.000000 1 -3.000000
207 2 773.517000 -2805.120000 496.018000 1 1.000000 1 -3.000000
208 2 768.217000 -2801.740000 503.721000 1 1.000000 1 -3.000000
209 2 765.309000 -2797.590000 512.244000 1 1.000000 1 -3.000000
210 2 757.774000 -2792.490000 516.400000 1 1.000000 9 -3.000000
211 1 721.726000 -2784.980000 486.899000 1 1.000000 9 0.000000
212 3 733.374000 -2816.420000 477.374000 1 1.000000 9 0.000000
213 2 691.422000 -2798.060000 453.159000 1 1.000000 9 -3.000000
214 2 697.394000 -2801.910000 446.267000 1 1.000000 1 -3.000000
215 2 705.540000 -2806.630000 443.311000 1 1.000000 1 -3.000000
216 2 713.295000 -2811.410000 439.544000 1 1.000000 1 -3.000000
217 2 722.966000 -2812.020000 437.575000 1 1.000000 1 -3.000000
218 2 731.508000 -2814.930000 433.346000 1 1.000000 1 -3.000000
219 2 741.300000 -2816.490000 431.854000 1 1.000000 1 -3.000000
220 2 750.524000 -2816.900000 428.429000 1 1.000000 1 -3.000000
221 2 759.531000 -2817.920000 424.358000 1 1.000000 1 -3.000000
222 2 767.434000 -2819.350000 418.441000 1 1.000000 1 -3.000000
223 2 775.640000 -2815.290000 414.672000 1 1.000000 1 -3.000000
224 2 784.303000 -2812.300000 411.031000 1 1.000000 1 -3.000000
225 2 793.639000 -2808.960000 409.487000 1 1.000000 1 -3.000000
226 2 802.087000 -2804.080000 408.439000 1 1.000000 1 -3.000000
227 2 809.108000 -2797.170000 409.313000 1 1.000000 1 -3.000000
228 2 817.404000 -2791.780000 409.596000 1 1.000000 1 -3.000000
229 2 823.603000 -2784.150000 409.177000 1 1.000000 1 -3.000000
230 2 831.942000 -2778.810000 408.742000 1 1.000000 1 -3.000000
231 2 840.249000 -2773.370000 408.124000 1 1.000000 1 -3.000000
232 2 847.104000 -2766.240000 408.012000 1 1.000000 1 -3.000000
233 2 851.057000 -2757.850000 404.610000 1 1.000000 1 -3.000000
234 2 851.890000 -2748.170000 403.765000 1 1.000000 1 -3.000000
235 2 855.371000 -2738.760000 403.550000 1 1.000000 1 -3.000000
236 2 860.669000 -2731.180000 400.125000 1 1.000000 1 -3.000000
237 2 868.225000 -2725.590000 397.171000 1 1.000000 10 -3.000000
238 1 847.799000 -2688.230000 417.652000 1 1.000000 10 0.000000
239 3 831.274000 -2715.430000 432.502000 1 1.000000 10 0.000000
240 2 815.317000 -2667.740000 445.109000 1 1.000000 10 -3.000000
241 2 814.597000 -2673.300000 453.231000 1 1.000000 1 -3.000000
242 2 814.798000 -2678.690000 461.462000 1 1.000000 1 -3.000000
243 2 816.329000 -2686.790000 466.992000 1 1.000000 1 -3.000000
244 2 815.774000 -2696.060000 470.324000 1 1.000000 1 -3.000000
245 2 814.838000 -2705.970000 470.008000 1 1.000000 1 -3.000000
246 2 810.958000 -2715.010000 470.017000 1 1.000000 1 -3.000000
247 2 806.330000 -2723.720000 470.375000 1 1.000000 1 -3.000000
248 2 802.661000 -2732.660000 468.695000 1 1.000000 1 -3.000000
249 2 796.461000 -2739.940000 466.533000 1 1.000000 1 -3.000000
250 2 788.354000 -2744.680000 463.443000 1 1.000000 1 -3.000000
251 2 780.105000 -2749.980000 464.405000 1 1.000000 1 -3.000000
252 2 770.298000 -2750.840000 463.303000 1 1.000000 1 -3.000000
253 2 761.438000 -2750.880000 459.048000 1 1.000000 1 -3.000000
254 2 754.084000 -2751.380000 452.591000 1 1.000000 1 -3.000000
255 2 744.543000 -2752.090000 450.010000 1 1.000000 1 -3.000000
256 2 734.995000 -2753.500000 447.729000 1 1.000000 1 -3.000000
257 2 726.896000 -2757.020000 443.226000 1 1.000000 1 -3.000000
258 2 717.059000 -2758.150000 443.485000 1 1.000000 1 -3.000000
259 2 708.767000 -2759.680000 448.633000 1 1.000000 1 -3.000000
260 2 702.016000 -2762.020000 455.452000 1 1.000000 1 -3.000000
261 2 696.214000 -2762.470000 463.443000 1 1.000000 1 -3.000000
262 2 689.310000 -2759.740000 469.968000 1 1.000000 1 -3.000000
263 2 682.467000 -2756.830000 476.696000 1 1.000000 1 -3.000000
264 2 673.771000 -2754.780000 480.750000 1 1.000000 11 -3.000000
265 1 660.598000 -2726.400000 445.507000 1 1.000000 11 0.000000
266 3 694.389000 -2732.700000 438.237000 1 1.000000 11 0.000000
267 2 667.766000 -2702.730000 405.318000 1 1.000000 11 -3.000000
268 2 675.093000 -2706.910000 400.003000 1 1.000000 1 -3.000000
269 2 678.512000 -2715.070000 395.624000 1 1.000000 1 -3.000000
270 2 683.943000 -2720.680000 389.284000 1 1.000000 1 -3.000000
271 2 687.312000 -2726.590000 382.194000 1 1.000000 1 -3.000000
272 2 689.835000 -2729.250000 372.959000 1 1.000000 1 -3.000000
273 2 690.248000 -2731.190000 363.187000 1 1.000000 1 -3.000000
274 2 692.173000 -2732.330000 353.595000 1 1.000000 1 -3.000000
275 2 695.465000 -2731.280000 344.294000 1 1.000000 1 -3.000000
276 2 693.356000 -2730.320000 334.712000 1 1.000000 1 -3.000000
277 2 690.755000 -2733.080000 325.517000 1 1.000000 1 -3.000000
278 2 684.832000 -2735.400000 317.907000 1 1.000000 1 -3.000000
279 2 679.325000 -2738.960000 310.613000 1 1.000000 1 -3.000000
280 2 674.028000 -2742.710000 302.933000 1 1.000000 1 -3.000000
281 2 669.050000 -2746.820000 295.397000 1 1.000000 1 -3.000000
282 2 664.850000 -2753.910000 289.849000 1 1.000000 1 -3.000000
283 2 660.674000 -2762.100000 286.064000 1 1.000000 1 -3.000000
284 2 657.334000 -2769.960000 281.320000 1 1.000000 1 -3.000000
285 2 655.633000 -2776.860000 274.591000 1 1.000000 1 -3.000000
286 2 657.304000 -2785.320000 269.736000 1 1.000000 1 -3.000000
287 2 656.285000 -2792.220000 262.674000 1 1.000000 1 -3.000000
288 2 655.878000 -2796.040000 253.553000 1 1.000000 1 -3.000000
289 2 654.687000 -2797.370000 243.871000 1 1.000000 1 -3.000000
290 2 652.318000 -2800.420000 234.709000 1 1.000000 1 -3.000000
291 2 650.849000 -2803.660000 225.593000 1 1.000000 12 -3.000000
292 1 606.786000 -2787.030000 222.314000 1 1.000000 12 0.000000
293 3 619.502000 -2770.250000 250.053000 1 1.000000 12 0.000000
294 2 570.592000 -2760.240000 236.179000 1 1.000000 12 -3.000000
295 2 577.624000 -2753.740000 238.383000 1 1.000000 1 -3.000000
296 2 583.260000 -2748.260000 244.481000 1 1.000000 1 -3.000000
297 2 589.125000 -2740.800000 247.714000 1 1.000000 1 -3.000000
298 2 594.821000 -2734.420000 252.839000 1 1.000000 1 -3.000000
299 2 600.924000 -2726.760000 254.761000 1 1.000000 1 -3.000000
300 2 604.558000 -2718.610000 259.234000 1 1.000000 1 -3.000000
301 2 606.844000 -2708.990000 260.482000 1 1.000000 1 -3.000000
302 2 610.285000 -2700.620000 264.388000 1 1.000000 1 -3.000000
303 2 613.222000 -2691.140000 265.272000 1 1.000000 1 -3.000000
304 2 613.612000 -2681.210000 266.089000 1 1.000000 1 -3.000000
305 2 612.584000 -2672.670000 261.222000 1 1.000000 1 -3.000000
306 2 610.047000 -2664.670000 255.739000 1 1.000000 1 -3.000000
307 2 608.341000 -2658.780000 247.992000 1 1.000000 1 -3.000000
308 2 607.779000 -2651.430000 241.521000 1 1.000000 1 -3.000000
309 2 604.248000 -2644.500000 235.348000 1 1.000000 1 -3.000000
310 2 600.789000 -2637.940000 228.831000 1 1.000000 1 -3.000000
311 2 593.741000 -2633.110000 224.033000 1 1.000000 1 -3.000000
312 2 587.332000 -2626.030000 221.565000 1 1.000000 1 -3.000000
313 2 583.121000 -2618.160000 217.099000 1 1.000000 1 -3.000000
314 2 579.620000 -2610.620000 211.812000 1 1.000000 1 -3.000000
315 2 573.472000 -2603.320000 209.107000 1 1.000000 1 -3.000000
316 2 568.377000 -2596.400000 204.284000 1 1.000000 1 -3.000000
317 2 563.385000 -2589.930000 198.744000 1 1.000000 1 -3.000000
318 2 557.612000 -2584.220000 193.063000 1 1.000000 13 -3.000000
319 1 513.262000 -2599.140000 198.577000 1 1.000000 13 0.000000
320 3 531.248000 -2619.170000 220.942000 1 1.000000 13 0.000000
321 2 479.870000 -2625.700000 218.667000 1 1.000000 13 -3.000000
322 2 484.501000 -2632.530000 224.037000 1 1.000000 1 -3.000000
323 2 489.671000 -2637.480000 230.803000 1 1.000000 1 -3.000000
324 2 494.565000 -2642.050000 238.082000 1 1.000000 1 -3.000000
325 2 497.984000 -2642.250000 247.463000 1 1.000000 1 -3.000000
326 2 502.568000 -2643.280000 256.093000 1 1.000000 1 -3.000000
327 2 507.021000 -2639.710000 264.128000 1 1.000000 1 -3.000000
328 2 508.647000 -2639.040000 273.879000 1 1.000000 1 -3.000000
329 2 512.008000 -2639.690000 283.193000 1 1.000000 1 -3.000000
330 2 513.671000 -2637.770000 292.835000 1 1.000000 1 -3.000000
331 2 516.441000 -2635.770000 302.161000 1 1.000000 1 -3.000000
332 2 516.907000 -2634.140000 311.929000 1 1.000000 1 -3.000000
333 2 518.162000 -2631.770000 321.420000 1 1.000000 1 -3.000000
334 2 520.191000 -2630.530000 331.048000 1 1.000000 1 -3.000000
335 2 521.423000 -2626.470000 339.886000 1 1.000000 1 -3.000000
336 2 522.694000 -2622.780000 348.957000 1 1.000000 1 -3.000000
337 2 523.146000 -2620.200000 358.537000 1 1.000000 1 -3.000000
338 2 524.422000 -2617.230000 367.860000 1 1.000000 1 -3.000000
339 2 522.239000 -2616.850000 377.539000 1 1.000000 1 -3.000000
340 2 523.296000 -2617.000000 387.409000 1 1.000000 1 -3.000000
341 2 523.224000 -2619.610000 396.920000 1 1.000000 1 -3.000000
342 2 521.033000 -2620.660000 406.549000 1 1.000000 1 -3.000000
343 2 519.812000 -2620.720000 416.431000 1 1.000000 1 -3.000000
344 2 515.378000 -2620.950000 425.161000 1 1.000000 1 -3.000000
345 2 510.925000 -2620.520000 434.021000 1 1.000000 14 -3.000000
346 1 526.623000 -2577.570000 445.790000 1 1.000000 14 0.000000
347 3 528.655000 -2577.510000 410.833000 1 1.000000 14 0.000000
348 2 542.508000 -2534.290000 435.972000 1 1.000000 14 -3.000000
349 2 542.844000 -2536.540000 426.369000 1 1.000000 1 -3.000000
350 2 543.429000 -2535.190000 416.577000 1 1.000000 1 -3.000000
351 2 540.794000 -2535.530000 407.118000 1 1.000000 1 -3.000000
352 2 537.825000 -2535.380000 397.679000 1 1.000000 1 -3.000000
353 2 536.503000 -2531.550000 388.673000 1 1.000000 1 -3.000000
354 2 535.380000 -2528.750000 379.089000 1 1.000000 1 -3.000000
355 2 538.582000 -2525.510000 370.334000 1 1.000000 1 -3.000000
356 2 538.373000 -2517.900000 364.076000 1 1.000000 1 -3.000000
357 2 543.515000 -2512.750000 357.269000 1 1.000000 1 -3.000000
358 2 546.229000 -2506.820000 349.751000 1 1.000000 1 -3.000000
359 2 548.226000 -2502.300000 341.034000 1 1.000000 1 -3.000000
360 2 550.126000 -2500.270000 331.485000 1 1.000000 1 -3.000000
361 2 549.250000 -2496.710000 322.389000 1 1.000000 1 -3.000000
362 2 547.813000 -2490.800000 314.539000 1 1.000000 1 -3.000000
363 2 544.335000 -2487.210000 306.173000 1 1.000000 1 -3.000000
364 2 539.894000 -2482.940000 298.461000 1 1.000000 1 -3.000000
365 2 532.982000 -2477.350000 293.997000 1 1.000000 1 -3.000000
366 2 526.820000 -2472.290000 288.140000 1 1.000000 1 -3.000000
367 2 520.658000 -2468.030000 281.675000 1 1.000000 1 -3.000000
368 2 514.113000 -2465.150000 274.758000 1 1.000000 1 -3.000000
369 2 505.754000 -2463.370000 269.736000 1 1.000000 1 -3.000000
370 2 496.906000 -2461.870000 265.525000 1 1.000000 1 -3.000000
371 2 487.414000 -2460.360000 263.299000 1 1.000000 1 -3.000000
372 2 478.095000 -2458.710000 260.314000 1 1.000000 15 -3.000000
373 1 469.812000 -2504.740000 254.424000 1 1.000000 15 0.000000
374 3 493.178000 -2504.080000 280.376000 1 1.000000 15 0.000000
375 2 475.557000 -2550.330000 265.081000 1 1.000000 15 -3.000000
376 2 484.107000 -2549.290000 269.919000 1 1.000000 1 -3.000000
377 2 492.017000 -2551.690000 275.492000 1 1.000000 1 -3.000000
378 2 498.651000 -2554.360000 282.236000 1 1.000000 1 -3.000000
379 2 503.409000 -2558.110000 290.006000 1 1.000000 1 -3.000000
380 2 505.597000 -2562.940000 298.276000 1 1.000000 1 -3.000000
381 2 503.428000 -2565.160000 307.541000 1 1.000000 1 -3.000000
382 2 502.455000 -2565.150000 317.299000 1 1.000000 1 -3.000000
383 2 500.139000 -2564.900000 326.982000 1 1.000000 1 -3.000000
384 2 501.194000 -2564.900000 336.785000 1 1.000000 1 -3.000000
385 2 500.728000 -2564.950000 346.698000 1 1.000000 1 -3.000000
386 2 497.103000 -2565.400000 355.990000 1 1.000000 1 -3.000000
387 2 493.026000 -2565.410000 365.113000 1 1.000000 1 -3.000000
388 2 485.995000 -2566.400000 371.965000 1 1.000000 1 -3.000000
389 2 480.540000 -2565.300000 380.180000 1 1.000000 1 -3.000000
390 2 472.735000 -2567.660000 385.854000 1 1.000000 1 -3.000000
391 2 467.308000 -2573.930000 391.467000 1 1.000000 1 -3.000000
392 2 462.883000 -2581.050000 396.641000 1 1.000000 1 -3.000000
393 2 458.006000 -2589.570000 398.314000 1 1.000000 1 -3.000000
394 2 456.827000 -2598.820000 401.756000 1 1.000000 1 -3.000000
395 2 459.913000 -2607.770000 404.793000 1 1.000000 1 -3.000000
396 2 461.017000 -2616.060000 409.935000 1 1.000000 1 -3.000000
397 2 463.056000 -2620.940000 418.312000 1 1.000000 1 -3.000000
398 2 463.138000 -2625.060000 427.324000 1 1.000000 1 -3.000000
399 2 462.377000 -2631.120000 435.178000 1 1.000000 16 -3.000000
400 1 463.958000 -2604.920000 474.426000 1 1.000000 16 0.000000
401 3 453.901000 -2582.060000 449.769000 1 1.000000 16 0.000000
402 2 463.420000 -2563.780000 497.555000 1 1.000000 16 -3.000000
403 2 458.665000 -2561.230000 489.157000 1 1.000000 1 -3.000000
404 2 454.999000 -2556.890000 480.949000 1 1.000000 1 -3.000000
405 2 452.558000 -2552.340000 472.415000 1 1.000000 1 -3.000000
406 2 451.021000 -2547.950000 463.718000 1 1.000000 1 -3.000000
407 2 446.135000 -2542.370000 457.180000 1 1.000000 1 -3.000000
408 2 442.205000 -2537.520000 449.628000 1 1.000000 1 -3.000000
409 2 436.521000 -2533.890000 442.292000 1 1.000000 1 -3.000000
410 2 435.309000 -2527.860000 434.394000 1 1.000000 1 -3.000000
411 2 435.556000 -2524.450000 425.147000 1 1.000000 1 -3.000000
412 2 433.561000 -2518.920000 417.018000 1 1.000000 1 -3.000000
413 2 434.074000 -2515.720000 407.717000 1 1.000000 1 -3.000000
414 2 435.470000 -2511.860000 398.832000 1 1.000000 1 -3.000000
415 2 437.774000 -2506.380000 390.941000 1 1.000000 1 -3.000000
416 2 443.239000 -2504.220000 382.957000 1 1.000000 1 -3.000000
417 2 449.103000 -2500.270000 376.051000 1 1.000000 1 -3.000000
418 2 456.395000 -2495.050000 372.149000 1 1.000000 1 -3.000000
419 2 460.549000 -2488.540000 365.985000 1 1.000000 1 -3.000000
420 2 466.361000 -2482.850000 360.151000 1 1.000000 1 -3.000000
421 2 471.710000 -2478.140000 353.616000 1 1.000000 1 -3.000000
422 2 475.505000 -2472.550000 346.366000 1 1.000000 1 -3.000000
423 2 479.644000 -2467.540000 338.790000 1 1.000000 1 -3.000000
424 2 479.864000 -2463.060000 329.833000 1 1.000000 1 -3.000000
425 2 478.041000 -2460.020000 320.552000 1 1.000000 1 -3.000000
426 2 477.780000 -2453.990000 312.711000 1 1.000000 17 -3.000000
427 1 432.333000 -2441.050000 312.253000 1 1.000000 17 0.000000
428 3 438.514000 -2446.960000 346.158000 1 1.000000 17 0.000000
429 2 391.651000 -2429.390000 332.858000 1 1.000000 17 -3.000000
430 2 393.673000 -2426.930000 342.202000 1 1.000000 1 -3.000000
431 2 397.999000 -2423.660000 350.401000 1 1.000000 1 -3.000000
432 2 403.695000 -2418.920000 356.895000 1 1.000000 1 -3.000000
433 2 408.381000 -2416.120000 365.134000 1 1.000000 1 -3.000000
434 2 414.500000 -2417.150000 372.887000 1 1.000000 1 -3.000000
435 2 423.042000 -2418.720000 377.708000 1 1.000000 1 -3.000000
436 2 431.643000 -2421.250000 381.647000 1 1.000000 1 -3.000000
437 2 440.259000 -2421.920000 386.432000 1 1.000000 1 -3.000000
438 2 444.665000 -2416.600000 393.668000 1 1.000000 1 -3.000000
439 2 450.741000 -2409.160000 396.257000 1 1.000000 1 -3.000000
440 2 456.038000 -2402.510000 401.437000 1 1.000000 1 -3.000000
441 2 459.698000 -2395.420000 407.302000 1 1.000000 1 -3.000000
442 2 465.802000 -2387.850000 408.922000 1 1.000000 1 -3.000000
443 2 474.091000 -2382.460000 409.473000 1 1.000000 1 -3.000000
444 2 481.341000 -2375.770000 410.660000 1 1.000000 1 -3.000000
445 2 487.693000 -2368.390000 412.096000 1 1.000000 1 -3.000000
446 2 495.216000 -2362.080000 412.176000 1 1.000000 1 -3.000000
447 2 502.733000 -2355.730000 413.671000 1 1.000000 1 -3.000000
448 2 509.987000 -2349.020000 413.212000 1 1.000000 1 -3.000000
449 2 518.890000 -2344.850000 411.698000 1 1.000000 1 -3.000000
450 2 527.919000 -2340.660000 412.020000 1 1.000000 1 -3.000000
451 2 537.529000 -2338.810000 410.680000 1 1.000000 1 -3.000000
452 2 547.212000 -2340.540000 411.902000 1 1.000000 1 -3.000000
453 2 556.866000 -2342.590000 411.076000 1 1.000000 18 -3.000000
454 1 562.583000 -2358.340000 455.183000 1 1.000000 18 0.000000
455 3 531.468000 -2371.400000 445.659000 1 1.000000 18 0.000000
456 2 549.110000 -2382.690000 493.360000 1 1.000000 18 -3.000000
457 2 541.035000 -2376.920000 492.330000 1 1.000000 1 -3.000000
458 2 533.002000 -2371.510000 494.018000 1 1.000000 1 -3.000000
459 2 525.390000 -2365.370000 491.988000 1 1.000000 1 -3.000000
460 2 517.642000 -2359.580000 494.179000 1 1.000000 1 -3.000000
461 2 511.187000 -2353.080000 497.859000 1 1.000000 1 -3.000000
462 2 502.623000 -2349.740000 501.082000 1 1.000000 1 -3.000000
463 2 494.131000 -2346.630000 505.131000 1 1.000000 1 -3.000000
464 2 485.243000 -2342.920000 507.928000 1 1.000000 1 -3.000000
465 2 475.789000 -2340.100000 507.264000 1 1.000000 1 -3.000000