LAMMPS data file

4067 atoms
4067 ellipsoids
4516 bonds
8882 angles
0 dihedrals

3 atom types
5 bond types
12 angle types
0 dihedral types

-4631.092947 4670.465898 xlo xhi
-4631.092947 4670.465898 ylo yhi
-4631.092947 4670.465898 zlo zhi

Masses

1 196016.000000
2 1950.000000
3 19500.000000

Atoms

1 2 593.254000 -3385.650000 557.755000 1 1.000000 1 -3.000000
2 2 599.284000 -3377.870000 559.078000 1 1.000000 1 -3.000000
3 2 603.066000 -3370.430000 564.586000 1 1.000000 1 -3.000000
4 2 606.680000 -3361.640000 567.192000 1 1.000000 1 -3.000000
5 2 612.304000 -3353.860000 568.681000 1 1.000000 1 -3.000000
6 2 615.933000 -3344.730000 569.504000 1 1.000000 1 -3.000000
7 2 618.732000 -3336.700000 574.453000 1 1.000000 1 -3.000000
8 2 621.441000 -3329.540000 580.840000 1 1.000000 1 -3.000000
9 2 623.071000 -3324.380000 589.033000 1 1.000000 1 -3.000000
10 2 622.899000 -3319.390000 597.678000 1 1.000000 1 -3.000000
11 2 624.422000 -3313.240000 605.136000 1 1.000000 1 -3.000000
12 2 626.507000 -3306.860000 612.389000 1 1.000000 1 -3.000000
13 2 629.507000 -3302.500000 620.796000 1 1.000000 1 -3.000000
14 2 633.983000 -3298.190000 628.376000 1 1.000000 1 -3.000000
15 2 641.719000 -3297.410000 634.307000 1 1.000000 1 -3.000000
16 2 649.243000 -3297.050000 640.933000 1 1.000000 1 -3.000000
17 2 658.300000 -3296.070000 644.653000 1 1.000000 1 -3.000000
18 2 667.476000 -3293.460000 646.811000 1 1.000000 1 -3.000000
19 2 673.996000 -3288.370000 652.099000 1 1.000000 1 -3.000000
20 2 679.162000 -3281.110000 656.631000 1 1.000000 1 -3.000000
21 2 684.731000 -3275.110000 662.169000 1 1.000000 2 -3.000000
22 1 699.931000 -3258.700000 620.567000 1 1.000000 2 0.000000
23 3 665.629000 -3263.200000 615.495000 1 1.000000 2 0.000000
24 2 693.245000 -3241.640000 577.059000 1 1.000000 2 -3.000000
25 2 684.020000 -3244.890000 578.560000 1 1.000000 1 -3.000000
26 2 674.621000 -3247.940000 579.318000 1 1.000000 1 -3.000000
27 2 665.859000 -3252.480000 580.739000 1 1.000000 1 -3.000000
28 2 656.088000 -3254.360000 580.339000 1 1.000000 1 -3.000000
29 2 646.438000 -3252.520000 581.221000 1 1.000000 1 -3.000000
30 2 636.798000 -3250.720000 582.725000 1 1.000000 1 -3.000000
31 2 629.616000 -3244.350000 581.064000 1 1.000000 1 -3.000000
32 2 621.702000 -3239.000000 578.613000 1 1.000000 1 -3.000000
33 2 613.121000 -3235.050000 575.246000 1 1.000000 1 -3.000000
34 2 604.035000 -3233.020000 571.769000 1 1.000000 1 -3.000000
35 2 594.807000 -3229.940000 569.920000 1 1.000000 1 -3.000000
36 2 585.021000 -3229.080000 569.358000 1 1.000000 1 -3.000000
37 2 575.421000 -3231.100000 568.798000 1 1.000000 1 -3.000000
38 2 565.704000 -3232.970000 569.925000 1 1.000000 1 -3.000000
39 2 558.924000 -3233.370000 577.048000 1 1.000000 1 -3.000000
40 2 551.879000 -3235.650000 583.626000 1 1.000000 1 -3.000000
41 2 543.957000 -3235.430000 589.627000 1 1.000000 1 -3.000000
42 2 537.605000 -3232.530000 596.675000 1 1.000000 1 -3.000000
43 2 528.981000 -3233.310000 601.476000 1 1.000000 1 -3.000000
44 2 519.425000 -3234.770000 603.534000 1 1.000000 1 -3.000000
45 2 510.221000 -3237.030000 605.855000 1 1.000000 1 -3.000000
46 2 500.399000 -3237.070000 607.887000 1 1.000000 1 -3.000000
47 2 490.890000 -3237.320000 610.508000 1 1.000000 1 -3.000000
48 2 482.241000 -3236.800000 615.320000 1 1.000000 3 -3.000000
49 1 509.167000 -3198.110000 617.656000 1 1.000000 3 0.000000
50 3 505.615000 -3203.400000 583.244000 1 1.000000 3 0.000000
51 2 535.518000 -3163.790000 598.937000 1 1.000000 3 -3.000000
52 2 531.049000 -3164.310000 590.283000 1 1.000000 1 -3.000000
53 2 529.597000 -3165.460000 580.622000 1 1.000000 1 -3.000000
54 2 527.059000 -3169.540000 572.000000 1 1.000000 1 -3.000000
55 2 524.594000 -3170.450000 562.559000 1 1.000000 1 -3.000000
56 2 524.961000 -3171.690000 552.748000 1 1.000000 1 -3.000000
57 2 529.245000 -3167.720000 544.829000 1 1.000000 1 -3.000000
58 2 531.764000 -3166.500000 535.349000 1 1.000000 1 -3.000000
59 2 535.883000 -3164.650000 526.608000 1 1.000000 1 -3.000000
60 2 539.719000 -3165.380000 517.511000 1 1.000000 1 -3.000000
61 2 544.087000 -3163.390000 508.864000 1 1.000000 1 -3.000000
62 2 545.810000 -3161.810000 499.212000 1 1.000000 1 -3.000000
63 2 546.913000 -3162.660000 489.505000 1 1.000000 1 -3.000000
64 2 547.267000 -3165.160000 479.861000 1 1.000000 1 -3.000000
65 2 548.388000 -3172.150000 472.725000 1 1.000000 1 -3.000000
66 2 546.731000 -3181.110000 468.621000 1 1.000000 1 -3.000000
67 2 545.730000 -3189.540000 463.490000 1 1.000000 1 -3.000000
68 2 548.549000 -3197.890000 459.238000 1 1.000000 1 -3.000000
69 2 549.968000 -3205.350000 452.966000 1 1.000000 1 -3.000000
70 2 552.725000 -3212.710000 446.889000 1 1.000000 1 -3.000000
71 2 552.572000 -3218.980000 439.207000 1 1.000000 1 -3.000000
72 2 556.040000 -3225.320000 432.371000 1 1.000000 1 -3.000000
73 2 559.606000 -3232.280000 426.322000 1 1.000000 1 -3.000000
74 2 561.484000 -3240.490000 420.952000 1 1.000000 1 -3.000000
75 2 564.608000 -3248.140000 415.536000 1 1.000000 4 -3.000000
76 1 597.536000 -3219.390000 397.756000 1 1.000000 4 0.000000
77 3 594.130000 -3208.340000 430.766000 1 1.000000 4 0.000000
78 2 631.215000 -3186.430000 401.448000 1 1.000000 4 -3.000000
79 2 632.691000 -3185.710000 411.293000 1 1.000000 1 -3.000000
80 2 633.048000 -3185.230000 421.293000 1 1.000000 1 -3.000000
81 2 631.189000 -3185.480000 431.077000 1 1.000000 1 -3.000000
82 2 627.352000 -3184.730000 440.226000 1 1.000000 1 -3.000000
83 2 625.819000 -3180.630000 448.979000 1 1.000000 1 -3.000000
84 2 623.479000 -3177.530000 458.049000 1 1.000000 1 -3.000000
85 2 621.024000 -3178.380000 467.545000 1 1.000000 1 -3.000000
86 2 620.820000 -3178.070000 477.425000 1 1.000000 1 -3.000000
87 2 621.929000 -3173.980000 486.550000 1 1.000000 1 -3.000000
88 2 624.520000 -3172.910000 496.047000 1 1.000000 1 -3.000000
89 2 624.825000 -3173.920000 505.912000 1 1.000000 1 -3.000000
90 2 627.385000 -3175.510000 515.244000 1 1.000000 1 -3.000000
91 2 631.840000 -3176.510000 524.049000 1 1.000000 1 -3.000000
92 2 631.852000 -3172.450000 532.970000 1 1.000000 1 -3.000000
93 2 632.586000 -3170.370000 542.591000 1 1.000000 1 -3.000000
94 2 635.118000 -3168.250000 552.026000 1 1.000000 1 -3.000000
95 2 636.892000 -3166.550000 561.589000 1 1.000000 1 -3.000000
96 2 637.759000 -3164.130000 571.193000 1 1.000000 1 -3.000000
97 2 636.400000 -3160.850000 580.567000 1 1.000000 1 -3.000000
98 2 640.528000 -3155.140000 587.410000 1 1.000000 1 -3.000000
99 2 648.358000 -3152.990000 593.145000 1 1.000000 1 -3.000000
100 2 657.641000 -3150.600000 595.446000 1 1.000000 1 -3.000000
101 2 666.816000 -3150.100000 598.951000 1 1.000000 1 -3.000000
102 2 675.294000 -3149.610000 603.953000 1 1.000000 5 -3.000000
103 1 706.614000 -3147.230000 568.747000 1 1.000000 5 0.000000
104 3 675.954000 -3143.740000 552.275000 1 1.000000 5 0.000000
105 2 718.934000 -3144.710000 523.249000 1 1.000000 5 -3.000000
106 2 711.259000 -3138.460000 523.257000 1 1.000000 1 -3.000000
107 2 704.264000 -3131.890000 520.913000 1 1.000000 1 -3.000000
108 2 695.725000 -3129.060000 516.700000 1 1.000000 1 -3.000000
109 2 687.317000 -3125.830000 512.552000 1 1.000000 1 -3.000000
110 2 682.764000 -3118.050000 508.376000 1 1.000000 1 -3.000000
111 2 677.213000 -3110.050000 506.616000 1 1.000000 1 -3.000000
112 2 672.169000 -3101.600000 505.995000 1 1.000000 1 -3.000000
113 2 669.983000 -3092.330000 509.209000 1 1.000000 1 -3.000000
114 2 670.165000 -3083.520000 513.778000 1 1.000000 1 -3.000000
115 2 666.323000 -3075.920000 518.878000 1 1.000000 1 -3.000000
116 2 664.710000 -3067.590000 523.801000 1 1.000000 1 -3.000000
117 2 661.730000 -3058.540000 526.269000 1 1.000000 1 -3.000000
118 2 663.085000 -3048.830000 525.445000 1 1.000000 1 -3.000000
119 2 662.655000 -3039.710000 521.673000 1 1.000000 1 -3.000000
120 2 665.009000 -3031.380000 516.662000 1 1.000000 1 -3.000000
121 2 670.126000 -3027.640000 509.062000 1 1.000000 1 -3.000000
122 2 674.178000 -3022.420000 501.748000 1 1.000000 1 -3.000000
123 2 679.612000 -3021.630000 493.475000 1 1.000000 1 -3.000000
124 2 687.148000 -3021.820000 486.995000 1 1.000000 1 -3.000000
125 2 693.658000 -3023.270000 479.587000 1 1.000000 1 -3.000000
126 2 696.449000 -3021.510000 470.287000 1 1.000000 1 -3.000000
127 2 697.618000 -3022.020000 460.570000 1 1.000000 1 -3.000000
128 2 700.601000 -3022.620000 451.037000 1 1.000000 1 -3.000000
129 2 705.049000 -3023.910000 442.157000 1 1.000000 6 -3.000000
130 1 661.943000 -3031.230000 424.361000 1 1.000000 6 0.000000
131 3 655.326000 -3014.260000 454.262000 1 1.000000 6 0.000000
132 2 614.856000 -3031.650000 426.984000 1 1.000000 6 -3.000000
133 2 609.836000 -3024.420000 431.772000 1 1.000000 1 -3.000000
134 2 605.998000 -3017.760000 437.993000 1 1.000000 1 -3.000000
135 2 602.673000 -3009.640000 442.380000 1 1.000000 1 -3.000000
136 2 595.810000 -3005.690000 448.290000 1 1.000000 1 -3.000000
137 2 592.623000 -2999.820000 455.718000 1 1.000000 1 -3.000000
138 2 587.345000 -2993.800000 461.543000 1 1.000000 1 -3.000000
139 2 580.515000 -2987.790000 465.526000 1 1.000000 1 -3.000000
140 2 577.351000 -2978.610000 467.534000 1 1.000000 1 -3.000000
141 2 573.385000 -2969.540000 468.792000 1 1.000000 1 -3.000000
142 2 571.059000 -2962.060000 474.901000 1 1.000000 1 -3.000000
143 2 568.104000 -2956.320000 482.375000 1 1.000000 1 -3.000000
144 2 565.536000 -2950.700000 490.048000 1 1.000000 1 -3.000000
145 2 567.947000 -2943.580000 496.384000 1 1.000000 1 -3.000000
146 2 568.146000 -2936.000000 502.776000 1 1.000000 1 -3.000000
147 2 565.833000 -2928.720000 508.966000 1 1.000000 1 -3.000000
148 2 565.518000 -2921.310000 515.489000 1 1.000000 1 -3.000000
149 2 565.342000 -2914.070000 522.191000 1 1.000000 1 -3.000000
150 2 560.290000 -2906.270000 525.582000 1 1.000000 1 -3.000000
151 2 556.054000 -2898.510000 529.827000 1 1.000000 1 -3.000000
152 2 550.774000 -2890.400000 532.348000 1 1.000000 1 -3.000000
153 2 543.604000 -2883.940000 534.834000 1 1.000000 1 -3.000000
154 2 537.725000 -2876.370000 537.552000 1 1.000000 1 -3.000000
155 2 533.154000 -2868.380000 541.135000 1 1.000000 1 -3.000000
156 2 527.637000 -2860.880000 544.298000 1 1.000000 7 -3.000000
157 1 508.721000 -2885.650000 579.708000 1 1.000000 7 0.000000
158 3 536.240000 -2905.070000 570.382000 1 1.000000 7 0.000000
159 2 505.760000 -2923.010000 608.296000 1 1.000000 7 -3.000000
160 2 511.724000 -2929.630000 603.893000 1 1.000000 1 -3.000000
161 2 519.506000 -2933.340000 599.152000 1 1.000000 1 -3.000000
162 2 528.140000 -2937.860000 597.626000 1 1.000000 1 -3.000000
163 2 538.000000 -2937.340000 598.367000 1 1.000000 1 -3.000000
164 2 547.408000 -2934.090000 599.905000 1 1.000000 1 -3.000000
165 2 555.579000 -2928.670000 600.759000 1 1.000000 1 -3.000000
166 2 561.514000 -2920.630000 599.890000 1 1.000000 1 -3.000000
167 2 568.089000 -2913.560000 598.143000 1 1.000000 1 -3.000000
168 2 574.194000 -2905.860000 598.210000 1 1.000000 1 -3.000000
169 2 580.275000 -2898.110000 599.187000 1 1.000000 1 -3.000000
170 2 585.512000 -2889.740000 598.749000 1 1.000000 1 -3.000000
171 2 591.951000 -2882.390000 596.912000 1 1.000000 1 -3.000000
172 2 598.487000 -2875.070000 597.344000 1 1.000000 1 -3.000000
173 2 604.567000 -2867.220000 595.815000 1 1.000000 1 -3.000000
174 2 611.211000 -2859.910000 594.691000 1 1.000000 1 -3.000000
175 2 616.701000 -2852.760000 590.667000 1 1.000000 1 -3.000000
176 2 622.153000 -2846.340000 585.551000 1 1.000000 1 -3.000000
177 2 629.635000 -2841.530000 581.168000 1 1.000000 1 -3.000000
178 2 638.760000 -2837.710000 579.783000 1 1.000000 1 -3.000000
179 2 647.061000 -2834.140000 575.855000 1 1.000000 1 -3.000000
180 2 656.376000 -2831.150000 575.489000 1 1.000000 1 -3.000000
181 2 665.555000 -2830.750000 572.039000 1 1.000000 1 -3.000000
182 2 674.985000 -2832.000000 569.431000 1 1.000000 1 -3.000000
183 2 683.773000 -2827.740000 567.407000 1 1.000000 8 -3.000000
184 1 700.211000 -2831.250000 611.484000 1 1.000000 8 0.000000
185 3 666.804000 -2841.360000 614.472000 1 1.000000 8 0.000000
186 2 695.518000 -2839.500000 657.684000 1 1.000000 8 -3.000000
187 2 688.443000 -2846.190000 658.356000 1 1.000000 1 -3.000000
188 2 680.770000 -2852.410000 657.404000 1 1.000000 1 -3.000000
189 2 672.128000 -2857.180000 655.804000 1 1.000000 1 -3.000000
190 2 662.893000 -2860.160000 653.793000 1 1.000000 1 -3.000000
191 2 653.477000 -2862.670000 651.726000 1 1.000000 1 -3.000000
192 2 645.783000 -2866.640000 646.905000 1 1.000000 1 -3.000000
193 2 637.651000 -2869.430000 641.889000 1 1.000000 1 -3.000000
194 2 629.432000 -2870.320000 636.538000 1 1.000000 1 -3.000000
195 2 620.184000 -2873.640000 635.151000 1 1.000000 1 -3.000000
196 2 612.263000 -2879.470000 637.024000 1 1.000000 1 -3.000000
197 2 605.653000 -2886.410000 639.437000 1 1.000000 1 -3.000000
198 2 599.181000 -2893.410000 641.867000 1 1.000000 1 -3.000000
199 2 592.018000 -2899.380000 644.967000 1 1.000000 1 -3.000000
200 2 584.543000 -2905.790000 644.729000 1 1.000000 1 -3.000000
201 2 578.271000 -2913.350000 645.767000 1 1.000000 1 -3.000000
202 2 574.218000 -2918.320000 653.478000 1 1.000000 1 -3.000000
203 2 570.258000 -2922.900000 661.246000 1 1.000000 1 -3.000000
204 2 566.795000 -2927.760000 669.191000 1 1.000000 1 -3.000000
205 2 563.041000 -2930.930000 677.831000 1 1.000000 1 -3.000000
206 2 561.157000 -2933.640000 687.262000 1 1.000000 1 -3.000000
207 2 557.400000 -2938.110000 695.330000 1 1.000000 1 -3.000000
208 2 553.932000 -2941.240000 704.070000 1 1.000000 1 -3.000000
209 2 550.502000 -2941.760000 713.353000 1 1.000000 1 -3.000000
210 2 543.319000 -2942.710000 720.333000 1 1.000000 9 -3.000000
211 1 545.914000 -2899.360000 738.639000 1 1.000000 9 0.000000
212 3 560.583000 -2895.330000 707.147000 1 1.000000 9 0.000000
213 2 558.996000 -2854.010000 738.357000 1 1.000000 9 -3.000000
214 2 563.167000 -2855.710000 729.495000 1 1.000000 1 -3.000000
215 2 568.055000 -2853.150000 721.224000 1 1.000000 1 -3.000000
216 2 572.269000 -2849.150000 713.223000 1 1.000000 1 -3.000000
217 2 576.900000 -2845.960000 705.197000 1 1.000000 1 -3.000000
218 2 582.695000 -2844.610000 697.322000 1 1.000000 1 -3.000000
219 2 589.226000 -2845.000000 690.126000 1 1.000000 1 -3.000000
220 2 592.224000 -2843.160000 680.855000 1 1.000000 1 -3.000000
221 2 594.965000 -2842.790000 671.343000 1 1.000000 1 -3.000000
222 2 597.064000 -2838.490000 662.671000 1 1.000000 1 -3.000000
223 2 599.163000 -2831.880000 655.586000 1 1.000000 1 -3.000000
224 2 600.474000 -2826.400000 647.305000 1 1.000000 1 -3.000000
225 2 600.173000 -2820.710000 639.375000 1 1.000000 1 -3.000000
226 2 598.630000 -2815.100000 631.335000 1 1.000000 1 -3.000000
227 2 593.677000 -2810.110000 624.451000 1 1.000000 1 -3.000000
228 2 587.258000 -2805.820000 618.279000 1 1.000000 1 -3.000000
229 2 580.584000 -2803.160000 611.438000 1 1.000000 1 -3.000000
230 2 572.444000 -2801.710000 605.758000 1 1.000000 1 -3.000000
231 2 563.373000 -2801.230000 601.640000 1 1.000000 1 -3.000000
232 2 554.236000 -2798.620000 599.252000 1 1.000000 1 -3.000000
233 2 547.625000 -2797.460000 592.061000 1 1.000000 1 -3.000000
234 2 541.869000 -2797.530000 584.075000 1 1.000000 1 -3.000000
235 2 536.064000 -2796.960000 576.124000 1 1.000000 1 -3.000000
236 2 528.887000 -2794.530000 569.782000 1 1.000000 1 -3.000000
237 2 520.376000 -2790.810000 566.050000 1 1.000000 10 -3.000000
238 1 505.409000 -2755.850000 593.955000 1 1.000000 10 0.000000
239 3 540.141000 -2754.850000 597.997000 1 1.000000 10 0.000000
240 2 512.057000 -2718.380000 621.980000 1 1.000000 10 -3.000000
241 2 520.723000 -2713.500000 622.096000 1 1.000000 1 -3.000000
242 2 526.963000 -2705.790000 620.567000 1 1.000000 1 -3.000000
243 2 534.280000 -2699.070000 619.273000 1 1.000000 1 -3.000000
244 2 541.616000 -2693.730000 615.293000 1 1.000000 1 -3.000000
245 2 547.857000 -2688.770000 609.502000 1 1.000000 1 -3.000000
246 2 554.305000 -2683.670000 603.837000 1 1.000000 1 -3.000000
247 2 558.903000 -2678.620000 596.595000 1 1.000000 1 -3.000000
248 2 563.846000 -2677.370000 588.185000 1 1.000000 1 -3.000000
249 2 568.825000 -2675.590000 579.695000 1 1.000000 1 -3.000000
250 2 577.305000 -2672.110000 576.043000 1 1.000000 1 -3.000000
251 2 586.096000 -2671.210000 571.638000 1 1.000000 1 -3.000000
252 2 594.243000 -2670.100000 566.165000 1 1.000000 1 -3.000000
253 2 602.054000 -2669.500000 559.967000 1 1.000000 1 -3.000000
254 2 608.971000 -2670.760000 553.052000 1 1.000000 1 -3.000000
255 2 617.140000 -2667.990000 548.345000 1 1.000000 1 -3.000000
256 2 624.302000 -2665.520000 541.775000 1 1.000000 1 -3.000000
257 2 632.135000 -2664.280000 535.919000 1 1.000000 1 -3.000000
258 2 638.943000 -2661.000000 529.568000 1 1.000000 1 -3.000000
259 2 646.494000 -2658.890000 523.417000 1 1.000000 1 -3.000000
260 2 654.960000 -2656.170000 519.237000 1 1.000000 1 -3.000000
261 2 664.870000 -2655.950000 519.599000 1 1.000000 1 -3.000000
262 2 674.672000 -2656.410000 519.006000 1 1.000000 1 -3.000000
263 2 684.163000 -2657.990000 516.769000 1 1.000000 1 -3.000000
264 2 693.510000 -2660.830000 515.590000 1 1.000000 11 -3.000000
265 1 693.571000 -2616.380000 499.796000 1 1.000000 11 0.000000
266 3 662.597000 -2619.060000 516.042000 1 1.000000 11 0.000000
267 2 675.358000 -2573.110000 495.209000 1 1.000000 11 -3.000000
268 2 671.652000 -2573.240000 504.285000 1 1.000000 1 -3.000000
269 2 666.688000 -2571.160000 512.627000 1 1.000000 1 -3.000000
270 2 662.826000 -2571.800000 521.775000 1 1.000000 1 -3.000000
271 2 657.986000 -2572.010000 530.363000 1 1.000000 1 -3.000000
272 2 655.049000 -2573.800000 539.743000 1 1.000000 1 -3.000000
273 2 650.004000 -2575.680000 547.970000 1 1.000000 1 -3.000000
274 2 646.194000 -2577.270000 556.872000 1 1.000000 1 -3.000000
275 2 640.642000 -2578.000000 565.154000 1 1.000000 1 -3.000000
276 2 634.574000 -2579.700000 572.791000 1 1.000000 1 -3.000000
277 2 629.297000 -2576.400000 580.493000 1 1.000000 1 -3.000000
278 2 624.490000 -2572.950000 588.489000 1 1.000000 1 -3.000000
279 2 622.008000 -2566.390000 595.462000 1 1.000000 1 -3.000000
280 2 620.634000 -2562.390000 604.309000 1 1.000000 1 -3.000000
281 2 617.668000 -2560.820000 613.588000 1 1.000000 1 -3.000000
282 2 615.866000 -2557.680000 622.706000 1 1.000000 1 -3.000000
283 2 611.379000 -2555.610000 631.435000 1 1.000000 1 -3.000000
284 2 607.475000 -2554.410000 640.390000 1 1.000000 1 -3.000000
285 2 604.338000 -2548.300000 647.371000 1 1.000000 1 -3.000000
286 2 607.237000 -2540.680000 653.182000 1 1.000000 1 -3.000000
287 2 609.792000 -2531.840000 656.736000 1 1.000000 1 -3.000000
288 2 613.051000 -2525.260000 663.474000 1 1.000000 1 -3.000000
289 2 616.190000 -2518.570000 670.188000 1 1.000000 1 -3.000000
290 2 615.916000 -2511.410000 676.952000 1 1.000000 1 -3.000000
291 2 614.129000 -2505.230000 684.430000 1 1.000000 12 -3.000000
292 1 574.239000 -2484.870000 669.569000 1 1.000000 12 0.000000
293 3 581.497000 -2507.670000 644.153000 1 1.000000 12 0.000000
294 2 538.986000 -2478.370000 638.976000 1 1.000000 12 -3.000000
295 2 541.918000 -2481.250000 629.903000 1 1.000000 1 -3.000000
296 2 544.946000 -2489.080000 624.522000 1 1.000000 1 -3.000000
297 2 545.954000 -2494.980000 616.762000 1 1.000000 1 -3.000000
298 2 550.228000 -2499.510000 608.947000 1 1.000000 1 -3.000000
299 2 555.904000 -2505.050000 603.154000 1 1.000000 1 -3.000000
300 2 562.275000 -2510.640000 598.146000 1 1.000000 1 -3.000000
301 2 569.670000 -2514.680000 593.136000 1 1.000000 1 -3.000000
302 2 578.420000 -2517.340000 589.284000 1 1.000000 1 -3.000000
303 2 587.443000 -2520.430000 586.537000 1 1.000000 1 -3.000000
304 2 595.192000 -2521.240000 580.430000 1 1.000000 1 -3.000000
305 2 603.711000 -2520.340000 575.309000 1 1.000000 1 -3.000000
306 2 612.491000 -2521.030000 570.664000 1 1.000000 1 -3.000000
307 2 619.466000 -2521.630000 563.769000 1 1.000000 1 -3.000000
308 2 627.378000 -2522.150000 558.052000 1 1.000000 1 -3.000000
309 2 631.567000 -2522.440000 549.099000 1 1.000000 1 -3.000000
310 2 637.293000 -2521.320000 541.055000 1 1.000000 1 -3.000000
311 2 642.110000 -2519.970000 532.466000 1 1.000000 1 -3.000000
312 2 643.173000 -2523.240000 523.226000 1 1.000000 1 -3.000000
313 2 646.913000 -2524.340000 514.055000 1 1.000000 1 -3.000000
314 2 650.729000 -2525.980000 505.094000 1 1.000000 1 -3.000000
315 2 649.115000 -2528.960000 495.758000 1 1.000000 1 -3.000000
316 2 647.482000 -2533.810000 487.454000 1 1.000000 1 -3.000000
317 2 644.635000 -2539.930000 480.235000 1 1.000000 1 -3.000000
318 2 639.842000 -2546.430000 474.524000 1 1.000000 13 -3.000000
319 1 627.506000 -2506.900000 451.912000 1 1.000000 13 0.000000
320 3 646.439000 -2495.040000 478.888000 1 1.000000 13 0.000000
321 2 629.385000 -2460.330000 444.387000 1 1.000000 13 -3.000000
322 2 637.097000 -2459.830000 450.645000 1 1.000000 1 -3.000000
323 2 646.177000 -2460.800000 454.416000 1 1.000000 1 -3.000000
324 2 655.875000 -2463.000000 454.042000 1 1.000000 1 -3.000000
325 2 665.665000 -2461.900000 453.289000 1 1.000000 1 -3.000000
326 2 675.312000 -2459.900000 453.459000 1 1.000000 1 -3.000000
327 2 685.024000 -2458.550000 455.085000 1 1.000000 1 -3.000000
328 2 693.882000 -2454.630000 457.574000 1 1.000000 1 -3.000000
329 2 701.127000 -2452.230000 463.979000 1 1.000000 1 -3.000000
330 2 707.260000 -2450.250000 471.539000 1 1.000000 1 -3.000000
331 2 711.033000 -2445.880000 479.579000 1 1.000000 1 -3.000000
332 2 716.657000 -2439.140000 484.260000 1 1.000000 1 -3.000000
333 2 716.177000 -2430.260000 488.395000 1 1.000000 1 -3.000000
334 2 715.215000 -2420.390000 489.073000 1 1.000000 1 -3.000000
335 2 719.432000 -2411.390000 489.031000 1 1.000000 1 -3.000000
336 2 721.695000 -2401.850000 490.981000 1 1.000000 1 -3.000000
337 2 718.280000 -2392.500000 491.513000 1 1.000000 1 -3.000000
338 2 713.800000 -2384.880000 495.977000 1 1.000000 1 -3.000000
339 2 709.557000 -2376.260000 498.156000 1 1.000000 1 -3.000000
340 2 705.326000 -2367.390000 499.370000 1 1.000000 1 -3.000000
341 2 700.586000 -2358.830000 498.067000 1 1.000000 1 -3.000000
342 2 699.160000 -2349.550000 494.631000 1 1.000000 1 -3.000000
343 2 696.749000 -2340.000000 493.109000 1 1.000000 1 -3.000000
344 2 694.494000 -2330.600000 491.004000 1 1.000000 1 -3.000000
345 2 690.896000 -2321.500000 489.505000 1 1.000000 14 -3.000000
346 1 681.549000 -2340.800000 531.559000 1 1.000000 14 0.000000
347 3 667.360000 -2363.540000 508.827000 1 1.000000 14 0.000000
348 2 664.186000 -2374.620000 559.487000 1 1.000000 14 -3.000000
349 2 662.478000 -2381.680000 552.813000 1 1.000000 1 -3.000000
350 2 661.555000 -2389.310000 546.429000 1 1.000000 1 -3.000000
351 2 661.026000 -2396.550000 539.662000 1 1.000000 1 -3.000000
352 2 657.489000 -2401.320000 531.613000 1 1.000000 1 -3.000000
353 2 652.862000 -2403.660000 523.205000 1 1.000000 1 -3.000000
354 2 648.487000 -2408.330000 515.656000 1 1.000000 1 -3.000000
355 2 643.207000 -2411.500000 508.005000 1 1.000000 1 -3.000000
356 2 640.900000 -2414.510000 498.927000 1 1.000000 1 -3.000000
357 2 637.805000 -2413.010000 489.711000 1 1.000000 1 -3.000000
358 2 635.879000 -2410.840000 480.281000 1 1.000000 1 -3.000000
359 2 635.446000 -2406.350000 471.526000 1 1.000000 1 -3.000000
360 2 637.099000 -2405.550000 461.792000 1 1.000000 1 -3.000000
361 2 639.472000 -2405.920000 452.181000 1 1.000000 1 -3.000000
362 2 644.836000 -2409.340000 444.511000 1 1.000000 1 -3.000000
363 2 649.856000 -2413.520000 437.187000 1 1.000000 1 -3.000000
364 2 654.472000 -2418.120000 429.846000 1 1.000000 1 -3.000000
365 2 660.909000 -2420.800000 422.783000 1 1.000000 1 -3.000000
366 2 666.930000 -2416.960000 416.093000 1 1.000000 1 -3.000000
367 2 673.336000 -2414.870000 408.741000 1 1.000000 1 -3.000000
368 2 678.700000 -2412.090000 400.989000 1 1.000000 1 -3.000000
369 2 686.367000 -2413.760000 395.048000 1 1.000000 1 -3.000000
370 2 694.595000 -2417.470000 390.952000 1 1.000000 1 -3.000000
371 2 703.644000 -2419.930000 388.031000 1 1.000000 1 -3.000000
372 2 713.284000 -2420.670000 385.730000 1 1.000000 15 -3.000000
373 1 719.510000 -2461.300000 408.788000 1 1.000000 15 0.000000
374 3 684.922000 -2456.740000 410.029000 1 1.000000 15 0.000000
375 2 704.657000 -2498.020000 434.515000 1 1.000000 15 -3.000000
376 2 694.851000 -2498.010000 433.577000 1 1.000000 1 -3.000000
377 2 685.397000 -2498.340000 430.653000 1 1.000000 1 -3.000000
378 2 676.401000 -2496.040000 427.244000 1 1.000000 1 -3.000000
379 2 668.551000 -2494.160000 421.486000 1 1.000000 1 -3.000000
380 2 661.369000 -2489.960000 416.022000 1 1.000000 1 -3.000000
381 2 654.431000 -2489.800000 408.862000 1 1.000000 1 -3.000000
382 2 647.740000 -2488.970000 401.526000 1 1.000000 1 -3.000000
383 2 641.132000 -2486.910000 394.532000 1 1.000000 1 -3.000000
384 2 635.035000 -2488.280000 386.746000 1 1.000000 1 -3.000000
385 2 632.729000 -2492.460000 378.022000 1 1.000000 1 -3.000000
386 2 631.037000 -2498.860000 370.642000 1 1.000000 1 -3.000000
387 2 630.995000 -2504.100000 362.203000 1 1.000000 1 -3.000000
388 2 629.955000 -2508.360000 353.366000 1 1.000000 1 -3.000000
389 2 627.364000 -2512.430000 344.638000 1 1.000000 1 -3.000000
390 2 630.075000 -2514.890000 335.350000 1 1.000000 1 -3.000000
391 2 631.864000 -2520.810000 327.529000 1 1.000000 1 -3.000000
392 2 635.750000 -2526.620000 320.689000 1 1.000000 1 -3.000000
393 2 641.056000 -2532.920000 315.191000 1 1.000000 1 -3.000000
394 2 648.342000 -2538.210000 310.782000 1 1.000000 1 -3.000000
395 2 653.687000 -2544.410000 305.332000 1 1.000000 1 -3.000000
396 2 658.322000 -2548.760000 297.757000 1 1.000000 1 -3.000000
397 2 664.753000 -2551.560000 290.856000 1 1.000000 1 -3.000000
398 2 672.928000 -2555.070000 286.520000 1 1.000000 1 -3.000000
399 2 678.041000 -2560.850000 280.197000 1 1.000000 16 -3.000000
400 1 650.684000 -2581.370000 247.693000 1 1.000000 16 0.000000
401 3 628.684000 -2559.990000 264.357000 1 1.000000 16 0.000000
402 2 610.062000 -2587.790000 224.610000 1 1.000000 16 -3.000000
403 2 605.917000 -2581.470000 231.037000 1 1.000000 1 -3.000000
404 2 599.711000 -2575.110000 235.446000 1 1.000000 1 -3.000000
405 2 595.400000 -2568.800000 241.457000 1 1.000000 1 -3.000000
406 2 589.348000 -2566.460000 249.037000 1 1.000000 1 -3.000000
407 2 583.240000 -2565.790000 256.853000 1 1.000000 1 -3.000000
408 2 577.702000 -2564.320000 264.935000 1 1.000000 1 -3.000000
409 2 574.786000 -2563.570000 274.339000 1 1.000000 1 -3.000000
410 2 570.711000 -2562.490000 283.187000 1 1.000000 1 -3.000000
411 2 566.686000 -2560.430000 292.044000 1 1.000000 1 -3.000000
412 2 562.313000 -2558.200000 300.684000 1 1.000000 1 -3.000000
413 2 556.328000 -2554.040000 307.472000 1 1.000000 1 -3.000000
414 2 554.043000 -2550.410000 316.545000 1 1.000000 1 -3.000000
415 2 551.024000 -2547.750000 325.544000 1 1.000000 1 -3.000000
416 2 547.486000 -2546.060000 334.747000 1 1.000000 1 -3.000000
417 2 541.666000 -2544.450000 342.411000 1 1.000000 1 -3.000000
418 2 538.585000 -2541.070000 351.077000 1 1.000000 1 -3.000000
419 2 536.801000 -2535.230000 358.831000 1 1.000000 1 -3.000000
420 2 541.045000 -2532.850000 367.291000 1 1.000000 1 -3.000000
421 2 544.483000 -2528.290000 375.232000 1 1.000000 1 -3.000000
422 2 549.362000 -2525.480000 383.426000 1 1.000000 1 -3.000000
423 2 553.081000 -2521.640000 391.711000 1 1.000000 1 -3.000000
424 2 552.478000 -2519.430000 401.316000 1 1.000000 1 -3.000000
425 2 553.696000 -2516.920000 410.835000 1 1.000000 1 -3.000000
426 2 554.956000 -2516.680000 420.747000 1 1.000000 17 -3.000000
427 1 510.612000 -2504.750000 431.476000 1 1.000000 17 0.000000
428 3 507.773000 -2518.360000 399.483000 1 1.000000 17 0.000000
429 2 463.906000 -2505.340000 424.234000 1 1.000000 17 -3.000000
430 2 463.872000 -2507.580000 414.527000 1 1.000000 1 -3.000000
431 2 463.765000 -2512.370000 405.810000 1 1.000000 1 -3.000000
432 2 463.553000 -2520.120000 399.763000 1 1.000000 1 -3.000000
433 2 461.995000 -2526.260000 392.222000 1 1.000000 1 -3.000000
434 2 465.542000 -2534.710000 388.673000 1 1.000000 1 -3.000000
435 2 468.938000 -2543.940000 387.772000 1 1.000000 1 -3.000000
436 2 470.500000 -2553.520000 389.954000 1 1.000000 1 -3.000000
437 2 472.058000 -2563.270000 390.429000 1 1.000000 1 -3.000000
438 2 473.956000 -2571.780000 385.532000 1 1.000000 1 -3.000000
439 2 475.008000 -2580.320000 380.514000 1 1.000000 1 -3.000000
440 2 477.603000 -2589.780000 379.390000 1 1.000000 1 -3.000000
441 2 482.228000 -2598.270000 377.045000 1 1.000000 1 -3.000000
442 2 483.356000 -2606.520000 371.482000 1 1.000000 1 -3.000000
443 2 483.128000 -2613.690000 364.568000 1 1.000000 1 -3.000000
444 2 485.837000 -2617.450000 355.822000 1 1.000000 1 -3.000000
445 2 488.621000 -2622.390000 347.853000 1 1.000000 1 -3.000000
446 2 489.961000 -2624.610000 338.404000 1 1.000000 1 -3.000000
447 2 493.728000 -2630.450000 331.363000 1 1.000000 1 -3.000000
448 2 496.455000 -2637.240000 324.652000 1 1.000000 1 -3.000000
449 2 496.365000 -2643.050000 316.673000 1 1.000000 1 -3.000000
450 2 495.396000 -2647.790000 308.031000 1 1.000000 1 -3.000000
451 2 493.142000 -2650.030000 298.580000 1 1.000000 1 -3.000000
452 2 490.892000 -2652.430000 289.433000 1 1.000000 1 -3.000000
453 2 487.444000 -2657.170000 281.523000 1 1.000000 18 -3.000000
454 1 447.997000 -2632.300000 274.225000 1 1.000000 18 0.000000
455 3 461.655000 -2617.510000 302.885000 1 1.000000 18 0.000000
456 2 417.798000 -2597.370000 283.738000 1 1.000000 18 -3.000000
457 2 423.790000 -2593.150000 290.231000 1 1.000000 1 -3.000000
458 2 426.785000 -2586.580000 296.991000 1 1.000000 1 -3.000000
459 2 428.866000 -2581.300000 305.072000 1 1.000000 1 -3.000000
460 2 430.365000 -2574.120000 311.944000 1 1.000000 1 -3.000000
461 2 429.892000 -2566.750000 318.539000 1 1.000000 1 -3.000000
462 2 429.588000 -2558.900000 324.420000 1 1.000000 1 -3.000000
463 2 430.651000 -2550.620000 329.571000 1 1.000000 1 -3.000000
464 2 432.013000 -2541.570000 333.647000 1 1.000000 1 -3.000000
465 2 431.885000 -2531.780000 334.546000 1 1.000000 1 -3.000000