LAMMPS data file

4067 atoms
4067 ellipsoids
4516 bonds
8882 angles
0 dihedrals

3 atom types
5 bond types
12 angle types
0 dihedral types

-4631.092947 4670.465898 xlo xhi
-4631.092947 4670.465898 ylo yhi
-4631.092947 4670.465898 zlo zhi

Masses

1 196016.000000
2 1950.000000
3 19500.000000

Atoms

1 2 527.287000 -2669.390000 471.157000 1 1.000000 1 -3.000000
2 2 518.851000 -2664.190000 471.612000 1 1.000000 1 -3.000000
3 2 509.957000 -2659.890000 472.206000 1 1.000000 1 -3.000000
4 2 502.344000 -2654.870000 468.279000 1 1.000000 1 -3.000000
5 2 493.961000 -2650.390000 464.989000 1 1.000000 1 -3.000000
6 2 485.942000 -2645.130000 462.659000 1 1.000000 1 -3.000000
7 2 477.379000 -2640.660000 460.440000 1 1.000000 1 -3.000000
8 2 467.685000 -2639.740000 460.662000 1 1.000000 1 -3.000000
9 2 457.856000 -2639.860000 459.268000 1 1.000000 1 -3.000000
10 2 448.681000 -2640.590000 455.550000 1 1.000000 1 -3.000000
11 2 439.184000 -2642.130000 453.469000 1 1.000000 1 -3.000000
12 2 429.938000 -2644.670000 451.060000 1 1.000000 1 -3.000000
13 2 420.277000 -2642.950000 449.661000 1 1.000000 1 -3.000000
14 2 410.762000 -2640.990000 448.364000 1 1.000000 1 -3.000000
15 2 401.681000 -2638.650000 445.288000 1 1.000000 1 -3.000000
16 2 393.128000 -2637.810000 440.194000 1 1.000000 1 -3.000000
17 2 384.368000 -2634.990000 436.832000 1 1.000000 1 -3.000000
18 2 374.893000 -2634.650000 433.667000 1 1.000000 1 -3.000000
19 2 365.317000 -2636.150000 431.732000 1 1.000000 1 -3.000000
20 2 355.871000 -2635.210000 428.778000 1 1.000000 1 -3.000000
21 2 351.470000 -2631.670000 420.699000 1 1.000000 2 -3.000000
22 1 346.449000 -2677.400000 431.373000 1 1.000000 2 0.000000
23 3 374.769000 -2667.970000 449.626000 1 1.000000 2 0.000000
24 2 357.132000 -2716.390000 455.715000 1 1.000000 2 -3.000000
25 2 366.716000 -2716.370000 458.177000 1 1.000000 1 -3.000000
26 2 375.640000 -2719.330000 461.332000 1 1.000000 1 -3.000000
27 2 385.207000 -2721.140000 462.896000 1 1.000000 1 -3.000000
28 2 394.540000 -2720.370000 466.047000 1 1.000000 1 -3.000000
29 2 403.833000 -2723.570000 467.827000 1 1.000000 1 -3.000000
30 2 412.142000 -2728.460000 469.548000 1 1.000000 1 -3.000000
31 2 421.744000 -2730.570000 471.128000 1 1.000000 1 -3.000000
32 2 430.266000 -2735.000000 469.262000 1 1.000000 1 -3.000000
33 2 438.434000 -2740.240000 467.256000 1 1.000000 1 -3.000000
34 2 446.660000 -2744.450000 463.974000 1 1.000000 1 -3.000000
35 2 453.603000 -2749.830000 459.632000 1 1.000000 1 -3.000000
36 2 461.239000 -2754.550000 455.687000 1 1.000000 1 -3.000000
37 2 470.260000 -2758.140000 453.858000 1 1.000000 1 -3.000000
38 2 479.775000 -2760.290000 452.368000 1 1.000000 1 -3.000000
39 2 486.814000 -2765.780000 448.042000 1 1.000000 1 -3.000000
40 2 494.381000 -2772.040000 447.949000 1 1.000000 1 -3.000000
41 2 501.340000 -2778.230000 451.373000 1 1.000000 1 -3.000000
42 2 508.561000 -2783.240000 455.837000 1 1.000000 1 -3.000000
43 2 516.847000 -2786.230000 460.198000 1 1.000000 1 -3.000000
44 2 524.951000 -2788.460000 465.723000 1 1.000000 1 -3.000000
45 2 532.597000 -2793.170000 469.758000 1 1.000000 1 -3.000000
46 2 539.081000 -2797.140000 476.161000 1 1.000000 1 -3.000000
47 2 544.612000 -2803.010000 481.734000 1 1.000000 1 -3.000000
48 2 548.408000 -2810.940000 486.161000 1 1.000000 3 -3.000000
49 1 529.630000 -2853.300000 494.608000 1 1.000000 3 0.000000
50 3 516.807000 -2833.750000 520.561000 1 1.000000 3 0.000000
51 2 502.098000 -2883.480000 518.259000 1 1.000000 3 -3.000000
52 2 504.632000 -2876.640000 524.942000 1 1.000000 1 -3.000000
53 2 508.981000 -2868.740000 528.926000 1 1.000000 1 -3.000000
54 2 514.272000 -2862.240000 534.133000 1 1.000000 1 -3.000000
55 2 521.050000 -2860.740000 541.281000 1 1.000000 1 -3.000000
56 2 527.130000 -2857.050000 548.126000 1 1.000000 1 -3.000000
57 2 530.710000 -2851.480000 555.507000 1 1.000000 1 -3.000000
58 2 534.625000 -2842.970000 558.954000 1 1.000000 1 -3.000000
59 2 539.523000 -2835.330000 563.098000 1 1.000000 1 -3.000000
60 2 545.819000 -2828.160000 565.671000 1 1.000000 1 -3.000000
61 2 549.553000 -2819.150000 564.161000 1 1.000000 1 -3.000000
62 2 555.281000 -2811.080000 564.324000 1 1.000000 1 -3.000000
63 2 562.955000 -2805.250000 566.733000 1 1.000000 1 -3.000000
64 2 568.743000 -2798.360000 570.612000 1 1.000000 1 -3.000000
65 2 573.073000 -2792.010000 576.865000 1 1.000000 1 -3.000000
66 2 579.554000 -2786.410000 581.692000 1 1.000000 1 -3.000000
67 2 586.492000 -2781.680000 587.187000 1 1.000000 1 -3.000000
68 2 591.757000 -2776.300000 593.794000 1 1.000000 1 -3.000000
69 2 599.195000 -2771.070000 597.702000 1 1.000000 1 -3.000000
70 2 607.815000 -2767.870000 601.566000 1 1.000000 1 -3.000000
71 2 615.710000 -2764.280000 606.117000 1 1.000000 1 -3.000000
72 2 624.614000 -2761.300000 609.020000 1 1.000000 1 -3.000000
73 2 633.901000 -2758.090000 610.795000 1 1.000000 1 -3.000000
74 2 642.704000 -2753.680000 611.631000 1 1.000000 1 -3.000000
75 2 651.519000 -2749.070000 611.205000 1 1.000000 4 -3.000000
76 1 675.902000 -2782.920000 633.193000 1 1.000000 4 0.000000
77 3 643.994000 -2796.900000 629.693000 1 1.000000 4 0.000000
78 2 679.918000 -2824.280000 655.537000 1 1.000000 4 -3.000000
79 2 676.982000 -2828.420000 647.087000 1 1.000000 1 -3.000000
80 2 673.769000 -2832.790000 638.877000 1 1.000000 1 -3.000000
81 2 671.845000 -2836.610000 629.927000 1 1.000000 1 -3.000000
82 2 668.200000 -2841.230000 621.928000 1 1.000000 1 -3.000000
83 2 665.054000 -2846.340000 613.793000 1 1.000000 1 -3.000000
84 2 663.912000 -2854.010000 607.657000 1 1.000000 1 -3.000000
85 2 661.062000 -2862.690000 603.900000 1 1.000000 1 -3.000000
86 2 657.563000 -2871.290000 600.298000 1 1.000000 1 -3.000000
87 2 656.498000 -2880.600000 596.829000 1 1.000000 1 -3.000000
88 2 659.425000 -2888.620000 591.769000 1 1.000000 1 -3.000000
89 2 660.826000 -2897.830000 588.542000 1 1.000000 1 -3.000000
90 2 663.631000 -2906.770000 585.654000 1 1.000000 1 -3.000000
91 2 666.181000 -2916.290000 585.646000 1 1.000000 1 -3.000000
92 2 669.978000 -2925.330000 585.138000 1 1.000000 1 -3.000000
93 2 674.338000 -2934.320000 585.071000 1 1.000000 1 -3.000000
94 2 677.425000 -2943.410000 582.650000 1 1.000000 1 -3.000000
95 2 680.268000 -2952.070000 578.663000 1 1.000000 1 -3.000000
96 2 681.242000 -2960.100000 572.904000 1 1.000000 1 -3.000000
97 2 682.008000 -2969.780000 570.609000 1 1.000000 1 -3.000000
98 2 685.389000 -2978.740000 568.104000 1 1.000000 1 -3.000000
99 2 687.551000 -2986.990000 563.112000 1 1.000000 1 -3.000000
100 2 688.621000 -2993.740000 555.828000 1 1.000000 1 -3.000000
101 2 688.005000 -3001.420000 549.605000 1 1.000000 1 -3.000000
102 2 685.883000 -3009.700000 544.371000 1 1.000000 5 -3.000000
103 1 672.953000 -2988.200000 504.404000 1 1.000000 5 0.000000
104 3 674.773000 -2961.720000 527.315000 1 1.000000 5 0.000000
105 2 658.537000 -2951.000000 479.273000 1 1.000000 5 -3.000000
106 2 665.338000 -2945.800000 484.273000 1 1.000000 1 -3.000000
107 2 671.554000 -2940.020000 489.443000 1 1.000000 1 -3.000000
108 2 676.525000 -2934.180000 495.718000 1 1.000000 1 -3.000000
109 2 681.327000 -2926.750000 500.015000 1 1.000000 1 -3.000000
110 2 685.286000 -2919.350000 505.250000 1 1.000000 1 -3.000000
111 2 688.445000 -2910.460000 508.423000 1 1.000000 1 -3.000000
112 2 690.647000 -2902.060000 513.186000 1 1.000000 1 -3.000000
113 2 691.791000 -2892.360000 513.937000 1 1.000000 1 -3.000000
114 2 692.737000 -2883.410000 509.782000 1 1.000000 1 -3.000000
115 2 694.673000 -2873.970000 507.120000 1 1.000000 1 -3.000000
116 2 698.099000 -2864.760000 505.945000 1 1.000000 1 -3.000000
117 2 701.803000 -2855.560000 504.150000 1 1.000000 1 -3.000000
118 2 707.197000 -2847.710000 501.635000 1 1.000000 1 -3.000000
119 2 712.822000 -2839.950000 498.626000 1 1.000000 1 -3.000000
120 2 716.866000 -2831.320000 495.967000 1 1.000000 1 -3.000000
121 2 719.755000 -2822.750000 492.214000 1 1.000000 1 -3.000000
122 2 724.043000 -2814.060000 489.693000 1 1.000000 1 -3.000000
123 2 730.606000 -2807.710000 485.997000 1 1.000000 1 -3.000000
124 2 737.217000 -2801.160000 482.729000 1 1.000000 1 -3.000000
125 2 744.956000 -2797.010000 478.058000 1 1.000000 1 -3.000000
126 2 749.722000 -2789.310000 473.991000 1 1.000000 1 -3.000000
127 2 753.824000 -2783.330000 467.153000 1 1.000000 1 -3.000000
128 2 757.780000 -2776.080000 461.633000 1 1.000000 1 -3.000000
129 2 764.438000 -2770.950000 456.347000 1 1.000000 6 -3.000000
130 1 744.925000 -2787.010000 416.486000 1 1.000000 6 0.000000
131 3 719.419000 -2791.420000 440.012000 1 1.000000 6 0.000000
132 2 710.863000 -2808.320000 391.771000 1 1.000000 6 -3.000000
133 2 702.512000 -2806.150000 396.598000 1 1.000000 1 -3.000000
134 2 694.574000 -2803.820000 401.884000 1 1.000000 1 -3.000000
135 2 688.798000 -2800.310000 408.968000 1 1.000000 1 -3.000000
136 2 683.249000 -2794.120000 414.257000 1 1.000000 1 -3.000000
137 2 677.368000 -2788.290000 419.787000 1 1.000000 1 -3.000000
138 2 671.289000 -2782.070000 424.457000 1 1.000000 1 -3.000000
139 2 663.946000 -2775.340000 424.313000 1 1.000000 1 -3.000000
140 2 656.847000 -2768.480000 425.641000 1 1.000000 1 -3.000000
141 2 651.138000 -2761.670000 429.893000 1 1.000000 1 -3.000000
142 2 647.684000 -2754.700000 435.884000 1 1.000000 1 -3.000000
143 2 642.650000 -2748.480000 441.615000 1 1.000000 1 -3.000000
144 2 637.888000 -2740.560000 445.209000 1 1.000000 1 -3.000000
145 2 633.724000 -2732.170000 448.536000 1 1.000000 1 -3.000000
146 2 630.538000 -2723.910000 453.049000 1 1.000000 1 -3.000000
147 2 625.637000 -2716.240000 456.726000 1 1.000000 1 -3.000000
148 2 623.647000 -2707.210000 460.240000 1 1.000000 1 -3.000000
149 2 619.861000 -2698.260000 462.198000 1 1.000000 1 -3.000000
150 2 615.541000 -2689.520000 461.334000 1 1.000000 1 -3.000000
151 2 611.788000 -2680.740000 458.834000 1 1.000000 1 -3.000000
152 2 611.035000 -2671.220000 456.185000 1 1.000000 1 -3.000000
153 2 611.453000 -2662.550000 451.636000 1 1.000000 1 -3.000000
154 2 615.788000 -2654.720000 447.717000 1 1.000000 1 -3.000000
155 2 618.254000 -2646.070000 443.608000 1 1.000000 1 -3.000000
156 2 623.606000 -2640.330000 437.590000 1 1.000000 7 -3.000000
157 1 608.099000 -2662.130000 398.797000 1 1.000000 7 0.000000
158 3 599.460000 -2684.380000 424.184000 1 1.000000 7 0.000000
159 2 588.248000 -2698.060000 375.516000 1 1.000000 7 -3.000000
160 2 582.746000 -2701.130000 383.162000 1 1.000000 1 -3.000000
161 2 576.327000 -2703.010000 390.471000 1 1.000000 1 -3.000000
162 2 570.216000 -2706.760000 397.309000 1 1.000000 1 -3.000000
163 2 567.076000 -2709.760000 406.205000 1 1.000000 1 -3.000000
164 2 565.289000 -2710.190000 415.828000 1 1.000000 1 -3.000000
165 2 568.003000 -2710.050000 425.356000 1 1.000000 1 -3.000000
166 2 569.791000 -2712.010000 434.887000 1 1.000000 1 -3.000000
167 2 568.485000 -2716.720000 443.671000 1 1.000000 1 -3.000000
168 2 567.252000 -2721.980000 451.862000 1 1.000000 1 -3.000000
169 2 564.857000 -2727.040000 460.032000 1 1.000000 1 -3.000000
170 2 560.710000 -2732.480000 467.236000 1 1.000000 1 -3.000000
171 2 557.614000 -2736.570000 475.600000 1 1.000000 1 -3.000000
172 2 558.125000 -2741.220000 484.272000 1 1.000000 1 -3.000000
173 2 557.791000 -2745.960000 492.992000 1 1.000000 1 -3.000000
174 2 552.746000 -2750.850000 499.838000 1 1.000000 1 -3.000000
175 2 549.953000 -2756.700000 507.287000 1 1.000000 1 -3.000000
176 2 549.164000 -2762.990000 514.801000 1 1.000000 1 -3.000000
177 2 548.043000 -2770.850000 520.836000 1 1.000000 1 -3.000000
178 2 547.413000 -2780.600000 523.078000 1 1.000000 1 -3.000000
179 2 545.869000 -2790.260000 524.696000 1 1.000000 1 -3.000000
180 2 543.240000 -2799.160000 528.195000 1 1.000000 1 -3.000000
181 2 540.260000 -2807.840000 531.445000 1 1.000000 1 -3.000000
182 2 533.391000 -2814.900000 532.733000 1 1.000000 1 -3.000000
183 2 526.306000 -2821.590000 534.114000 1 1.000000 8 -3.000000
184 1 499.154000 -2787.540000 552.207000 1 1.000000 8 0.000000
185 3 531.287000 -2773.910000 554.156000 1 1.000000 8 0.000000
186 2 492.109000 -2746.620000 574.613000 1 1.000000 8 -3.000000
187 2 501.658000 -2744.390000 574.476000 1 1.000000 1 -3.000000
188 2 510.576000 -2742.320000 570.626000 1 1.000000 1 -3.000000
189 2 518.043000 -2736.130000 568.225000 1 1.000000 1 -3.000000
190 2 526.245000 -2731.720000 564.994000 1 1.000000 1 -3.000000
191 2 533.131000 -2728.830000 558.728000 1 1.000000 1 -3.000000
192 2 541.291000 -2727.740000 553.283000 1 1.000000 1 -3.000000
193 2 550.120000 -2728.510000 548.740000 1 1.000000 1 -3.000000
194 2 558.995000 -2727.860000 544.122000 1 1.000000 1 -3.000000
195 2 568.473000 -2726.690000 541.316000 1 1.000000 1 -3.000000
196 2 578.167000 -2726.320000 539.403000 1 1.000000 1 -3.000000
197 2 586.898000 -2726.310000 534.580000 1 1.000000 1 -3.000000
198 2 594.193000 -2726.270000 527.893000 1 1.000000 1 -3.000000
199 2 601.356000 -2726.820000 521.111000 1 1.000000 1 -3.000000
200 2 608.758000 -2729.090000 514.965000 1 1.000000 1 -3.000000
201 2 612.945000 -2734.650000 507.861000 1 1.000000 1 -3.000000
202 2 619.608000 -2738.620000 501.638000 1 1.000000 1 -3.000000
203 2 626.667000 -2743.170000 496.170000 1 1.000000 1 -3.000000
204 2 635.163000 -2744.230000 491.147000 1 1.000000 1 -3.000000
205 2 644.681000 -2746.000000 488.854000 1 1.000000 1 -3.000000
206 2 652.725000 -2751.430000 487.357000 1 1.000000 1 -3.000000
207 2 660.188000 -2757.880000 487.443000 1 1.000000 1 -3.000000
208 2 667.723000 -2764.390000 486.603000 1 1.000000 1 -3.000000
209 2 674.636000 -2770.220000 482.520000 1 1.000000 1 -3.000000
210 2 682.361000 -2775.740000 479.870000 1 1.000000 9 -3.000000
211 1 693.992000 -2785.420000 524.516000 1 1.000000 9 0.000000
212 3 671.828000 -2758.710000 527.867000 1 1.000000 9 0.000000
213 2 692.274000 -2778.650000 571.159000 1 1.000000 9 -3.000000
214 2 684.336000 -2773.540000 573.926000 1 1.000000 1 -3.000000
215 2 676.128000 -2768.300000 571.791000 1 1.000000 1 -3.000000
216 2 667.890000 -2763.440000 569.373000 1 1.000000 1 -3.000000
217 2 660.838000 -2757.230000 566.507000 1 1.000000 1 -3.000000
218 2 654.369000 -2749.990000 564.477000 1 1.000000 1 -3.000000
219 2 647.857000 -2742.500000 564.476000 1 1.000000 1 -3.000000
220 2 641.034000 -2735.330000 563.970000 1 1.000000 1 -3.000000
221 2 634.547000 -2728.270000 566.444000 1 1.000000 1 -3.000000
222 2 628.596000 -2720.810000 568.827000 1 1.000000 1 -3.000000
223 2 625.229000 -2712.300000 572.533000 1 1.000000 1 -3.000000
224 2 620.381000 -2704.570000 576.424000 1 1.000000 1 -3.000000
225 2 616.204000 -2695.650000 576.872000 1 1.000000 1 -3.000000
226 2 610.725000 -2687.450000 575.504000 1 1.000000 1 -3.000000
227 2 604.880000 -2680.630000 571.761000 1 1.000000 1 -3.000000
228 2 598.430000 -2673.670000 568.725000 1 1.000000 1 -3.000000
229 2 592.065000 -2667.640000 564.313000 1 1.000000 1 -3.000000
230 2 586.818000 -2659.740000 561.314000 1 1.000000 1 -3.000000
231 2 580.550000 -2652.150000 561.367000 1 1.000000 1 -3.000000
232 2 576.388000 -2644.000000 557.464000 1 1.000000 1 -3.000000
233 2 572.842000 -2635.400000 554.131000 1 1.000000 1 -3.000000
234 2 568.591000 -2627.500000 550.138000 1 1.000000 1 -3.000000
235 2 561.734000 -2620.890000 547.466000 1 1.000000 1 -3.000000
236 2 555.622000 -2612.930000 547.327000 1 1.000000 1 -3.000000
237 2 551.731000 -2603.990000 549.003000 1 1.000000 10 -3.000000
238 1 520.457000 -2619.910000 580.551000 1 1.000000 10 0.000000
239 3 550.975000 -2631.820000 592.690000 1 1.000000 10 0.000000
240 2 508.300000 -2641.710000 620.626000 1 1.000000 10 -3.000000
241 2 516.766000 -2641.600000 625.826000 1 1.000000 1 -3.000000
242 2 525.804000 -2639.980000 629.654000 1 1.000000 1 -3.000000
243 2 534.473000 -2637.240000 633.594000 1 1.000000 1 -3.000000
244 2 544.289000 -2636.960000 633.704000 1 1.000000 1 -3.000000
245 2 554.052000 -2638.080000 634.333000 1 1.000000 1 -3.000000
246 2 563.602000 -2640.540000 634.566000 1 1.000000 1 -3.000000
247 2 573.238000 -2642.770000 634.963000 1 1.000000 1 -3.000000
248 2 582.942000 -2644.870000 635.518000 1 1.000000 1 -3.000000
249 2 592.312000 -2646.800000 637.742000 1 1.000000 1 -3.000000
250 2 599.157000 -2653.680000 638.898000 1 1.000000 1 -3.000000
251 2 607.424000 -2659.250000 639.048000 1 1.000000 1 -3.000000
252 2 616.030000 -2663.990000 639.925000 1 1.000000 1 -3.000000
253 2 624.760000 -2667.910000 637.313000 1 1.000000 1 -3.000000
254 2 633.461000 -2672.680000 638.553000 1 1.000000 1 -3.000000
255 2 642.287000 -2677.250000 639.613000 1 1.000000 1 -3.000000
256 2 650.741000 -2682.260000 641.062000 1 1.000000 1 -3.000000
257 2 660.382000 -2683.530000 641.617000 1 1.000000 1 -3.000000
258 2 668.254000 -2689.380000 640.617000 1 1.000000 1 -3.000000
259 2 676.734000 -2694.020000 638.427000 1 1.000000 1 -3.000000
260 2 682.233000 -2700.840000 634.086000 1 1.000000 1 -3.000000
261 2 685.480000 -2708.480000 628.722000 1 1.000000 1 -3.000000
262 2 688.658000 -2715.580000 622.477000 1 1.000000 1 -3.000000
263 2 690.263000 -2722.870000 616.016000 1 1.000000 1 -3.000000
264 2 689.039000 -2729.220000 608.385000 1 1.000000 11 -3.000000
265 1 685.340000 -2702.050000 570.019000 1 1.000000 11 0.000000
266 3 687.980000 -2678.840000 596.257000 1 1.000000 11 0.000000
267 2 681.570000 -2660.500000 547.950000 1 1.000000 11 -3.000000
268 2 682.820000 -2656.170000 556.818000 1 1.000000 1 -3.000000
269 2 683.741000 -2649.850000 564.345000 1 1.000000 1 -3.000000
270 2 686.719000 -2644.490000 571.853000 1 1.000000 1 -3.000000
271 2 691.944000 -2640.750000 579.336000 1 1.000000 1 -3.000000
272 2 696.484000 -2638.900000 587.946000 1 1.000000 1 -3.000000
273 2 698.416000 -2635.980000 597.360000 1 1.000000 1 -3.000000
274 2 701.089000 -2634.690000 606.831000 1 1.000000 1 -3.000000
275 2 702.563000 -2632.020000 616.330000 1 1.000000 1 -3.000000
276 2 703.183000 -2630.810000 626.226000 1 1.000000 1 -3.000000
277 2 704.063000 -2627.730000 635.580000 1 1.000000 1 -3.000000
278 2 702.393000 -2623.300000 644.323000 1 1.000000 1 -3.000000
279 2 701.641000 -2618.220000 652.761000 1 1.000000 1 -3.000000
280 2 701.165000 -2616.080000 662.383000 1 1.000000 1 -3.000000
281 2 700.015000 -2614.940000 672.287000 1 1.000000 1 -3.000000
282 2 695.709000 -2615.230000 681.240000 1 1.000000 1 -3.000000
283 2 695.486000 -2615.100000 691.170000 1 1.000000 1 -3.000000
284 2 697.964000 -2616.990000 700.574000 1 1.000000 1 -3.000000
285 2 701.241000 -2615.410000 709.697000 1 1.000000 1 -3.000000
286 2 699.833000 -2614.440000 719.322000 1 1.000000 1 -3.000000
287 2 700.181000 -2614.420000 729.147000 1 1.000000 1 -3.000000
288 2 700.241000 -2616.030000 738.902000 1 1.000000 1 -3.000000
289 2 698.626000 -2616.920000 748.672000 1 1.000000 1 -3.000000
290 2 696.843000 -2620.680000 757.713000 1 1.000000 1 -3.000000
291 2 695.432000 -2621.700000 767.508000 1 1.000000 12 -3.000000
292 1 712.714000 -2665.570000 764.122000 1 1.000000 12 0.000000
293 3 724.957000 -2649.800000 735.429000 1 1.000000 12 0.000000
294 2 735.625000 -2700.170000 741.743000 1 1.000000 12 -3.000000
295 2 734.588000 -2694.850000 733.571000 1 1.000000 1 -3.000000
296 2 732.301000 -2690.120000 725.211000 1 1.000000 1 -3.000000
297 2 729.982000 -2686.850000 716.153000 1 1.000000 1 -3.000000
298 2 730.504000 -2683.400000 706.832000 1 1.000000 1 -3.000000
299 2 733.145000 -2680.100000 697.879000 1 1.000000 1 -3.000000
300 2 734.241000 -2674.920000 689.401000 1 1.000000 1 -3.000000
301 2 733.658000 -2672.950000 679.612000 1 1.000000 1 -3.000000
302 2 735.455000 -2670.950000 670.098000 1 1.000000 1 -3.000000
303 2 739.747000 -2667.920000 661.776000 1 1.000000 1 -3.000000
304 2 745.610000 -2667.560000 653.706000 1 1.000000 1 -3.000000
305 2 753.578000 -2666.090000 648.224000 1 1.000000 1 -3.000000
306 2 761.079000 -2667.220000 641.867000 1 1.000000 1 -3.000000
307 2 769.092000 -2670.680000 637.214000 1 1.000000 1 -3.000000
308 2 777.001000 -2676.420000 635.357000 1 1.000000 1 -3.000000
309 2 784.679000 -2682.330000 633.314000 1 1.000000 1 -3.000000
310 2 792.349000 -2688.230000 631.050000 1 1.000000 1 -3.000000
311 2 800.148000 -2693.970000 629.114000 1 1.000000 1 -3.000000
312 2 806.945000 -2698.050000 623.266000 1 1.000000 1 -3.000000
313 2 815.161000 -2702.940000 620.955000 1 1.000000 1 -3.000000
314 2 824.624000 -2705.160000 619.384000 1 1.000000 1 -3.000000
315 2 833.671000 -2707.780000 622.541000 1 1.000000 1 -3.000000
316 2 842.195000 -2712.600000 624.492000 1 1.000000 1 -3.000000
317 2 851.427000 -2713.580000 628.014000 1 1.000000 1 -3.000000
318 2 861.253000 -2714.520000 627.993000 1 1.000000 13 -3.000000
319 1 858.133000 -2743.300000 590.749000 1 1.000000 13 0.000000
320 3 824.815000 -2735.750000 597.699000 1 1.000000 13 0.000000
321 2 834.392000 -2766.510000 557.223000 1 1.000000 13 -3.000000
322 2 826.419000 -2760.730000 556.032000 1 1.000000 1 -3.000000
323 2 817.119000 -2757.480000 556.018000 1 1.000000 1 -3.000000
324 2 808.422000 -2753.780000 559.031000 1 1.000000 1 -3.000000
325 2 801.059000 -2749.550000 564.092000 1 1.000000 1 -3.000000
326 2 793.559000 -2744.700000 568.374000 1 1.000000 1 -3.000000
327 2 786.831000 -2739.040000 572.982000 1 1.000000 1 -3.000000
328 2 782.505000 -2730.020000 572.475000 1 1.000000 1 -3.000000
329 2 778.203000 -2721.240000 570.177000 1 1.000000 1 -3.000000
330 2 771.387000 -2714.890000 566.804000 1 1.000000 1 -3.000000
331 2 764.757000 -2709.850000 561.523000 1 1.000000 1 -3.000000
332 2 761.473000 -2704.480000 553.761000 1 1.000000 1 -3.000000
333 2 757.042000 -2699.820000 546.214000 1 1.000000 1 -3.000000
334 2 753.202000 -2695.950000 537.883000 1 1.000000 1 -3.000000
335 2 751.273000 -2692.860000 528.651000 1 1.000000 1 -3.000000
336 2 752.916000 -2690.570000 519.234000 1 1.000000 1 -3.000000
337 2 755.880000 -2687.140000 510.450000 1 1.000000 1 -3.000000
338 2 760.923000 -2681.600000 503.905000 1 1.000000 1 -3.000000
339 2 762.743000 -2674.390000 497.577000 1 1.000000 1 -3.000000
340 2 768.085000 -2667.490000 493.063000 1 1.000000 1 -3.000000
341 2 774.559000 -2664.030000 486.380000 1 1.000000 1 -3.000000
342 2 781.714000 -2658.390000 482.346000 1 1.000000 1 -3.000000
343 2 789.616000 -2654.850000 477.490000 1 1.000000 1 -3.000000
344 2 796.889000 -2650.700000 472.062000 1 1.000000 1 -3.000000
345 2 803.723000 -2648.980000 465.263000 1 1.000000 14 -3.000000
346 1 790.281000 -2679.930000 432.219000 1 1.000000 14 0.000000
347 3 763.633000 -2680.380000 455.006000 1 1.000000 14 0.000000
348 2 759.432000 -2709.400000 412.227000 1 1.000000 14 -3.000000
349 2 753.403000 -2702.870000 416.315000 1 1.000000 1 -3.000000
350 2 744.837000 -2699.610000 419.841000 1 1.000000 1 -3.000000
351 2 737.162000 -2694.520000 423.440000 1 1.000000 1 -3.000000
352 2 731.190000 -2689.770000 429.673000 1 1.000000 1 -3.000000
353 2 725.676000 -2685.970000 436.931000 1 1.000000 1 -3.000000
354 2 720.662000 -2682.110000 444.470000 1 1.000000 1 -3.000000
355 2 717.234000 -2676.640000 451.809000 1 1.000000 1 -3.000000
356 2 710.904000 -2672.220000 458.364000 1 1.000000 1 -3.000000
357 2 704.763000 -2667.000000 464.187000 1 1.000000 1 -3.000000
358 2 698.167000 -2661.290000 468.895000 1 1.000000 1 -3.000000
359 2 691.796000 -2657.480000 475.322000 1 1.000000 1 -3.000000
360 2 688.201000 -2650.700000 481.659000 1 1.000000 1 -3.000000
361 2 683.511000 -2644.590000 487.825000 1 1.000000 1 -3.000000
362 2 682.393000 -2636.680000 493.846000 1 1.000000 1 -3.000000
363 2 680.887000 -2629.290000 500.343000 1 1.000000 1 -3.000000
364 2 676.842000 -2621.920000 505.654000 1 1.000000 1 -3.000000
365 2 674.275000 -2615.650000 512.900000 1 1.000000 1 -3.000000
366 2 673.118000 -2609.410000 520.635000 1 1.000000 1 -3.000000
367 2 671.093000 -2603.840000 528.490000 1 1.000000 1 -3.000000
368 2 671.145000 -2599.180000 537.282000 1 1.000000 1 -3.000000
369 2 668.733000 -2595.840000 546.340000 1 1.000000 1 -3.000000
370 2 669.038000 -2594.070000 556.030000 1 1.000000 1 -3.000000
371 2 671.422000 -2592.330000 565.418000 1 1.000000 1 -3.000000
372 2 675.158000 -2590.400000 574.493000 1 1.000000 15 -3.000000
373 1 640.381000 -2592.810000 606.353000 1 1.000000 15 0.000000
374 3 625.344000 -2576.010000 579.411000 1 1.000000 15 0.000000
375 2 596.679000 -2584.000000 621.965000 1 1.000000 15 -3.000000
376 2 591.944000 -2585.900000 613.492000 1 1.000000 1 -3.000000
377 2 587.215000 -2586.380000 604.795000 1 1.000000 1 -3.000000
378 2 582.366000 -2581.900000 597.425000 1 1.000000 1 -3.000000
379 2 580.802000 -2575.550000 590.073000 1 1.000000 1 -3.000000
380 2 582.741000 -2569.250000 582.640000 1 1.000000 1 -3.000000
381 2 583.119000 -2562.740000 575.300000 1 1.000000 1 -3.000000
382 2 585.194000 -2557.960000 566.889000 1 1.000000 1 -3.000000
383 2 589.632000 -2554.780000 558.733000 1 1.000000 1 -3.000000
384 2 595.809000 -2549.650000 553.152000 1 1.000000 1 -3.000000
385 2 601.981000 -2546.050000 546.309000 1 1.000000 1 -3.000000
386 2 606.492000 -2541.530000 538.638000 1 1.000000 1 -3.000000
387 2 609.199000 -2538.660000 529.565000 1 1.000000 1 -3.000000
388 2 611.896000 -2534.700000 520.817000 1 1.000000 1 -3.000000
389 2 611.245000 -2530.830000 511.767000 1 1.000000 1 -3.000000
390 2 609.038000 -2528.820000 502.309000 1 1.000000 1 -3.000000
391 2 602.688000 -2527.410000 494.843000 1 1.000000 1 -3.000000
392 2 593.646000 -2527.280000 490.726000 1 1.000000 1 -3.000000
393 2 586.989000 -2528.380000 483.432000 1 1.000000 1 -3.000000
394 2 579.925000 -2530.270000 476.686000 1 1.000000 1 -3.000000
395 2 572.544000 -2533.380000 470.705000 1 1.000000 1 -3.000000
396 2 569.103000 -2534.940000 461.438000 1 1.000000 1 -3.000000
397 2 567.075000 -2536.410000 451.890000 1 1.000000 1 -3.000000
398 2 564.314000 -2536.860000 442.545000 1 1.000000 1 -3.000000
399 2 561.873000 -2539.680000 433.366000 1 1.000000 16 -3.000000
400 1 515.928000 -2550.020000 431.879000 1 1.000000 16 0.000000
401 3 521.586000 -2543.680000 465.896000 1 1.000000 16 0.000000
402 2 473.423000 -2556.590000 451.223000 1 1.000000 16 -3.000000
403 2 475.782000 -2547.430000 454.370000 1 1.000000 1 -3.000000
404 2 473.402000 -2537.860000 454.700000 1 1.000000 1 -3.000000
405 2 470.111000 -2528.600000 455.866000 1 1.000000 1 -3.000000
406 2 466.455000 -2519.420000 457.319000 1 1.000000 1 -3.000000
407 2 462.680000 -2511.300000 461.490000 1 1.000000 1 -3.000000
408 2 460.136000 -2501.760000 462.702000 1 1.000000 1 -3.000000
409 2 459.713000 -2491.970000 463.278000 1 1.000000 1 -3.000000
410 2 460.935000 -2482.470000 465.627000 1 1.000000 1 -3.000000
411 2 464.488000 -2473.370000 467.655000 1 1.000000 1 -3.000000
412 2 467.667000 -2463.830000 468.488000 1 1.000000 1 -3.000000
413 2 472.139000 -2455.800000 465.082000 1 1.000000 1 -3.000000
414 2 477.175000 -2448.290000 460.886000 1 1.000000 1 -3.000000
415 2 484.913000 -2441.900000 460.462000 1 1.000000 1 -3.000000
416 2 490.078000 -2433.690000 462.857000 1 1.000000 1 -3.000000
417 2 496.611000 -2426.600000 465.501000 1 1.000000 1 -3.000000
418 2 504.936000 -2421.950000 468.071000 1 1.000000 1 -3.000000
419 2 513.260000 -2420.720000 473.473000 1 1.000000 1 -3.000000
420 2 519.365000 -2424.480000 480.406000 1 1.000000 1 -3.000000
421 2 527.315000 -2428.140000 484.988000 1 1.000000 1 -3.000000
422 2 535.433000 -2431.860000 489.319000 1 1.000000 1 -3.000000
423 2 545.232000 -2433.360000 490.669000 1 1.000000 1 -3.000000
424 2 554.829000 -2434.360000 488.763000 1 1.000000 1 -3.000000
425 2 564.375000 -2436.900000 487.570000 1 1.000000 1 -3.000000
426 2 572.908000 -2440.400000 484.109000 1 1.000000 17 -3.000000
427 1 607.130000 -2426.910000 513.653000 1 1.000000 17 0.000000
428 3 581.213000 -2436.600000 535.173000 1 1.000000 17 0.000000
429 2 624.685000 -2417.320000 556.418000 1 1.000000 17 -3.000000
430 2 622.120000 -2426.330000 559.424000 1 1.000000 1 -3.000000
431 2 618.359000 -2434.640000 563.342000 1 1.000000 1 -3.000000
432 2 615.335000 -2443.140000 567.372000 1 1.000000 1 -3.000000
433 2 616.171000 -2451.280000 572.987000 1 1.000000 1 -3.000000
434 2 619.972000 -2456.450000 580.646000 1 1.000000 1 -3.000000
435 2 622.853000 -2461.090000 588.982000 1 1.000000 1 -3.000000
436 2 627.181000 -2463.240000 597.675000 1 1.000000 1 -3.000000
437 2 632.197000 -2462.190000 606.164000 1 1.000000 1 -3.000000
438 2 633.985000 -2461.650000 615.857000 1 1.000000 1 -3.000000
439 2 635.311000 -2458.690000 625.177000 1 1.000000 1 -3.000000
440 2 635.347000 -2453.040000 633.317000 1 1.000000 1 -3.000000
441 2 635.005000 -2446.810000 641.178000 1 1.000000 1 -3.000000
442 2 634.021000 -2439.460000 647.808000 1 1.000000 1 -3.000000
443 2 632.366000 -2431.000000 652.713000 1 1.000000 1 -3.000000
444 2 626.605000 -2423.570000 655.929000 1 1.000000 1 -3.000000
445 2 620.472000 -2415.790000 656.537000 1 1.000000 1 -3.000000
446 2 613.832000 -2409.420000 660.000000 1 1.000000 1 -3.000000
447 2 607.156000 -2402.120000 660.290000 1 1.000000 1 -3.000000
448 2 599.282000 -2396.420000 658.416000 1 1.000000 1 -3.000000
449 2 590.527000 -2393.720000 654.589000 1 1.000000 1 -3.000000
450 2 583.117000 -2390.950000 648.788000 1 1.000000 1 -3.000000
451 2 574.655000 -2389.190000 644.049000 1 1.000000 1 -3.000000
452 2 567.394000 -2384.090000 639.632000 1 1.000000 1 -3.000000
453 2 559.468000 -2381.840000 634.128000 1 1.000000 18 -3.000000
454 1 531.595000 -2347.280000 649.900000 1 1.000000 18 0.000000
455 3 562.967000 -2331.930000 648.425000 1 1.000000 18 0.000000
456 2 523.077000 -2303.740000 665.858000 1 1.000000 18 -3.000000
457 2 530.843000 -2298.760000 662.282000 1 1.000000 1 -3.000000
458 2 536.011000 -2294.060000 655.374000 1 1.000000 1 -3.000000
459 2 543.038000 -2290.970000 649.231000 1 1.000000 1 -3.000000
460 2 551.384000 -2291.210000 643.848000 1 1.000000 1 -3.000000
461 2 557.155000 -2291.180000 635.910000 1 1.000000 1 -3.000000
462 2 563.080000 -2289.680000 627.978000 1 1.000000 1 -3.000000
463 2 566.946000 -2289.540000 618.885000 1 1.000000 1 -3.000000
464 2 571.252000 -2292.840000 610.418000 1 1.000000 1 -3.000000
465 2 573.868000 -2296.000000 601.467000 1 1.000000 1 -3.000000