LAMMPS data file

4067 atoms
4067 ellipsoids
4516 bonds
8882 angles
0 dihedrals

3 atom types
5 bond types
12 angle types
0 dihedral types

-4631.092947 4670.465898 xlo xhi
-4631.092947 4670.465898 ylo yhi
-4631.092947 4670.465898 zlo zhi

Masses

1 196016.000000
2 1950.000000
3 19500.000000

Atoms

1 2 708.990000 -3207.290000 735.868000 1 1.000000 1 -3.000000
2 2 714.964000 -3214.170000 739.891000 1 1.000000 1 -3.000000
3 2 720.984000 -3221.760000 741.376000 1 1.000000 1 -3.000000
4 2 725.845000 -3228.900000 745.976000 1 1.000000 1 -3.000000
5 2 733.518000 -3231.180000 751.456000 1 1.000000 1 -3.000000
6 2 741.364000 -3232.500000 757.377000 1 1.000000 1 -3.000000
7 2 747.428000 -3236.420000 764.120000 1 1.000000 1 -3.000000
8 2 752.910000 -3241.360000 770.653000 1 1.000000 1 -3.000000
9 2 759.084000 -3246.350000 776.412000 1 1.000000 1 -3.000000
10 2 761.257000 -3250.220000 785.381000 1 1.000000 1 -3.000000
11 2 765.354000 -3254.040000 793.671000 1 1.000000 1 -3.000000
12 2 768.798000 -3259.360000 801.346000 1 1.000000 1 -3.000000
13 2 772.330000 -3265.810000 807.926000 1 1.000000 1 -3.000000
14 2 775.019000 -3271.410000 815.698000 1 1.000000 1 -3.000000
15 2 778.265000 -3278.360000 822.037000 1 1.000000 1 -3.000000
16 2 783.395000 -3285.710000 826.053000 1 1.000000 1 -3.000000
17 2 790.828000 -3292.190000 826.177000 1 1.000000 1 -3.000000
18 2 797.498000 -3296.850000 820.833000 1 1.000000 1 -3.000000
19 2 803.613000 -3302.010000 815.128000 1 1.000000 1 -3.000000
20 2 808.038000 -3307.300000 807.912000 1 1.000000 1 -3.000000
21 2 815.181000 -3311.430000 802.469000 1 1.000000 2 -3.000000
22 1 782.414000 -3345.210000 800.693000 1 1.000000 2 0.000000
23 3 763.339000 -3315.920000 801.306000 1 1.000000 2 0.000000
24 2 738.136000 -3361.210000 799.222000 1 1.000000 2 -3.000000
25 2 735.737000 -3352.100000 796.148000 1 1.000000 1 -3.000000
26 2 729.634000 -3344.330000 795.449000 1 1.000000 1 -3.000000
27 2 723.441000 -3337.090000 792.622000 1 1.000000 1 -3.000000
28 2 719.058000 -3328.200000 792.831000 1 1.000000 1 -3.000000
29 2 719.619000 -3318.850000 789.459000 1 1.000000 1 -3.000000
30 2 721.484000 -3309.300000 788.171000 1 1.000000 1 -3.000000
31 2 724.379000 -3300.460000 785.064000 1 1.000000 1 -3.000000
32 2 726.138000 -3292.100000 780.054000 1 1.000000 1 -3.000000
33 2 726.075000 -3287.040000 771.613000 1 1.000000 1 -3.000000
34 2 722.066000 -3282.490000 763.774000 1 1.000000 1 -3.000000
35 2 717.650000 -3278.360000 756.061000 1 1.000000 1 -3.000000
36 2 711.276000 -3274.320000 749.882000 1 1.000000 1 -3.000000
37 2 704.168000 -3274.990000 743.054000 1 1.000000 1 -3.000000
38 2 697.567000 -3270.660000 737.167000 1 1.000000 1 -3.000000
39 2 692.059000 -3271.170000 728.996000 1 1.000000 1 -3.000000
40 2 686.567000 -3275.480000 722.047000 1 1.000000 1 -3.000000
41 2 678.672000 -3278.500000 716.541000 1 1.000000 1 -3.000000
42 2 672.109000 -3283.270000 710.809000 1 1.000000 1 -3.000000
43 2 666.785000 -3288.450000 704.368000 1 1.000000 1 -3.000000
44 2 661.687000 -3295.960000 700.530000 1 1.000000 1 -3.000000
45 2 660.825000 -3303.950000 694.842000 1 1.000000 1 -3.000000
46 2 659.152000 -3312.790000 690.658000 1 1.000000 1 -3.000000
47 2 661.229000 -3321.090000 685.807000 1 1.000000 1 -3.000000
48 2 661.623000 -3329.370000 680.298000 1 1.000000 3 -3.000000
49 1 692.214000 -3312.690000 648.394000 1 1.000000 3 0.000000
50 3 701.884000 -3296.670000 677.776000 1 1.000000 3 0.000000
51 2 727.233000 -3284.450000 634.308000 1 1.000000 3 -3.000000
52 2 724.536000 -3275.190000 636.532000 1 1.000000 1 -3.000000
53 2 720.032000 -3266.330000 636.334000 1 1.000000 1 -3.000000
54 2 714.625000 -3258.100000 635.502000 1 1.000000 1 -3.000000
55 2 709.929000 -3249.950000 638.531000 1 1.000000 1 -3.000000
56 2 702.938000 -3243.650000 641.951000 1 1.000000 1 -3.000000
57 2 694.505000 -3238.840000 644.049000 1 1.000000 1 -3.000000
58 2 687.181000 -3232.840000 641.169000 1 1.000000 1 -3.000000
59 2 681.854000 -3228.870000 633.749000 1 1.000000 1 -3.000000
60 2 674.589000 -3225.980000 627.634000 1 1.000000 1 -3.000000
61 2 666.553000 -3226.710000 621.754000 1 1.000000 1 -3.000000
62 2 659.602000 -3224.300000 615.156000 1 1.000000 1 -3.000000
63 2 652.253000 -3222.930000 608.650000 1 1.000000 1 -3.000000
64 2 645.347000 -3225.000000 601.794000 1 1.000000 1 -3.000000
65 2 637.516000 -3227.030000 596.187000 1 1.000000 1 -3.000000
66 2 628.555000 -3227.710000 591.832000 1 1.000000 1 -3.000000
67 2 619.510000 -3228.830000 588.025000 1 1.000000 1 -3.000000
68 2 610.068000 -3228.310000 584.899000 1 1.000000 1 -3.000000
69 2 600.929000 -3230.850000 582.104000 1 1.000000 1 -3.000000
70 2 593.526000 -3234.470000 576.526000 1 1.000000 1 -3.000000
71 2 586.017000 -3238.670000 571.478000 1 1.000000 1 -3.000000
72 2 578.093000 -3243.560000 568.074000 1 1.000000 1 -3.000000
73 2 570.857000 -3246.800000 562.343000 1 1.000000 1 -3.000000
74 2 564.056000 -3249.860000 555.919000 1 1.000000 1 -3.000000
75 2 556.058000 -3252.730000 550.760000 1 1.000000 4 -3.000000
76 1 558.197000 -3213.010000 525.245000 1 1.000000 4 0.000000
77 3 573.147000 -3203.830000 555.479000 1 1.000000 4 0.000000
78 2 567.813000 -3167.290000 519.231000 1 1.000000 4 -3.000000
79 2 576.491000 -3169.450000 523.690000 1 1.000000 1 -3.000000
80 2 585.582000 -3170.210000 527.440000 1 1.000000 1 -3.000000
81 2 592.552000 -3169.990000 534.509000 1 1.000000 1 -3.000000
82 2 596.218000 -3170.480000 543.640000 1 1.000000 1 -3.000000
83 2 601.890000 -3169.010000 551.669000 1 1.000000 1 -3.000000
84 2 608.708000 -3164.510000 557.441000 1 1.000000 1 -3.000000
85 2 616.217000 -3164.210000 563.859000 1 1.000000 1 -3.000000
86 2 620.799000 -3163.500000 572.728000 1 1.000000 1 -3.000000
87 2 626.020000 -3161.020000 580.801000 1 1.000000 1 -3.000000
88 2 629.150000 -3158.630000 589.893000 1 1.000000 1 -3.000000
89 2 635.533000 -3154.690000 596.337000 1 1.000000 1 -3.000000
90 2 642.240000 -3152.250000 603.251000 1 1.000000 1 -3.000000
91 2 648.235000 -3149.270000 610.639000 1 1.000000 1 -3.000000
92 2 651.988000 -3146.690000 619.275000 1 1.000000 1 -3.000000
93 2 655.486000 -3141.490000 626.965000 1 1.000000 1 -3.000000
94 2 656.949000 -3133.480000 632.644000 1 1.000000 1 -3.000000
95 2 659.807000 -3124.590000 635.980000 1 1.000000 1 -3.000000
96 2 664.539000 -3116.380000 638.703000 1 1.000000 1 -3.000000
97 2 668.196000 -3108.400000 643.270000 1 1.000000 1 -3.000000
98 2 671.411000 -3099.930000 647.278000 1 1.000000 1 -3.000000
99 2 674.296000 -3091.670000 651.560000 1 1.000000 1 -3.000000
100 2 677.978000 -3083.260000 655.333000 1 1.000000 1 -3.000000
101 2 682.499000 -3076.140000 660.694000 1 1.000000 1 -3.000000
102 2 686.696000 -3071.500000 668.326000 1 1.000000 5 -3.000000
103 1 732.164000 -3082.870000 662.209000 1 1.000000 5 0.000000
104 3 716.075000 -3099.360000 635.985000 1 1.000000 5 0.000000
105 2 767.950000 -3101.750000 637.953000 1 1.000000 5 -3.000000
106 2 765.341000 -3103.140000 628.587000 1 1.000000 1 -3.000000
107 2 761.290000 -3104.260000 619.579000 1 1.000000 1 -3.000000
108 2 754.206000 -3102.140000 612.957000 1 1.000000 1 -3.000000
109 2 747.869000 -3097.410000 607.030000 1 1.000000 1 -3.000000
110 2 743.117000 -3093.380000 599.134000 1 1.000000 1 -3.000000
111 2 736.743000 -3091.250000 592.022000 1 1.000000 1 -3.000000
112 2 732.130000 -3088.010000 583.880000 1 1.000000 1 -3.000000
113 2 725.226000 -3086.740000 576.869000 1 1.000000 1 -3.000000
114 2 721.349000 -3081.680000 569.180000 1 1.000000 1 -3.000000
115 2 717.894000 -3075.320000 562.163000 1 1.000000 1 -3.000000
116 2 712.220000 -3070.290000 555.726000 1 1.000000 1 -3.000000
117 2 706.673000 -3065.230000 549.369000 1 1.000000 1 -3.000000
118 2 701.492000 -3059.450000 543.079000 1 1.000000 1 -3.000000
119 2 697.964000 -3051.460000 538.570000 1 1.000000 1 -3.000000
120 2 691.453000 -3044.590000 535.353000 1 1.000000 1 -3.000000
121 2 685.571000 -3036.880000 533.406000 1 1.000000 1 -3.000000
122 2 677.461000 -3031.130000 533.049000 1 1.000000 1 -3.000000
123 2 670.784000 -3023.840000 534.669000 1 1.000000 1 -3.000000
124 2 662.119000 -3019.300000 536.253000 1 1.000000 1 -3.000000
125 2 653.842000 -3014.310000 534.628000 1 1.000000 1 -3.000000
126 2 647.281000 -3007.560000 531.523000 1 1.000000 1 -3.000000
127 2 642.112000 -2999.330000 529.537000 1 1.000000 1 -3.000000
128 2 636.492000 -2991.320000 528.013000 1 1.000000 1 -3.000000
129 2 632.943000 -2982.330000 526.311000 1 1.000000 6 -3.000000
130 1 660.309000 -2963.980000 492.617000 1 1.000000 6 0.000000
131 3 683.152000 -2981.230000 512.663000 1 1.000000 6 0.000000
132 2 701.784000 -2954.780000 472.036000 1 1.000000 6 -3.000000
133 2 707.386000 -2959.740000 478.585000 1 1.000000 1 -3.000000
134 2 712.120000 -2964.510000 486.086000 1 1.000000 1 -3.000000
135 2 718.304000 -2968.220000 492.972000 1 1.000000 1 -3.000000
136 2 722.183000 -2974.140000 499.840000 1 1.000000 1 -3.000000
137 2 729.112000 -2977.280000 506.239000 1 1.000000 1 -3.000000
138 2 736.537000 -2982.020000 510.664000 1 1.000000 1 -3.000000
139 2 744.083000 -2985.450000 516.256000 1 1.000000 1 -3.000000
140 2 751.815000 -2989.820000 520.532000 1 1.000000 1 -3.000000
141 2 760.601000 -2992.350000 524.802000 1 1.000000 1 -3.000000
142 2 769.735000 -2995.110000 527.294000 1 1.000000 1 -3.000000
143 2 777.320000 -2997.580000 533.334000 1 1.000000 1 -3.000000
144 2 785.316000 -2997.920000 539.118000 1 1.000000 1 -3.000000
145 2 792.373000 -3000.510000 545.619000 1 1.000000 1 -3.000000
146 2 797.263000 -3000.880000 554.216000 1 1.000000 1 -3.000000
147 2 804.310000 -2999.570000 560.987000 1 1.000000 1 -3.000000
148 2 810.389000 -2996.880000 568.308000 1 1.000000 1 -3.000000
149 2 817.009000 -2994.970000 575.369000 1 1.000000 1 -3.000000
150 2 823.025000 -2991.110000 582.274000 1 1.000000 1 -3.000000
151 2 829.456000 -2987.190000 588.698000 1 1.000000 1 -3.000000
152 2 835.230000 -2984.940000 596.277000 1 1.000000 1 -3.000000
153 2 838.524000 -2981.470000 604.779000 1 1.000000 1 -3.000000
154 2 841.888000 -2978.220000 613.563000 1 1.000000 1 -3.000000
155 2 846.089000 -2974.340000 621.662000 1 1.000000 1 -3.000000
156 2 846.945000 -2972.110000 631.334000 1 1.000000 7 -3.000000
157 1 893.067000 -2969.590000 622.175000 1 1.000000 7 0.000000
158 3 878.740000 -2968.530000 590.314000 1 1.000000 7 0.000000
159 2 930.320000 -2963.870000 593.831000 1 1.000000 7 -3.000000
160 2 925.976000 -2962.720000 585.048000 1 1.000000 1 -3.000000
161 2 921.511000 -2962.590000 576.226000 1 1.000000 1 -3.000000
162 2 916.084000 -2961.900000 567.999000 1 1.000000 1 -3.000000
163 2 910.184000 -2961.990000 560.062000 1 1.000000 1 -3.000000
164 2 903.268000 -2960.600000 553.044000 1 1.000000 1 -3.000000
165 2 896.888000 -2963.580000 546.041000 1 1.000000 1 -3.000000
166 2 892.891000 -2963.960000 536.961000 1 1.000000 1 -3.000000
167 2 890.815000 -2964.160000 527.328000 1 1.000000 1 -3.000000
168 2 888.228000 -2963.900000 517.840000 1 1.000000 1 -3.000000
169 2 886.883000 -2966.100000 508.371000 1 1.000000 1 -3.000000
170 2 889.165000 -2968.900000 499.142000 1 1.000000 1 -3.000000
171 2 889.215000 -2971.380000 489.651000 1 1.000000 1 -3.000000
172 2 891.166000 -2971.810000 479.909000 1 1.000000 1 -3.000000
173 2 893.394000 -2972.880000 470.307000 1 1.000000 1 -3.000000
174 2 897.813000 -2976.040000 462.124000 1 1.000000 1 -3.000000
175 2 899.946000 -2976.210000 452.312000 1 1.000000 1 -3.000000
176 2 902.818000 -2976.210000 442.856000 1 1.000000 1 -3.000000
177 2 905.140000 -2972.440000 433.948000 1 1.000000 1 -3.000000
178 2 913.115000 -2971.810000 428.102000 1 1.000000 1 -3.000000
179 2 921.928000 -2970.800000 423.693000 1 1.000000 1 -3.000000
180 2 930.257000 -2967.110000 419.917000 1 1.000000 1 -3.000000
181 2 939.353000 -2969.410000 416.585000 1 1.000000 1 -3.000000
182 2 948.157000 -2970.690000 412.169000 1 1.000000 1 -3.000000
183 2 955.885000 -2975.790000 408.508000 1 1.000000 8 -3.000000
184 1 964.325000 -2929.570000 403.819000 1 1.000000 8 0.000000
185 3 932.299000 -2930.300000 418.125000 1 1.000000 8 0.000000
186 2 954.401000 -2884.020000 411.470000 1 1.000000 8 -3.000000
187 2 946.871000 -2886.260000 417.407000 1 1.000000 1 -3.000000
188 2 937.307000 -2887.210000 419.811000 1 1.000000 1 -3.000000
189 2 928.882000 -2886.610000 425.039000 1 1.000000 1 -3.000000
190 2 920.666000 -2883.140000 429.392000 1 1.000000 1 -3.000000
191 2 912.112000 -2878.270000 431.120000 1 1.000000 1 -3.000000
192 2 903.400000 -2873.990000 429.917000 1 1.000000 1 -3.000000
193 2 893.662000 -2873.590000 431.796000 1 1.000000 1 -3.000000
194 2 884.498000 -2871.150000 434.413000 1 1.000000 1 -3.000000
195 2 874.945000 -2869.770000 436.662000 1 1.000000 1 -3.000000
196 2 865.223000 -2870.990000 436.550000 1 1.000000 1 -3.000000
197 2 855.361000 -2871.630000 437.462000 1 1.000000 1 -3.000000
198 2 845.495000 -2870.950000 437.898000 1 1.000000 1 -3.000000
199 2 836.822000 -2874.720000 435.187000 1 1.000000 1 -3.000000
200 2 827.513000 -2872.910000 432.218000 1 1.000000 1 -3.000000
201 2 818.286000 -2869.250000 432.117000 1 1.000000 1 -3.000000
202 2 811.002000 -2862.720000 430.416000 1 1.000000 1 -3.000000
203 2 806.177000 -2854.170000 430.836000 1 1.000000 1 -3.000000
204 2 803.844000 -2844.660000 429.565000 1 1.000000 1 -3.000000
205 2 799.713000 -2836.020000 427.327000 1 1.000000 1 -3.000000
206 2 798.875000 -2826.230000 428.209000 1 1.000000 1 -3.000000
207 2 799.954000 -2816.990000 424.562000 1 1.000000 1 -3.000000
208 2 803.085000 -2807.880000 422.344000 1 1.000000 1 -3.000000
209 2 810.274000 -2801.190000 420.454000 1 1.000000 1 -3.000000
210 2 818.587000 -2796.140000 418.428000 1 1.000000 9 -3.000000
211 1 802.555000 -2784.190000 375.726000 1 1.000000 9 0.000000
212 3 774.058000 -2796.150000 391.871000 1 1.000000 9 0.000000
213 2 768.441000 -2777.740000 343.709000 1 1.000000 9 -3.000000
214 2 759.659000 -2778.730000 348.078000 1 1.000000 1 -3.000000
215 2 751.312000 -2778.470000 353.436000 1 1.000000 1 -3.000000
216 2 744.126000 -2782.410000 358.943000 1 1.000000 1 -3.000000
217 2 739.067000 -2783.690000 367.422000 1 1.000000 1 -3.000000
218 2 734.522000 -2785.400000 376.064000 1 1.000000 1 -3.000000
219 2 730.975000 -2787.610000 384.930000 1 1.000000 1 -3.000000
220 2 730.725000 -2793.630000 392.775000 1 1.000000 1 -3.000000
221 2 728.448000 -2796.540000 402.075000 1 1.000000 1 -3.000000
222 2 722.511000 -2796.050000 409.906000 1 1.000000 1 -3.000000
223 2 717.744000 -2794.020000 418.314000 1 1.000000 1 -3.000000
224 2 711.833000 -2791.110000 425.780000 1 1.000000 1 -3.000000
225 2 703.642000 -2787.150000 429.792000 1 1.000000 1 -3.000000
226 2 697.142000 -2781.170000 434.354000 1 1.000000 1 -3.000000
227 2 692.270000 -2773.910000 439.100000 1 1.000000 1 -3.000000
228 2 686.458000 -2767.750000 444.032000 1 1.000000 1 -3.000000
229 2 680.074000 -2760.080000 444.349000 1 1.000000 1 -3.000000
230 2 673.583000 -2752.650000 445.398000 1 1.000000 1 -3.000000
231 2 665.290000 -2747.190000 445.655000 1 1.000000 1 -3.000000
232 2 660.751000 -2738.810000 443.149000 1 1.000000 1 -3.000000
233 2 657.277000 -2730.010000 440.337000 1 1.000000 1 -3.000000
234 2 654.193000 -2720.820000 438.835000 1 1.000000 1 -3.000000
235 2 652.968000 -2710.970000 438.181000 1 1.000000 1 -3.000000
236 2 651.346000 -2701.230000 439.340000 1 1.000000 1 -3.000000
237 2 652.725000 -2692.340000 443.518000 1 1.000000 10 -3.000000
238 1 689.306000 -2712.100000 465.754000 1 1.000000 10 0.000000
239 3 678.980000 -2737.140000 443.436000 1 1.000000 10 0.000000
240 2 720.799000 -2746.420000 473.195000 1 1.000000 10 -3.000000
241 2 713.317000 -2752.220000 470.289000 1 1.000000 1 -3.000000
242 2 705.562000 -2758.300000 469.442000 1 1.000000 1 -3.000000
243 2 697.039000 -2763.210000 470.255000 1 1.000000 1 -3.000000
244 2 687.570000 -2766.120000 470.002000 1 1.000000 1 -3.000000
245 2 678.063000 -2768.600000 471.221000 1 1.000000 1 -3.000000
246 2 668.380000 -2770.550000 472.367000 1 1.000000 1 -3.000000
247 2 660.654000 -2776.540000 473.044000 1 1.000000 1 -3.000000
248 2 651.218000 -2779.680000 473.711000 1 1.000000 1 -3.000000
249 2 641.888000 -2779.190000 476.986000 1 1.000000 1 -3.000000
250 2 632.936000 -2780.460000 480.992000 1 1.000000 1 -3.000000
251 2 624.489000 -2782.300000 485.770000 1 1.000000 1 -3.000000
252 2 617.516000 -2782.800000 492.727000 1 1.000000 1 -3.000000
253 2 609.808000 -2783.990000 498.852000 1 1.000000 1 -3.000000
254 2 602.057000 -2784.770000 504.781000 1 1.000000 1 -3.000000
255 2 597.747000 -2784.180000 513.688000 1 1.000000 1 -3.000000
256 2 591.887000 -2786.450000 521.294000 1 1.000000 1 -3.000000
257 2 588.161000 -2789.640000 529.941000 1 1.000000 1 -3.000000
258 2 589.578000 -2796.780000 536.512000 1 1.000000 1 -3.000000
259 2 585.525000 -2803.600000 542.540000 1 1.000000 1 -3.000000
260 2 582.075000 -2810.610000 548.737000 1 1.000000 1 -3.000000
261 2 578.505000 -2816.420000 556.064000 1 1.000000 1 -3.000000
262 2 575.467000 -2821.140000 564.273000 1 1.000000 1 -3.000000
263 2 574.486000 -2825.340000 573.283000 1 1.000000 1 -3.000000
264 2 575.870000 -2827.080000 583.020000 1 1.000000 11 -3.000000
265 1 547.227000 -2792.690000 597.927000 1 1.000000 11 0.000000
266 3 543.498000 -2791.740000 563.192000 1 1.000000 11 0.000000
267 2 519.513000 -2755.100000 591.163000 1 1.000000 11 -3.000000
268 2 517.879000 -2758.870000 582.253000 1 1.000000 1 -3.000000
269 2 514.532000 -2762.950000 573.861000 1 1.000000 1 -3.000000
270 2 514.138000 -2766.730000 564.654000 1 1.000000 1 -3.000000
271 2 510.408000 -2768.460000 555.703000 1 1.000000 1 -3.000000
272 2 504.711000 -2771.200000 548.068000 1 1.000000 1 -3.000000
273 2 501.522000 -2774.480000 539.195000 1 1.000000 1 -3.000000
274 2 495.029000 -2779.660000 533.756000 1 1.000000 1 -3.000000
275 2 490.950000 -2785.620000 526.979000 1 1.000000 1 -3.000000
276 2 486.268000 -2793.020000 522.396000 1 1.000000 1 -3.000000
277 2 482.655000 -2800.740000 517.272000 1 1.000000 1 -3.000000
278 2 478.059000 -2808.690000 513.520000 1 1.000000 1 -3.000000
279 2 473.512000 -2817.580000 513.945000 1 1.000000 1 -3.000000
280 2 472.271000 -2827.410000 515.256000 1 1.000000 1 -3.000000
281 2 471.942000 -2837.130000 514.115000 1 1.000000 1 -3.000000
282 2 466.529000 -2845.270000 512.726000 1 1.000000 1 -3.000000
283 2 460.734000 -2853.090000 511.192000 1 1.000000 1 -3.000000
284 2 454.760000 -2860.970000 511.495000 1 1.000000 1 -3.000000
285 2 449.863000 -2869.560000 511.684000 1 1.000000 1 -3.000000
286 2 443.141000 -2876.750000 511.674000 1 1.000000 1 -3.000000
287 2 436.844000 -2884.390000 511.692000 1 1.000000 1 -3.000000
288 2 433.993000 -2892.930000 515.952000 1 1.000000 1 -3.000000
289 2 428.312000 -2900.710000 518.555000 1 1.000000 1 -3.000000
290 2 421.347000 -2907.800000 518.692000 1 1.000000 1 -3.000000
291 2 413.575000 -2913.980000 518.613000 1 1.000000 12 -3.000000
292 1 375.091000 -2886.790000 515.894000 1 1.000000 12 0.000000
293 3 399.920000 -2866.740000 501.580000 1 1.000000 12 0.000000
294 2 352.274000 -2846.700000 505.767000 1 1.000000 12 -3.000000
295 2 357.157000 -2844.100000 497.551000 1 1.000000 1 -3.000000
296 2 363.541000 -2842.360000 490.117000 1 1.000000 1 -3.000000
297 2 369.324000 -2841.960000 482.110000 1 1.000000 1 -3.000000
298 2 376.075000 -2838.420000 475.773000 1 1.000000 1 -3.000000
299 2 383.294000 -2833.730000 471.095000 1 1.000000 1 -3.000000
300 2 388.880000 -2829.770000 463.977000 1 1.000000 1 -3.000000
301 2 395.616000 -2826.690000 457.547000 1 1.000000 1 -3.000000
302 2 402.253000 -2820.800000 453.098000 1 1.000000 1 -3.000000
303 2 408.797000 -2816.530000 446.984000 1 1.000000 1 -3.000000
304 2 415.074000 -2813.130000 440.171000 1 1.000000 1 -3.000000
305 2 420.676000 -2808.890000 433.302000 1 1.000000 1 -3.000000
306 2 424.223000 -2805.840000 424.521000 1 1.000000 1 -3.000000
307 2 428.820000 -2802.020000 416.735000 1 1.000000 1 -3.000000
308 2 429.860000 -2796.380000 408.760000 1 1.000000 1 -3.000000
309 2 432.435000 -2788.390000 403.502000 1 1.000000 1 -3.000000
310 2 434.415000 -2780.450000 397.979000 1 1.000000 1 -3.000000
311 2 436.418000 -2774.490000 390.306000 1 1.000000 1 -3.000000
312 2 438.735000 -2769.150000 382.265000 1 1.000000 1 -3.000000
313 2 438.425000 -2761.660000 375.748000 1 1.000000 1 -3.000000
314 2 439.581000 -2753.060000 370.933000 1 1.000000 1 -3.000000
315 2 438.028000 -2744.610000 365.865000 1 1.000000 1 -3.000000
316 2 437.197000 -2735.340000 362.586000 1 1.000000 1 -3.000000
317 2 438.656000 -2726.490000 358.179000 1 1.000000 1 -3.000000
318 2 442.123000 -2717.870000 355.050000 1 1.000000 13 -3.000000
319 1 405.966000 -2714.910000 324.812000 1 1.000000 13 0.000000
320 3 396.707000 -2741.340000 346.058000 1 1.000000 13 0.000000
321 2 364.257000 -2728.530000 307.476000 1 1.000000 13 -3.000000
322 2 362.475000 -2732.650000 316.265000 1 1.000000 1 -3.000000
323 2 360.344000 -2739.100000 323.336000 1 1.000000 1 -3.000000
324 2 357.680000 -2746.150000 329.783000 1 1.000000 1 -3.000000
325 2 353.015000 -2751.730000 336.483000 1 1.000000 1 -3.000000
326 2 352.773000 -2758.740000 343.441000 1 1.000000 1 -3.000000
327 2 356.167000 -2762.860000 351.764000 1 1.000000 1 -3.000000
328 2 360.679000 -2763.890000 360.495000 1 1.000000 1 -3.000000
329 2 363.644000 -2763.620000 369.823000 1 1.000000 1 -3.000000
330 2 369.196000 -2763.900000 377.939000 1 1.000000 1 -3.000000
331 2 374.963000 -2766.820000 385.653000 1 1.000000 1 -3.000000
332 2 380.310000 -2766.300000 393.928000 1 1.000000 1 -3.000000
333 2 383.498000 -2761.660000 402.019000 1 1.000000 1 -3.000000
334 2 386.628000 -2755.610000 409.095000 1 1.000000 1 -3.000000
335 2 390.685000 -2752.930000 417.751000 1 1.000000 1 -3.000000
336 2 391.662000 -2753.670000 427.554000 1 1.000000 1 -3.000000
337 2 393.720000 -2753.020000 437.198000 1 1.000000 1 -3.000000
338 2 396.749000 -2751.200000 446.350000 1 1.000000 1 -3.000000
339 2 397.832000 -2746.340000 454.907000 1 1.000000 1 -3.000000
340 2 398.777000 -2741.240000 463.397000 1 1.000000 1 -3.000000
341 2 399.035000 -2735.760000 471.711000 1 1.000000 1 -3.000000
342 2 396.697000 -2731.490000 480.369000 1 1.000000 1 -3.000000
343 2 394.400000 -2726.930000 488.843000 1 1.000000 1 -3.000000
344 2 393.302000 -2725.170000 498.405000 1 1.000000 1 -3.000000
345 2 392.750000 -2720.970000 507.471000 1 1.000000 14 -3.000000
346 1 437.773000 -2709.270000 515.581000 1 1.000000 14 0.000000
347 3 435.676000 -2709.360000 480.668000 1 1.000000 14 0.000000
348 2 482.273000 -2701.340000 501.882000 1 1.000000 14 -3.000000
349 2 480.540000 -2696.760000 493.481000 1 1.000000 1 -3.000000
350 2 478.974000 -2692.080000 484.943000 1 1.000000 1 -3.000000
351 2 476.591000 -2685.050000 478.372000 1 1.000000 1 -3.000000
352 2 473.120000 -2677.920000 472.387000 1 1.000000 1 -3.000000
353 2 470.135000 -2668.780000 470.520000 1 1.000000 1 -3.000000
354 2 467.745000 -2660.300000 466.141000 1 1.000000 1 -3.000000
355 2 466.259000 -2651.800000 461.302000 1 1.000000 1 -3.000000
356 2 464.123000 -2642.880000 457.866000 1 1.000000 1 -3.000000
357 2 457.605000 -2635.720000 455.824000 1 1.000000 1 -3.000000
358 2 451.355000 -2628.330000 453.893000 1 1.000000 1 -3.000000
359 2 444.701000 -2622.520000 449.340000 1 1.000000 1 -3.000000
360 2 438.016000 -2618.020000 443.747000 1 1.000000 1 -3.000000
361 2 431.643000 -2615.690000 436.573000 1 1.000000 1 -3.000000
362 2 422.527000 -2613.240000 433.313000 1 1.000000 1 -3.000000
363 2 413.568000 -2610.800000 429.951000 1 1.000000 1 -3.000000
364 2 405.432000 -2606.980000 425.898000 1 1.000000 1 -3.000000
365 2 400.642000 -2600.720000 419.660000 1 1.000000 1 -3.000000
366 2 397.900000 -2596.350000 411.163000 1 1.000000 1 -3.000000
367 2 391.577000 -2594.040000 403.857000 1 1.000000 1 -3.000000
368 2 383.348000 -2589.980000 400.273000 1 1.000000 1 -3.000000
369 2 375.806000 -2586.520000 394.722000 1 1.000000 1 -3.000000
370 2 366.786000 -2582.570000 394.690000 1 1.000000 1 -3.000000
371 2 358.615000 -2577.130000 395.097000 1 1.000000 1 -3.000000
372 2 350.334000 -2572.860000 391.680000 1 1.000000 15 -3.000000
373 1 325.517000 -2589.950000 427.991000 1 1.000000 15 0.000000
374 3 358.239000 -2599.820000 435.342000 1 1.000000 15 0.000000
375 2 320.777000 -2613.190000 468.729000 1 1.000000 15 -3.000000
376 2 330.145000 -2614.660000 472.282000 1 1.000000 1 -3.000000
377 2 339.872000 -2616.150000 474.168000 1 1.000000 1 -3.000000
378 2 349.653000 -2616.910000 475.291000 1 1.000000 1 -3.000000
379 2 359.379000 -2618.370000 475.931000 1 1.000000 1 -3.000000
380 2 368.555000 -2621.850000 474.443000 1 1.000000 1 -3.000000
381 2 378.257000 -2623.910000 474.122000 1 1.000000 1 -3.000000
382 2 388.121000 -2625.280000 474.683000 1 1.000000 1 -3.000000
383 2 397.453000 -2626.630000 477.775000 1 1.000000 1 -3.000000
384 2 406.716000 -2626.270000 481.389000 1 1.000000 1 -3.000000
385 2 415.804000 -2627.530000 485.121000 1 1.000000 1 -3.000000
386 2 424.577000 -2628.250000 489.955000 1 1.000000 1 -3.000000
387 2 432.658000 -2628.870000 495.629000 1 1.000000 1 -3.000000
388 2 441.433000 -2627.550000 499.929000 1 1.000000 1 -3.000000
389 2 448.589000 -2624.410000 506.273000 1 1.000000 1 -3.000000
390 2 452.690000 -2621.930000 514.884000 1 1.000000 1 -3.000000
391 2 458.298000 -2619.740000 522.746000 1 1.000000 1 -3.000000
392 2 465.017000 -2617.410000 529.747000 1 1.000000 1 -3.000000
393 2 467.627000 -2616.290000 539.145000 1 1.000000 1 -3.000000
394 2 471.275000 -2613.700000 547.986000 1 1.000000 1 -3.000000
395 2 476.021000 -2612.090000 556.604000 1 1.000000 1 -3.000000
396 2 479.066000 -2609.710000 565.709000 1 1.000000 1 -3.000000
397 2 481.415000 -2612.080000 574.948000 1 1.000000 1 -3.000000
398 2 487.044000 -2617.070000 581.336000 1 1.000000 1 -3.000000
399 2 490.774000 -2621.480000 589.334000 1 1.000000 16 -3.000000
400 1 522.185000 -2586.450000 593.086000 1 1.000000 16 0.000000
401 3 508.331000 -2581.370000 561.392000 1 1.000000 16 0.000000
402 2 546.733000 -2549.790000 576.532000 1 1.000000 16 -3.000000
403 2 543.193000 -2550.650000 567.391000 1 1.000000 1 -3.000000
404 2 539.072000 -2550.310000 558.301000 1 1.000000 1 -3.000000
405 2 536.372000 -2554.040000 549.602000 1 1.000000 1 -3.000000
406 2 532.647000 -2557.780000 541.161000 1 1.000000 1 -3.000000
407 2 526.251000 -2562.950000 535.664000 1 1.000000 1 -3.000000
408 2 518.386000 -2564.850000 529.783000 1 1.000000 1 -3.000000
409 2 511.798000 -2566.590000 522.436000 1 1.000000 1 -3.000000
410 2 504.383000 -2567.990000 516.362000 1 1.000000 1 -3.000000
411 2 497.291000 -2566.710000 509.879000 1 1.000000 1 -3.000000
412 2 491.241000 -2561.840000 503.770000 1 1.000000 1 -3.000000
413 2 484.040000 -2560.160000 497.093000 1 1.000000 1 -3.000000
414 2 476.402000 -2556.080000 492.551000 1 1.000000 1 -3.000000
415 2 467.231000 -2553.610000 489.422000 1 1.000000 1 -3.000000
416 2 458.117000 -2550.340000 487.335000 1 1.000000 1 -3.000000
417 2 449.621000 -2545.180000 488.180000 1 1.000000 1 -3.000000
418 2 443.352000 -2538.450000 491.586000 1 1.000000 1 -3.000000
419 2 439.179000 -2529.410000 492.057000 1 1.000000 1 -3.000000
420 2 435.440000 -2520.310000 491.469000 1 1.000000 1 -3.000000
421 2 433.859000 -2510.530000 491.265000 1 1.000000 1 -3.000000
422 2 432.266000 -2500.990000 488.937000 1 1.000000 1 -3.000000
423 2 430.102000 -2492.430000 484.341000 1 1.000000 1 -3.000000
424 2 431.180000 -2483.750000 479.692000 1 1.000000 1 -3.000000
425 2 432.726000 -2475.820000 474.062000 1 1.000000 1 -3.000000
426 2 433.626000 -2468.660000 467.165000 1 1.000000 17 -3.000000
427 1 480.572000 -2465.420000 467.364000 1 1.000000 17 0.000000
428 3 474.673000 -2496.370000 482.532000 1 1.000000 17 0.000000
429 2 523.982000 -2481.140000 476.869000 1 1.000000 17 -3.000000
430 2 529.639000 -2483.370000 469.127000 1 1.000000 1 -3.000000
431 2 538.632000 -2485.590000 465.699000 1 1.000000 1 -3.000000
432 2 547.682000 -2486.490000 461.858000 1 1.000000 1 -3.000000
433 2 556.408000 -2483.760000 457.923000 1 1.000000 1 -3.000000
434 2 563.848000 -2481.530000 451.872000 1 1.000000 1 -3.000000
435 2 567.642000 -2475.830000 444.731000 1 1.000000 1 -3.000000
436 2 570.677000 -2470.340000 436.972000 1 1.000000 1 -3.000000
437 2 571.712000 -2466.510000 427.942000 1 1.000000 1 -3.000000
438 2 573.067000 -2461.690000 419.359000 1 1.000000 1 -3.000000
439 2 573.652000 -2457.540000 410.351000 1 1.000000 1 -3.000000
440 2 573.958000 -2450.040000 403.778000 1 1.000000 1 -3.000000
441 2 574.374000 -2442.040000 397.901000 1 1.000000 1 -3.000000
442 2 571.777000 -2432.750000 395.776000 1 1.000000 1 -3.000000
443 2 571.223000 -2422.910000 395.460000 1 1.000000 1 -3.000000
444 2 571.622000 -2413.010000 396.260000 1 1.000000 1 -3.000000
445 2 570.586000 -2403.460000 398.629000 1 1.000000 1 -3.000000
446 2 570.050000 -2393.640000 399.923000 1 1.000000 1 -3.000000
447 2 571.463000 -2384.140000 402.169000 1 1.000000 1 -3.000000
448 2 571.390000 -2374.180000 403.324000 1 1.000000 1 -3.000000
449 2 567.039000 -2365.320000 404.216000 1 1.000000 1 -3.000000
450 2 563.430000 -2356.170000 405.073000 1 1.000000 1 -3.000000
451 2 565.358000 -2346.500000 406.625000 1 1.000000 1 -3.000000
452 2 569.399000 -2337.480000 407.237000 1 1.000000 1 -3.000000
453 2 571.400000 -2327.880000 408.544000 1 1.000000 18 -3.000000
454 1 613.665000 -2316.350000 391.052000 1 1.000000 18 0.000000
455 3 603.708000 -2343.130000 370.798000 1 1.000000 18 0.000000
456 2 648.347000 -2319.420000 359.189000 1 1.000000 18 -3.000000
457 2 641.737000 -2321.670000 352.113000 1 1.000000 1 -3.000000
458 2 635.645000 -2324.320000 344.751000 1 1.000000 1 -3.000000
459 2 630.639000 -2328.360000 337.191000 1 1.000000 1 -3.000000
460 2 623.994000 -2333.520000 332.085000 1 1.000000 1 -3.000000
461 2 617.666000 -2339.740000 327.639000 1 1.000000 1 -3.000000
462 2 610.630000 -2343.930000 322.111000 1 1.000000 1 -3.000000
463 2 603.272000 -2345.710000 315.723000 1 1.000000 1 -3.000000
464 2 593.575000 -2345.700000 313.446000 1 1.000000 1 -3.000000
465 2 584.614000 -2346.310000 309.518000 1 1.000000 1 -3.000000