LAMMPS data file

4067 atoms
4067 ellipsoids
4516 bonds
8882 angles
0 dihedrals

3 atom types
5 bond types
12 angle types
0 dihedral types

-4631.092947 4670.465898 xlo xhi
-4631.092947 4670.465898 ylo yhi
-4631.092947 4670.465898 zlo zhi

Masses

1 196016.000000
2 1950.000000
3 19500.000000

Atoms

1 2 629.899000 -3231.330000 574.273000 1 1.000000 1 -3.000000
2 2 629.318000 -3232.520000 584.043000 1 1.000000 1 -3.000000
3 2 630.697000 -3232.990000 593.937000 1 1.000000 1 -3.000000
4 2 632.379000 -3232.100000 603.680000 1 1.000000 1 -3.000000
5 2 631.018000 -3227.600000 612.543000 1 1.000000 1 -3.000000
6 2 626.728000 -3221.400000 618.850000 1 1.000000 1 -3.000000
7 2 621.596000 -3215.130000 624.549000 1 1.000000 1 -3.000000
8 2 615.049000 -3210.940000 630.427000 1 1.000000 1 -3.000000
9 2 611.142000 -3206.510000 638.391000 1 1.000000 1 -3.000000
10 2 606.129000 -3201.370000 645.329000 1 1.000000 1 -3.000000
11 2 603.442000 -3195.810000 653.111000 1 1.000000 1 -3.000000
12 2 600.635000 -3190.550000 661.017000 1 1.000000 1 -3.000000
13 2 598.256000 -3187.030000 669.998000 1 1.000000 1 -3.000000
14 2 597.333000 -3181.850000 678.283000 1 1.000000 1 -3.000000
15 2 595.121000 -3175.490000 685.639000 1 1.000000 1 -3.000000
16 2 594.245000 -3169.400000 693.543000 1 1.000000 1 -3.000000
17 2 595.029000 -3166.320000 702.957000 1 1.000000 1 -3.000000
18 2 596.046000 -3161.440000 711.465000 1 1.000000 1 -3.000000
19 2 598.525000 -3155.790000 719.352000 1 1.000000 1 -3.000000
20 2 601.605000 -3151.270000 727.593000 1 1.000000 1 -3.000000
21 2 602.755000 -3144.830000 735.018000 1 1.000000 2 -3.000000
22 1 584.099000 -3104.600000 718.936000 1 1.000000 2 0.000000
23 3 581.245000 -3126.370000 691.693000 1 1.000000 2 0.000000
24 2 562.474000 -3078.130000 686.371000 1 1.000000 2 -3.000000
25 2 558.397000 -3084.740000 680.150000 1 1.000000 1 -3.000000
26 2 558.097000 -3093.600000 675.553000 1 1.000000 1 -3.000000
27 2 556.349000 -3100.500000 668.642000 1 1.000000 1 -3.000000
28 2 552.581000 -3108.740000 664.537000 1 1.000000 1 -3.000000
29 2 550.414000 -3117.010000 659.482000 1 1.000000 1 -3.000000
30 2 554.284000 -3125.840000 656.523000 1 1.000000 1 -3.000000
31 2 554.596000 -3135.360000 653.796000 1 1.000000 1 -3.000000
32 2 556.148000 -3145.030000 652.180000 1 1.000000 1 -3.000000
33 2 558.056000 -3154.200000 648.924000 1 1.000000 1 -3.000000
34 2 563.108000 -3162.260000 646.753000 1 1.000000 1 -3.000000
35 2 566.753000 -3171.090000 644.005000 1 1.000000 1 -3.000000
36 2 567.937000 -3179.240000 638.651000 1 1.000000 1 -3.000000
37 2 570.480000 -3187.770000 634.675000 1 1.000000 1 -3.000000
38 2 574.405000 -3194.770000 628.824000 1 1.000000 1 -3.000000
39 2 577.137000 -3200.480000 621.305000 1 1.000000 1 -3.000000
40 2 582.435000 -3202.340000 613.092000 1 1.000000 1 -3.000000
41 2 587.828000 -3198.230000 605.755000 1 1.000000 1 -3.000000
42 2 593.823000 -3195.090000 598.596000 1 1.000000 1 -3.000000
43 2 600.615000 -3192.090000 591.763000 1 1.000000 1 -3.000000
44 2 605.876000 -3187.270000 584.817000 1 1.000000 1 -3.000000
45 2 609.972000 -3181.620000 577.803000 1 1.000000 1 -3.000000
46 2 616.196000 -3180.780000 570.084000 1 1.000000 1 -3.000000
47 2 622.516000 -3179.810000 562.630000 1 1.000000 1 -3.000000
48 2 631.010000 -3178.440000 557.610000 1 1.000000 3 -3.000000
49 1 626.315000 -3223.980000 546.427000 1 1.000000 3 0.000000
50 3 597.214000 -3217.150000 564.706000 1 1.000000 3 0.000000
51 2 603.214000 -3265.090000 545.300000 1 1.000000 3 -3.000000
52 2 593.688000 -3262.940000 546.976000 1 1.000000 1 -3.000000
53 2 585.922000 -3257.660000 549.769000 1 1.000000 1 -3.000000
54 2 576.940000 -3253.550000 551.424000 1 1.000000 1 -3.000000
55 2 570.530000 -3250.710000 558.265000 1 1.000000 1 -3.000000
56 2 564.056000 -3246.620000 564.456000 1 1.000000 1 -3.000000
57 2 556.317000 -3242.070000 568.705000 1 1.000000 1 -3.000000
58 2 547.867000 -3238.030000 572.065000 1 1.000000 1 -3.000000
59 2 539.995000 -3233.330000 575.583000 1 1.000000 1 -3.000000
60 2 530.338000 -3232.070000 576.404000 1 1.000000 1 -3.000000
61 2 520.906000 -3228.970000 577.009000 1 1.000000 1 -3.000000
62 2 511.569000 -3225.790000 576.014000 1 1.000000 1 -3.000000
63 2 504.133000 -3221.170000 571.453000 1 1.000000 1 -3.000000
64 2 495.169000 -3217.230000 570.492000 1 1.000000 1 -3.000000
65 2 486.110000 -3213.970000 568.202000 1 1.000000 1 -3.000000
66 2 476.762000 -3213.300000 564.913000 1 1.000000 1 -3.000000
67 2 469.011000 -3211.820000 558.954000 1 1.000000 1 -3.000000
68 2 461.986000 -3214.310000 552.432000 1 1.000000 1 -3.000000
69 2 454.204000 -3218.720000 548.315000 1 1.000000 1 -3.000000
70 2 445.765000 -3222.470000 544.265000 1 1.000000 1 -3.000000
71 2 436.786000 -3226.190000 542.610000 1 1.000000 1 -3.000000
72 2 427.370000 -3228.680000 541.310000 1 1.000000 1 -3.000000
73 2 418.101000 -3228.220000 538.096000 1 1.000000 1 -3.000000
74 2 408.642000 -3230.100000 535.520000 1 1.000000 1 -3.000000
75 2 399.208000 -3232.020000 533.733000 1 1.000000 4 -3.000000
76 1 384.315000 -3191.190000 552.101000 1 1.000000 4 0.000000
77 3 418.995000 -3189.780000 556.567000 1 1.000000 4 0.000000
78 2 390.492000 -3149.860000 573.826000 1 1.000000 4 -3.000000
79 2 399.811000 -3147.590000 576.231000 1 1.000000 1 -3.000000
80 2 408.963000 -3147.880000 580.149000 1 1.000000 1 -3.000000
81 2 418.226000 -3150.000000 583.004000 1 1.000000 1 -3.000000
82 2 427.246000 -3152.930000 579.841000 1 1.000000 1 -3.000000
83 2 436.226000 -3154.630000 576.239000 1 1.000000 1 -3.000000
84 2 445.627000 -3155.920000 573.660000 1 1.000000 1 -3.000000
85 2 454.371000 -3156.090000 568.960000 1 1.000000 1 -3.000000
86 2 463.861000 -3154.510000 566.633000 1 1.000000 1 -3.000000
87 2 473.704000 -3153.380000 565.964000 1 1.000000 1 -3.000000
88 2 482.810000 -3150.560000 568.541000 1 1.000000 1 -3.000000
89 2 490.632000 -3147.650000 573.645000 1 1.000000 1 -3.000000
90 2 500.037000 -3146.410000 576.431000 1 1.000000 1 -3.000000
91 2 508.823000 -3142.590000 578.927000 1 1.000000 1 -3.000000
92 2 517.909000 -3139.110000 580.593000 1 1.000000 1 -3.000000
93 2 525.358000 -3132.890000 582.833000 1 1.000000 1 -3.000000
94 2 531.598000 -3125.380000 584.373000 1 1.000000 1 -3.000000
95 2 539.598000 -3119.710000 584.278000 1 1.000000 1 -3.000000
96 2 547.501000 -3113.680000 584.100000 1 1.000000 1 -3.000000
97 2 554.643000 -3106.920000 583.240000 1 1.000000 1 -3.000000
98 2 558.464000 -3098.630000 579.724000 1 1.000000 1 -3.000000
99 2 559.886000 -3091.230000 573.353000 1 1.000000 1 -3.000000
100 2 559.453000 -3082.790000 568.232000 1 1.000000 1 -3.000000
101 2 561.156000 -3077.170000 560.163000 1 1.000000 1 -3.000000
102 2 561.669000 -3072.000000 551.679000 1 1.000000 5 -3.000000
103 1 515.736000 -3063.740000 544.582000 1 1.000000 5 0.000000
104 3 518.830000 -3062.460000 579.418000 1 1.000000 5 0.000000
105 2 472.529000 -3051.490000 559.037000 1 1.000000 5 -3.000000
106 2 477.106000 -3046.140000 565.953000 1 1.000000 1 -3.000000
107 2 482.690000 -3041.610000 572.761000 1 1.000000 1 -3.000000
108 2 487.072000 -3035.920000 579.438000 1 1.000000 1 -3.000000
109 2 491.564000 -3034.260000 588.142000 1 1.000000 1 -3.000000
110 2 495.293000 -3031.170000 596.773000 1 1.000000 1 -3.000000
111 2 500.339000 -3028.960000 604.829000 1 1.000000 1 -3.000000
112 2 504.916000 -3025.940000 613.147000 1 1.000000 1 -3.000000
113 2 509.890000 -3023.720000 621.473000 1 1.000000 1 -3.000000
114 2 515.660000 -3023.160000 629.506000 1 1.000000 1 -3.000000
115 2 520.373000 -3020.260000 637.684000 1 1.000000 1 -3.000000
116 2 522.095000 -3015.600000 646.197000 1 1.000000 1 -3.000000
117 2 525.222000 -3013.120000 655.226000 1 1.000000 1 -3.000000
118 2 529.792000 -3006.660000 661.330000 1 1.000000 1 -3.000000
119 2 536.156000 -3001.640000 667.010000 1 1.000000 1 -3.000000
120 2 544.127000 -2996.100000 669.196000 1 1.000000 1 -3.000000
121 2 551.604000 -2989.810000 671.328000 1 1.000000 1 -3.000000
122 2 559.148000 -2983.860000 673.778000 1 1.000000 1 -3.000000
123 2 565.133000 -2977.800000 678.819000 1 1.000000 1 -3.000000
124 2 570.896000 -2973.430000 685.488000 1 1.000000 1 -3.000000
125 2 579.329000 -2972.150000 690.725000 1 1.000000 1 -3.000000
126 2 588.732000 -2970.670000 693.527000 1 1.000000 1 -3.000000
127 2 597.446000 -2969.270000 697.980000 1 1.000000 1 -3.000000
128 2 606.042000 -2967.370000 702.627000 1 1.000000 1 -3.000000
129 2 615.267000 -2969.540000 705.591000 1 1.000000 6 -3.000000
130 1 612.267000 -3016.380000 710.170000 1 1.000000 6 0.000000
131 3 596.468000 -3010.210000 679.478000 1 1.000000 6 0.000000
132 2 599.526000 -3059.480000 695.948000 1 1.000000 6 -3.000000
133 2 600.331000 -3057.470000 686.326000 1 1.000000 1 -3.000000
134 2 599.598000 -3054.450000 677.004000 1 1.000000 1 -3.000000
135 2 598.109000 -3053.600000 667.319000 1 1.000000 1 -3.000000
136 2 592.415000 -3050.240000 659.914000 1 1.000000 1 -3.000000
137 2 588.657000 -3045.600000 652.081000 1 1.000000 1 -3.000000
138 2 583.923000 -3038.740000 646.587000 1 1.000000 1 -3.000000
139 2 579.240000 -3034.110000 639.209000 1 1.000000 1 -3.000000
140 2 574.571000 -3029.580000 631.807000 1 1.000000 1 -3.000000
141 2 567.669000 -3027.230000 625.246000 1 1.000000 1 -3.000000
142 2 563.099000 -3024.920000 616.745000 1 1.000000 1 -3.000000
143 2 563.998000 -3020.270000 608.214000 1 1.000000 1 -3.000000
144 2 563.346000 -3015.590000 599.706000 1 1.000000 1 -3.000000
145 2 562.896000 -3011.400000 590.716000 1 1.000000 1 -3.000000
146 2 562.275000 -3007.190000 581.684000 1 1.000000 1 -3.000000
147 2 566.745000 -3002.500000 574.259000 1 1.000000 1 -3.000000
148 2 569.154000 -2994.770000 568.697000 1 1.000000 1 -3.000000
149 2 575.394000 -2988.440000 564.682000 1 1.000000 1 -3.000000
150 2 583.199000 -2982.330000 564.032000 1 1.000000 1 -3.000000
151 2 593.020000 -2982.330000 563.327000 1 1.000000 1 -3.000000
152 2 601.825000 -2986.370000 565.043000 1 1.000000 1 -3.000000
153 2 610.699000 -2990.470000 563.901000 1 1.000000 1 -3.000000
154 2 617.791000 -2996.820000 561.308000 1 1.000000 1 -3.000000
155 2 624.695000 -3001.140000 555.736000 1 1.000000 1 -3.000000
156 2 629.732000 -3006.020000 548.957000 1 1.000000 7 -3.000000
157 1 670.489000 -2990.980000 567.349000 1 1.000000 7 0.000000
158 3 650.772000 -2962.060000 566.804000 1 1.000000 7 0.000000
159 2 699.217000 -2958.030000 585.104000 1 1.000000 7 -3.000000
160 2 692.536000 -2952.770000 590.025000 1 1.000000 1 -3.000000
161 2 685.267000 -2946.510000 592.529000 1 1.000000 1 -3.000000
162 2 677.632000 -2942.810000 597.632000 1 1.000000 1 -3.000000
163 2 670.715000 -2937.980000 602.484000 1 1.000000 1 -3.000000
164 2 660.926000 -2936.500000 602.654000 1 1.000000 1 -3.000000
165 2 651.280000 -2936.420000 600.548000 1 1.000000 1 -3.000000
166 2 643.024000 -2932.510000 596.594000 1 1.000000 1 -3.000000
167 2 633.573000 -2929.280000 595.830000 1 1.000000 1 -3.000000
168 2 626.151000 -2923.750000 592.577000 1 1.000000 1 -3.000000
169 2 621.028000 -2915.670000 590.564000 1 1.000000 1 -3.000000
170 2 616.690000 -2906.830000 589.504000 1 1.000000 1 -3.000000
171 2 612.874000 -2898.180000 586.622000 1 1.000000 1 -3.000000
172 2 610.897000 -2890.020000 581.347000 1 1.000000 1 -3.000000
173 2 608.614000 -2884.970000 573.161000 1 1.000000 1 -3.000000
174 2 612.345000 -2878.370000 566.945000 1 1.000000 1 -3.000000
175 2 617.706000 -2874.320000 559.881000 1 1.000000 1 -3.000000
176 2 622.809000 -2868.150000 554.086000 1 1.000000 1 -3.000000
177 2 628.450000 -2863.060000 547.672000 1 1.000000 1 -3.000000
178 2 633.626000 -2857.390000 541.439000 1 1.000000 1 -3.000000
179 2 641.859000 -2852.450000 538.993000 1 1.000000 1 -3.000000
180 2 651.881000 -2852.420000 539.444000 1 1.000000 1 -3.000000
181 2 661.552000 -2854.070000 540.638000 1 1.000000 1 -3.000000
182 2 669.990000 -2851.840000 545.262000 1 1.000000 1 -3.000000
183 2 679.276000 -2849.080000 547.060000 1 1.000000 8 -3.000000
184 1 673.379000 -2825.000000 587.271000 1 1.000000 8 0.000000
185 3 642.212000 -2840.160000 582.469000 1 1.000000 8 0.000000
186 2 649.308000 -2813.200000 626.088000 1 1.000000 8 -3.000000
187 2 643.805000 -2821.330000 625.612000 1 1.000000 1 -3.000000
188 2 636.329000 -2827.870000 625.074000 1 1.000000 1 -3.000000
189 2 630.754000 -2835.850000 626.699000 1 1.000000 1 -3.000000
190 2 627.866000 -2845.160000 625.225000 1 1.000000 1 -3.000000
191 2 621.993000 -2853.000000 623.817000 1 1.000000 1 -3.000000
192 2 615.692000 -2859.910000 620.908000 1 1.000000 1 -3.000000
193 2 608.887000 -2866.380000 617.678000 1 1.000000 1 -3.000000
194 2 603.031000 -2872.600000 612.634000 1 1.000000 1 -3.000000
195 2 595.114000 -2876.310000 608.113000 1 1.000000 1 -3.000000
196 2 587.338000 -2879.600000 603.001000 1 1.000000 1 -3.000000
197 2 578.969000 -2883.290000 599.111000 1 1.000000 1 -3.000000
198 2 570.337000 -2886.150000 595.418000 1 1.000000 1 -3.000000
199 2 563.501000 -2887.070000 588.286000 1 1.000000 1 -3.000000
200 2 554.587000 -2888.550000 584.063000 1 1.000000 1 -3.000000
201 2 548.384000 -2890.490000 576.424000 1 1.000000 1 -3.000000
202 2 542.863000 -2893.420000 568.870000 1 1.000000 1 -3.000000
203 2 539.442000 -2902.480000 570.715000 1 1.000000 1 -3.000000
204 2 533.496000 -2910.190000 569.179000 1 1.000000 1 -3.000000
205 2 528.442000 -2917.810000 565.343000 1 1.000000 1 -3.000000
206 2 521.800000 -2924.970000 563.633000 1 1.000000 1 -3.000000
207 2 514.912000 -2931.880000 561.756000 1 1.000000 1 -3.000000
208 2 509.195000 -2939.710000 563.439000 1 1.000000 1 -3.000000
209 2 504.890000 -2948.130000 566.096000 1 1.000000 1 -3.000000
210 2 501.220000 -2957.060000 568.847000 1 1.000000 9 -3.000000
211 1 510.983000 -2964.040000 614.448000 1 1.000000 9 0.000000
212 3 522.421000 -2931.440000 608.748000 1 1.000000 9 0.000000
213 2 525.533000 -2950.200000 657.073000 1 1.000000 9 -3.000000
214 2 530.315000 -2941.650000 656.181000 1 1.000000 1 -3.000000
215 2 535.939000 -2933.480000 654.994000 1 1.000000 1 -3.000000
216 2 540.347000 -2925.210000 651.697000 1 1.000000 1 -3.000000
217 2 540.563000 -2915.430000 650.112000 1 1.000000 1 -3.000000
218 2 537.511000 -2906.150000 649.240000 1 1.000000 1 -3.000000
219 2 533.493000 -2897.450000 646.659000 1 1.000000 1 -3.000000
220 2 530.802000 -2888.860000 642.368000 1 1.000000 1 -3.000000
221 2 528.803000 -2880.710000 637.243000 1 1.000000 1 -3.000000
222 2 528.728000 -2872.310000 632.136000 1 1.000000 1 -3.000000
223 2 529.833000 -2863.170000 628.348000 1 1.000000 1 -3.000000
224 2 530.675000 -2854.360000 623.984000 1 1.000000 1 -3.000000
225 2 528.827000 -2846.620000 618.069000 1 1.000000 1 -3.000000
226 2 527.918000 -2841.190000 609.938000 1 1.000000 1 -3.000000
227 2 525.858000 -2838.750000 600.515000 1 1.000000 1 -3.000000
228 2 524.082000 -2834.120000 592.062000 1 1.000000 1 -3.000000
229 2 523.818000 -2830.600000 582.777000 1 1.000000 1 -3.000000
230 2 525.184000 -2826.140000 574.194000 1 1.000000 1 -3.000000
231 2 529.546000 -2819.570000 568.300000 1 1.000000 1 -3.000000
232 2 533.099000 -2813.370000 561.514000 1 1.000000 1 -3.000000
233 2 534.460000 -2807.270000 553.712000 1 1.000000 1 -3.000000
234 2 533.264000 -2799.780000 547.339000 1 1.000000 1 -3.000000
235 2 535.191000 -2793.570000 539.863000 1 1.000000 1 -3.000000
236 2 535.004000 -2786.560000 532.748000 1 1.000000 1 -3.000000
237 2 534.095000 -2781.060000 524.676000 1 1.000000 10 -3.000000
238 1 576.726000 -2771.300000 506.743000 1 1.000000 10 0.000000
239 3 582.925000 -2774.490000 540.941000 1 1.000000 10 0.000000
240 2 623.745000 -2768.190000 509.369000 1 1.000000 10 -3.000000
241 2 624.675000 -2774.840000 516.788000 1 1.000000 1 -3.000000
242 2 627.668000 -2779.520000 525.006000 1 1.000000 1 -3.000000
243 2 628.289000 -2781.330000 534.733000 1 1.000000 1 -3.000000
244 2 625.867000 -2784.120000 543.879000 1 1.000000 1 -3.000000
245 2 624.419000 -2786.540000 553.391000 1 1.000000 1 -3.000000
246 2 621.181000 -2787.780000 562.541000 1 1.000000 1 -3.000000
247 2 617.314000 -2789.320000 571.484000 1 1.000000 1 -3.000000
248 2 614.754000 -2792.080000 580.581000 1 1.000000 1 -3.000000
249 2 613.810000 -2792.660000 590.251000 1 1.000000 1 -3.000000
250 2 610.486000 -2792.210000 599.484000 1 1.000000 1 -3.000000
251 2 613.465000 -2791.990000 608.939000 1 1.000000 1 -3.000000
252 2 618.610000 -2790.080000 617.209000 1 1.000000 1 -3.000000
253 2 624.760000 -2786.770000 624.178000 1 1.000000 1 -3.000000
254 2 628.256000 -2782.010000 632.084000 1 1.000000 1 -3.000000
255 2 634.185000 -2780.780000 640.041000 1 1.000000 1 -3.000000
256 2 639.968000 -2782.970000 647.748000 1 1.000000 1 -3.000000
257 2 644.489000 -2787.300000 655.439000 1 1.000000 1 -3.000000
258 2 649.351000 -2791.560000 662.863000 1 1.000000 1 -3.000000
259 2 651.431000 -2795.100000 671.893000 1 1.000000 1 -3.000000
260 2 650.847000 -2798.740000 680.976000 1 1.000000 1 -3.000000
261 2 649.213000 -2803.490000 689.493000 1 1.000000 1 -3.000000
262 2 648.791000 -2807.500000 698.526000 1 1.000000 1 -3.000000
263 2 646.774000 -2812.290000 707.007000 1 1.000000 1 -3.000000
264 2 645.813000 -2820.880000 711.830000 1 1.000000 11 -3.000000
265 1 689.754000 -2826.760000 728.096000 1 1.000000 11 0.000000
266 3 694.534000 -2807.900000 698.856000 1 1.000000 11 0.000000
267 2 736.671000 -2821.700000 725.829000 1 1.000000 11 -3.000000
268 2 735.966000 -2812.970000 721.069000 1 1.000000 1 -3.000000
269 2 736.405000 -2804.690000 715.683000 1 1.000000 1 -3.000000
270 2 736.493000 -2797.250000 709.067000 1 1.000000 1 -3.000000
271 2 733.788000 -2789.100000 704.268000 1 1.000000 1 -3.000000
272 2 734.895000 -2780.020000 700.496000 1 1.000000 1 -3.000000
273 2 738.275000 -2772.340000 695.214000 1 1.000000 1 -3.000000
274 2 740.622000 -2766.890000 687.295000 1 1.000000 1 -3.000000
275 2 743.663000 -2763.830000 678.254000 1 1.000000 1 -3.000000
276 2 747.693000 -2762.130000 669.281000 1 1.000000 1 -3.000000
277 2 754.143000 -2761.550000 661.834000 1 1.000000 1 -3.000000
278 2 761.309000 -2761.080000 654.862000 1 1.000000 1 -3.000000
279 2 768.368000 -2760.660000 648.103000 1 1.000000 1 -3.000000
280 2 777.195000 -2758.650000 643.840000 1 1.000000 1 -3.000000
281 2 784.522000 -2756.360000 637.608000 1 1.000000 1 -3.000000
282 2 792.184000 -2751.360000 633.428000 1 1.000000 1 -3.000000
283 2 801.151000 -2748.680000 630.609000 1 1.000000 1 -3.000000
284 2 809.642000 -2743.810000 628.655000 1 1.000000 1 -3.000000
285 2 818.187000 -2739.390000 626.874000 1 1.000000 1 -3.000000
286 2 826.511000 -2734.410000 624.325000 1 1.000000 1 -3.000000
287 2 835.880000 -2732.640000 621.595000 1 1.000000 1 -3.000000
288 2 844.594000 -2728.110000 620.695000 1 1.000000 1 -3.000000
289 2 853.290000 -2724.390000 617.392000 1 1.000000 1 -3.000000
290 2 861.773000 -2720.060000 614.767000 1 1.000000 1 -3.000000
291 2 870.340000 -2717.150000 610.669000 1 1.000000 12 -3.000000
292 1 875.316000 -2675.070000 631.517000 1 1.000000 12 0.000000
293 3 840.680000 -2677.950000 626.739000 1 1.000000 12 0.000000
294 2 858.962000 -2633.550000 646.943000 1 1.000000 12 -3.000000
295 2 850.153000 -2637.160000 649.210000 1 1.000000 1 -3.000000
296 2 840.306000 -2638.410000 650.007000 1 1.000000 1 -3.000000
297 2 830.626000 -2640.030000 648.351000 1 1.000000 1 -3.000000
298 2 821.721000 -2643.510000 645.734000 1 1.000000 1 -3.000000
299 2 812.861000 -2647.660000 644.311000 1 1.000000 1 -3.000000
300 2 805.185000 -2653.290000 641.667000 1 1.000000 1 -3.000000
301 2 796.893000 -2658.210000 639.677000 1 1.000000 1 -3.000000
302 2 790.392000 -2665.250000 637.390000 1 1.000000 1 -3.000000
303 2 782.638000 -2670.310000 633.965000 1 1.000000 1 -3.000000
304 2 777.525000 -2677.990000 630.549000 1 1.000000 1 -3.000000
305 2 771.402000 -2682.570000 624.191000 1 1.000000 1 -3.000000
306 2 764.873000 -2683.560000 616.795000 1 1.000000 1 -3.000000
307 2 760.991000 -2684.020000 607.718000 1 1.000000 1 -3.000000
308 2 758.647000 -2684.510000 598.248000 1 1.000000 1 -3.000000
309 2 758.922000 -2684.560000 588.361000 1 1.000000 1 -3.000000
310 2 758.778000 -2688.070000 579.023000 1 1.000000 1 -3.000000
311 2 759.382000 -2691.390000 569.718000 1 1.000000 1 -3.000000
312 2 759.192000 -2696.000000 560.977000 1 1.000000 1 -3.000000
313 2 758.169000 -2699.620000 551.770000 1 1.000000 1 -3.000000
314 2 755.895000 -2701.910000 542.367000 1 1.000000 1 -3.000000
315 2 755.151000 -2705.630000 533.134000 1 1.000000 1 -3.000000
316 2 755.425000 -2710.750000 524.640000 1 1.000000 1 -3.000000
317 2 756.321000 -2717.170000 517.236000 1 1.000000 1 -3.000000
318 2 760.921000 -2724.540000 512.348000 1 1.000000 13 -3.000000
319 1 746.246000 -2709.990000 469.938000 1 1.000000 13 0.000000
320 3 724.782000 -2693.210000 491.994000 1 1.000000 13 0.000000
321 2 717.007000 -2686.850000 441.085000 1 1.000000 13 -3.000000
322 2 714.103000 -2680.170000 447.924000 1 1.000000 1 -3.000000
323 2 709.757000 -2674.000000 454.464000 1 1.000000 1 -3.000000
324 2 706.999000 -2666.730000 460.521000 1 1.000000 1 -3.000000
325 2 704.280000 -2658.960000 466.171000 1 1.000000 1 -3.000000
326 2 699.171000 -2652.060000 471.126000 1 1.000000 1 -3.000000
327 2 691.066000 -2646.660000 472.717000 1 1.000000 1 -3.000000
328 2 682.195000 -2642.530000 473.005000 1 1.000000 1 -3.000000
329 2 672.297000 -2642.320000 472.391000 1 1.000000 1 -3.000000
330 2 662.654000 -2642.230000 470.426000 1 1.000000 1 -3.000000
331 2 652.949000 -2643.750000 469.451000 1 1.000000 1 -3.000000
332 2 643.186000 -2644.570000 469.188000 1 1.000000 1 -3.000000
333 2 633.725000 -2641.670000 469.371000 1 1.000000 1 -3.000000
334 2 624.599000 -2642.320000 473.058000 1 1.000000 1 -3.000000
335 2 615.240000 -2640.490000 475.708000 1 1.000000 1 -3.000000
336 2 605.684000 -2641.750000 478.263000 1 1.000000 1 -3.000000
337 2 596.401000 -2642.170000 481.725000 1 1.000000 1 -3.000000
338 2 586.728000 -2640.440000 481.175000 1 1.000000 1 -3.000000
339 2 577.202000 -2637.880000 480.317000 1 1.000000 1 -3.000000
340 2 567.872000 -2636.520000 477.400000 1 1.000000 1 -3.000000
341 2 558.365000 -2634.550000 475.140000 1 1.000000 1 -3.000000
342 2 548.776000 -2633.080000 473.366000 1 1.000000 1 -3.000000
343 2 539.053000 -2632.180000 472.746000 1 1.000000 1 -3.000000
344 2 529.659000 -2630.960000 470.026000 1 1.000000 1 -3.000000
345 2 520.395000 -2632.330000 466.680000 1 1.000000 14 -3.000000
346 1 512.761000 -2623.090000 512.297000 1 1.000000 14 0.000000
347 3 545.012000 -2610.380000 506.939000 1 1.000000 14 0.000000
348 2 523.071000 -2602.090000 553.301000 1 1.000000 14 -3.000000
349 2 529.740000 -2594.880000 553.216000 1 1.000000 1 -3.000000
350 2 537.210000 -2588.520000 552.024000 1 1.000000 1 -3.000000
351 2 545.070000 -2582.870000 549.906000 1 1.000000 1 -3.000000
352 2 551.934000 -2578.010000 544.774000 1 1.000000 1 -3.000000
353 2 558.161000 -2575.810000 537.499000 1 1.000000 1 -3.000000
354 2 561.542000 -2573.920000 528.425000 1 1.000000 1 -3.000000
355 2 564.489000 -2571.740000 519.279000 1 1.000000 1 -3.000000
356 2 568.843000 -2569.190000 510.780000 1 1.000000 1 -3.000000
357 2 571.204000 -2564.080000 502.596000 1 1.000000 1 -3.000000
358 2 573.692000 -2560.570000 493.831000 1 1.000000 1 -3.000000
359 2 574.171000 -2555.740000 485.270000 1 1.000000 1 -3.000000
360 2 575.277000 -2548.670000 478.371000 1 1.000000 1 -3.000000
361 2 574.303000 -2542.190000 470.907000 1 1.000000 1 -3.000000
362 2 570.494000 -2536.740000 463.653000 1 1.000000 1 -3.000000
363 2 568.965000 -2529.090000 457.541000 1 1.000000 1 -3.000000
364 2 568.536000 -2521.850000 450.823000 1 1.000000 1 -3.000000
365 2 568.250000 -2512.940000 446.364000 1 1.000000 1 -3.000000
366 2 571.751000 -2504.000000 443.569000 1 1.000000 1 -3.000000
367 2 572.889000 -2494.280000 442.449000 1 1.000000 1 -3.000000
368 2 578.255000 -2486.100000 441.038000 1 1.000000 1 -3.000000
369 2 582.389000 -2478.390000 436.349000 1 1.000000 1 -3.000000
370 2 587.553000 -2472.230000 430.622000 1 1.000000 1 -3.000000
371 2 594.953000 -2467.230000 426.258000 1 1.000000 1 -3.000000
372 2 604.639000 -2465.450000 424.801000 1 1.000000 15 -3.000000
373 1 604.607000 -2491.680000 385.559000 1 1.000000 15 0.000000
374 3 572.936000 -2497.340000 399.169000 1 1.000000 15 0.000000
375 2 586.141000 -2523.560000 356.157000 1 1.000000 15 -3.000000
376 2 577.858000 -2521.680000 361.337000 1 1.000000 1 -3.000000
377 2 568.371000 -2519.430000 362.908000 1 1.000000 1 -3.000000
378 2 560.033000 -2514.240000 363.297000 1 1.000000 1 -3.000000
379 2 551.360000 -2509.400000 363.848000 1 1.000000 1 -3.000000
380 2 542.997000 -2505.400000 367.195000 1 1.000000 1 -3.000000
381 2 535.774000 -2498.820000 368.690000 1 1.000000 1 -3.000000
382 2 527.287000 -2493.400000 369.110000 1 1.000000 1 -3.000000
383 2 518.854000 -2488.690000 367.023000 1 1.000000 1 -3.000000
384 2 511.228000 -2482.390000 367.193000 1 1.000000 1 -3.000000
385 2 504.945000 -2474.950000 368.075000 1 1.000000 1 -3.000000
386 2 500.028000 -2466.360000 367.178000 1 1.000000 1 -3.000000
387 2 494.936000 -2458.850000 363.248000 1 1.000000 1 -3.000000
388 2 492.775000 -2451.200000 357.414000 1 1.000000 1 -3.000000
389 2 492.603000 -2441.950000 353.820000 1 1.000000 1 -3.000000
390 2 489.284000 -2432.930000 351.203000 1 1.000000 1 -3.000000
391 2 487.050000 -2424.450000 346.715000 1 1.000000 1 -3.000000
392 2 483.368000 -2416.120000 342.861000 1 1.000000 1 -3.000000
393 2 480.667000 -2409.900000 335.673000 1 1.000000 1 -3.000000
394 2 475.923000 -2406.270000 327.749000 1 1.000000 1 -3.000000
395 2 476.851000 -2399.610000 320.586000 1 1.000000 1 -3.000000
396 2 478.918000 -2390.980000 316.345000 1 1.000000 1 -3.000000
397 2 481.362000 -2382.170000 312.882000 1 1.000000 1 -3.000000
398 2 487.549000 -2374.490000 312.034000 1 1.000000 1 -3.000000
399 2 491.401000 -2366.320000 308.444000 1 1.000000 16 -3.000000
400 1 450.996000 -2342.070000 311.537000 1 1.000000 16 0.000000
401 3 444.785000 -2370.550000 330.944000 1 1.000000 16 0.000000
402 2 407.326000 -2334.790000 327.722000 1 1.000000 16 -3.000000
403 2 406.983000 -2343.280000 332.715000 1 1.000000 1 -3.000000
404 2 407.449000 -2350.950000 338.795000 1 1.000000 1 -3.000000
405 2 408.386000 -2359.290000 343.927000 1 1.000000 1 -3.000000
406 2 407.108000 -2366.460000 350.656000 1 1.000000 1 -3.000000
407 2 407.342000 -2374.570000 356.288000 1 1.000000 1 -3.000000
408 2 405.302000 -2382.780000 361.304000 1 1.000000 1 -3.000000
409 2 405.004000 -2390.190000 367.759000 1 1.000000 1 -3.000000
410 2 404.131000 -2393.110000 377.206000 1 1.000000 1 -3.000000
411 2 404.679000 -2396.030000 386.525000 1 1.000000 1 -3.000000
412 2 404.343000 -2402.490000 394.068000 1 1.000000 1 -3.000000
413 2 408.014000 -2408.600000 401.035000 1 1.000000 1 -3.000000
414 2 412.073000 -2416.820000 404.728000 1 1.000000 1 -3.000000
415 2 416.211000 -2422.400000 411.822000 1 1.000000 1 -3.000000
416 2 421.109000 -2427.590000 418.628000 1 1.000000 1 -3.000000
417 2 424.940000 -2433.060000 426.090000 1 1.000000 1 -3.000000
418 2 426.947000 -2440.080000 432.780000 1 1.000000 1 -3.000000
419 2 429.283000 -2446.790000 439.471000 1 1.000000 1 -3.000000
420 2 433.234000 -2453.830000 445.232000 1 1.000000 1 -3.000000
421 2 437.435000 -2461.740000 449.762000 1 1.000000 1 -3.000000
422 2 443.696000 -2469.410000 451.061000 1 1.000000 1 -3.000000
423 2 450.187000 -2476.810000 450.263000 1 1.000000 1 -3.000000
424 2 458.530000 -2481.940000 448.757000 1 1.000000 1 -3.000000
425 2 466.923000 -2485.200000 453.097000 1 1.000000 1 -3.000000
426 2 474.721000 -2489.980000 456.856000 1 1.000000 17 -3.000000
427 1 496.908000 -2473.380000 418.755000 1 1.000000 17 0.000000
428 3 472.858000 -2448.900000 425.182000 1 1.000000 17 0.000000
429 2 503.215000 -2442.530000 383.643000 1 1.000000 17 -3.000000
430 2 495.355000 -2438.020000 387.710000 1 1.000000 1 -3.000000
431 2 489.594000 -2434.150000 394.826000 1 1.000000 1 -3.000000
432 2 481.954000 -2431.310000 400.452000 1 1.000000 1 -3.000000
433 2 476.132000 -2425.900000 406.385000 1 1.000000 1 -3.000000
434 2 470.853000 -2420.120000 412.688000 1 1.000000 1 -3.000000
435 2 463.655000 -2414.300000 416.221000 1 1.000000 1 -3.000000
436 2 456.536000 -2408.310000 419.620000 1 1.000000 1 -3.000000
437 2 453.160000 -2399.580000 423.125000 1 1.000000 1 -3.000000
438 2 450.968000 -2390.930000 427.094000 1 1.000000 1 -3.000000
439 2 447.393000 -2381.790000 428.232000 1 1.000000 1 -3.000000
440 2 447.109000 -2371.950000 428.425000 1 1.000000 1 -3.000000
441 2 448.660000 -2362.290000 429.913000 1 1.000000 1 -3.000000
442 2 453.445000 -2353.630000 428.698000 1 1.000000 1 -3.000000
443 2 456.347000 -2344.350000 426.304000 1 1.000000 1 -3.000000
444 2 462.585000 -2336.660000 425.682000 1 1.000000 1 -3.000000
445 2 467.966000 -2328.760000 423.737000 1 1.000000 1 -3.000000
446 2 473.810000 -2320.850000 421.602000 1 1.000000 1 -3.000000
447 2 480.440000 -2314.020000 418.936000 1 1.000000 1 -3.000000
448 2 488.382000 -2308.700000 421.538000 1 1.000000 1 -3.000000
449 2 496.301000 -2304.940000 426.203000 1 1.000000 1 -3.000000
450 2 503.369000 -2301.650000 432.314000 1 1.000000 1 -3.000000
451 2 508.919000 -2301.710000 440.603000 1 1.000000 1 -3.000000
452 2 517.301000 -2303.310000 445.651000 1 1.000000 1 -3.000000
453 2 526.800000 -2303.020000 448.510000 1 1.000000 18 -3.000000
454 1 501.832000 -2311.130000 487.731000 1 1.000000 18 0.000000
455 3 482.996000 -2327.240000 462.828000 1 1.000000 18 0.000000
456 2 463.662000 -2326.310000 511.023000 1 1.000000 18 -3.000000
457 2 458.312000 -2324.710000 502.858000 1 1.000000 1 -3.000000
458 2 452.691000 -2321.640000 495.187000 1 1.000000 1 -3.000000
459 2 447.573000 -2320.580000 486.812000 1 1.000000 1 -3.000000
460 2 440.749000 -2321.790000 479.723000 1 1.000000 1 -3.000000
461 2 433.079000 -2322.980000 473.488000 1 1.000000 1 -3.000000
462 2 424.449000 -2325.220000 469.363000 1 1.000000 1 -3.000000
463 2 418.868000 -2331.020000 463.590000 1 1.000000 1 -3.000000
464 2 409.694000 -2333.360000 460.485000 1 1.000000 1 -3.000000
465 2 400.404000 -2336.840000 459.553000 1 1.000000 1 -3.000000