LAMMPS data file

4067 atoms
4067 ellipsoids
4516 bonds
8882 angles
0 dihedrals

3 atom types
5 bond types
12 angle types
0 dihedral types

-4631.092947 4670.465898 xlo xhi
-4631.092947 4670.465898 ylo yhi
-4631.092947 4670.465898 zlo zhi

Masses

1 196016.000000
2 1950.000000
3 19500.000000

Atoms

1 2 653.468000 -3129.310000 550.638000 1 1.000000 1 -3.000000
2 2 657.820000 -3136.440000 555.910000 1 1.000000 1 -3.000000
3 2 662.697000 -3143.320000 561.211000 1 1.000000 1 -3.000000
4 2 668.641000 -3148.720000 567.026000 1 1.000000 1 -3.000000
5 2 673.785000 -3154.340000 573.208000 1 1.000000 1 -3.000000
6 2 680.431000 -3161.320000 575.363000 1 1.000000 1 -3.000000
7 2 687.488000 -3166.600000 580.135000 1 1.000000 1 -3.000000
8 2 692.957000 -3172.510000 585.977000 1 1.000000 1 -3.000000
9 2 696.925000 -3177.840000 593.036000 1 1.000000 1 -3.000000
10 2 700.083000 -3183.990000 600.162000 1 1.000000 1 -3.000000
11 2 704.802000 -3190.590000 605.833000 1 1.000000 1 -3.000000
12 2 711.056000 -3195.590000 611.682000 1 1.000000 1 -3.000000
13 2 716.737000 -3202.130000 616.478000 1 1.000000 1 -3.000000
14 2 721.115000 -3209.060000 622.137000 1 1.000000 1 -3.000000
15 2 722.459000 -3216.860000 627.921000 1 1.000000 1 -3.000000
16 2 720.734000 -3223.560000 635.075000 1 1.000000 1 -3.000000
17 2 716.469000 -3229.590000 641.985000 1 1.000000 1 -3.000000
18 2 711.251000 -3232.740000 649.762000 1 1.000000 1 -3.000000
19 2 712.282000 -3235.180000 659.361000 1 1.000000 1 -3.000000
20 2 714.049000 -3239.820000 667.972000 1 1.000000 1 -3.000000
21 2 716.916000 -3247.650000 673.505000 1 1.000000 2 -3.000000
22 1 721.087000 -3228.300000 716.367000 1 1.000000 2 0.000000
23 3 726.095000 -3201.160000 694.857000 1 1.000000 2 0.000000
24 2 727.176000 -3192.120000 746.010000 1 1.000000 2 -3.000000
25 2 725.590000 -3184.900000 739.414000 1 1.000000 1 -3.000000
26 2 725.194000 -3177.620000 732.692000 1 1.000000 1 -3.000000
27 2 727.003000 -3170.050000 726.425000 1 1.000000 1 -3.000000
28 2 727.896000 -3162.650000 720.133000 1 1.000000 1 -3.000000
29 2 729.014000 -3155.420000 713.441000 1 1.000000 1 -3.000000
30 2 730.028000 -3147.960000 706.892000 1 1.000000 1 -3.000000
31 2 727.443000 -3139.690000 702.044000 1 1.000000 1 -3.000000
32 2 724.106000 -3131.870000 696.783000 1 1.000000 1 -3.000000
33 2 717.883000 -3125.340000 692.671000 1 1.000000 1 -3.000000
34 2 710.974000 -3121.130000 687.029000 1 1.000000 1 -3.000000
35 2 705.969000 -3122.440000 678.588000 1 1.000000 1 -3.000000
36 2 702.933000 -3126.650000 670.138000 1 1.000000 1 -3.000000
37 2 700.759000 -3129.310000 661.034000 1 1.000000 1 -3.000000
38 2 697.898000 -3133.470000 652.483000 1 1.000000 1 -3.000000
39 2 699.773000 -3137.360000 643.578000 1 1.000000 1 -3.000000
40 2 702.269000 -3140.690000 634.361000 1 1.000000 1 -3.000000
41 2 705.833000 -3140.740000 625.106000 1 1.000000 1 -3.000000
42 2 711.805000 -3141.240000 617.253000 1 1.000000 1 -3.000000
43 2 718.597000 -3142.010000 610.147000 1 1.000000 1 -3.000000
44 2 726.467000 -3144.390000 604.686000 1 1.000000 1 -3.000000
45 2 732.430000 -3150.410000 599.589000 1 1.000000 1 -3.000000
46 2 736.020000 -3156.190000 592.512000 1 1.000000 1 -3.000000
47 2 742.464000 -3159.980000 585.903000 1 1.000000 1 -3.000000
48 2 750.348000 -3162.890000 580.674000 1 1.000000 3 -3.000000
49 1 734.907000 -3142.980000 540.702000 1 1.000000 3 0.000000
50 3 714.272000 -3128.780000 565.211000 1 1.000000 3 0.000000
51 2 704.795000 -3116.710000 515.628000 1 1.000000 3 -3.000000
52 2 702.877000 -3109.960000 522.651000 1 1.000000 1 -3.000000
53 2 701.464000 -3103.690000 530.359000 1 1.000000 1 -3.000000
54 2 702.399000 -3097.270000 537.658000 1 1.000000 1 -3.000000
55 2 705.398000 -3090.110000 543.743000 1 1.000000 1 -3.000000
56 2 707.887000 -3081.860000 548.563000 1 1.000000 1 -3.000000
57 2 709.221000 -3075.370000 555.949000 1 1.000000 1 -3.000000
58 2 712.509000 -3069.420000 563.008000 1 1.000000 1 -3.000000
59 2 711.562000 -3064.920000 571.739000 1 1.000000 1 -3.000000
60 2 709.415000 -3061.390000 580.785000 1 1.000000 1 -3.000000
61 2 710.835000 -3054.780000 587.855000 1 1.000000 1 -3.000000
62 2 712.541000 -3049.240000 595.977000 1 1.000000 1 -3.000000
63 2 714.415000 -3044.750000 604.372000 1 1.000000 1 -3.000000
64 2 715.830000 -3040.480000 613.118000 1 1.000000 1 -3.000000
65 2 715.423000 -3034.420000 620.867000 1 1.000000 1 -3.000000
66 2 710.597000 -3028.910000 627.553000 1 1.000000 1 -3.000000
67 2 705.301000 -3023.160000 633.708000 1 1.000000 1 -3.000000
68 2 698.842000 -3016.860000 637.832000 1 1.000000 1 -3.000000
69 2 691.864000 -3010.470000 641.048000 1 1.000000 1 -3.000000
70 2 688.310000 -3001.330000 643.385000 1 1.000000 1 -3.000000
71 2 684.951000 -2992.220000 644.326000 1 1.000000 1 -3.000000
72 2 680.354000 -2983.850000 646.508000 1 1.000000 1 -3.000000
73 2 677.255000 -2975.160000 650.020000 1 1.000000 1 -3.000000
74 2 675.040000 -2966.290000 654.056000 1 1.000000 1 -3.000000
75 2 671.455000 -2959.630000 660.384000 1 1.000000 4 -3.000000
76 1 664.434000 -2930.000000 624.326000 1 1.000000 4 0.000000
77 3 659.199000 -2961.470000 609.952000 1 1.000000 4 0.000000
78 2 650.798000 -2919.800000 580.344000 1 1.000000 4 -3.000000
79 2 655.281000 -2928.600000 579.494000 1 1.000000 1 -3.000000
80 2 658.805000 -2937.830000 580.046000 1 1.000000 1 -3.000000
81 2 661.795000 -2946.970000 577.815000 1 1.000000 1 -3.000000
82 2 661.820000 -2955.630000 572.900000 1 1.000000 1 -3.000000
83 2 660.817000 -2965.070000 570.342000 1 1.000000 1 -3.000000
84 2 663.134000 -2971.590000 563.185000 1 1.000000 1 -3.000000
85 2 666.435000 -2979.330000 558.166000 1 1.000000 1 -3.000000
86 2 674.205000 -2984.110000 554.381000 1 1.000000 1 -3.000000
87 2 682.104000 -2989.440000 551.408000 1 1.000000 1 -3.000000
88 2 690.913000 -2993.830000 549.961000 1 1.000000 1 -3.000000
89 2 699.814000 -2998.450000 549.105000 1 1.000000 1 -3.000000
90 2 707.351000 -3003.650000 552.766000 1 1.000000 1 -3.000000
91 2 715.968000 -3005.740000 557.407000 1 1.000000 1 -3.000000
92 2 724.300000 -3007.280000 562.645000 1 1.000000 1 -3.000000
93 2 731.331000 -3007.080000 569.656000 1 1.000000 1 -3.000000
94 2 739.330000 -3005.230000 575.298000 1 1.000000 1 -3.000000
95 2 745.989000 -3005.400000 582.742000 1 1.000000 1 -3.000000
96 2 753.036000 -3004.950000 589.699000 1 1.000000 1 -3.000000
97 2 759.661000 -3003.990000 596.953000 1 1.000000 1 -3.000000
98 2 768.853000 -3002.520000 600.087000 1 1.000000 1 -3.000000
99 2 778.086000 -3000.650000 603.479000 1 1.000000 1 -3.000000
100 2 786.815000 -2998.660000 607.640000 1 1.000000 1 -3.000000
101 2 795.564000 -2998.880000 612.164000 1 1.000000 1 -3.000000
102 2 804.901000 -2999.580000 615.413000 1 1.000000 5 -3.000000
103 1 793.554000 -2997.770000 661.159000 1 1.000000 5 0.000000
104 3 762.948000 -3004.110000 645.668000 1 1.000000 5 0.000000
105 2 763.252000 -2998.930000 697.225000 1 1.000000 5 -3.000000
106 2 755.199000 -3003.800000 694.135000 1 1.000000 1 -3.000000
107 2 746.093000 -3006.560000 691.567000 1 1.000000 1 -3.000000
108 2 736.573000 -3008.140000 689.033000 1 1.000000 1 -3.000000
109 2 726.729000 -3009.030000 688.987000 1 1.000000 1 -3.000000
110 2 716.823000 -3008.000000 688.780000 1 1.000000 1 -3.000000
111 2 707.111000 -3009.910000 688.735000 1 1.000000 1 -3.000000
112 2 697.769000 -3008.550000 685.444000 1 1.000000 1 -3.000000
113 2 689.014000 -3006.070000 681.132000 1 1.000000 1 -3.000000
114 2 680.931000 -3006.180000 675.549000 1 1.000000 1 -3.000000
115 2 672.105000 -3007.860000 671.270000 1 1.000000 1 -3.000000
116 2 663.931000 -3013.000000 669.134000 1 1.000000 1 -3.000000
117 2 659.375000 -3020.890000 665.153000 1 1.000000 1 -3.000000
118 2 655.070000 -3028.710000 660.952000 1 1.000000 1 -3.000000
119 2 649.764000 -3036.260000 657.450000 1 1.000000 1 -3.000000
120 2 642.337000 -3042.810000 657.799000 1 1.000000 1 -3.000000
121 2 635.612000 -3050.030000 657.814000 1 1.000000 1 -3.000000
122 2 627.777000 -3055.570000 655.313000 1 1.000000 1 -3.000000
123 2 618.905000 -3059.910000 654.263000 1 1.000000 1 -3.000000
124 2 609.788000 -3063.590000 655.690000 1 1.000000 1 -3.000000
125 2 601.625000 -3068.990000 656.511000 1 1.000000 1 -3.000000
126 2 596.565000 -3076.600000 660.028000 1 1.000000 1 -3.000000
127 2 589.547000 -3083.040000 662.730000 1 1.000000 1 -3.000000
128 2 582.422000 -3089.300000 665.592000 1 1.000000 1 -3.000000
129 2 576.017000 -3096.570000 668.009000 1 1.000000 6 -3.000000
130 1 538.327000 -3068.820000 673.922000 1 1.000000 6 0.000000
131 3 564.693000 -3045.800000 670.862000 1 1.000000 6 0.000000
132 2 517.489000 -3027.160000 681.484000 1 1.000000 6 -3.000000
133 2 525.027000 -3022.350000 677.279000 1 1.000000 1 -3.000000
134 2 531.596000 -3016.560000 672.460000 1 1.000000 1 -3.000000
135 2 538.297000 -3010.090000 669.374000 1 1.000000 1 -3.000000
136 2 546.954000 -3006.100000 667.004000 1 1.000000 1 -3.000000
137 2 554.052000 -2999.970000 663.704000 1 1.000000 1 -3.000000
138 2 561.342000 -2995.050000 659.253000 1 1.000000 1 -3.000000
139 2 567.087000 -2989.880000 653.090000 1 1.000000 1 -3.000000
140 2 571.121000 -2982.980000 647.209000 1 1.000000 1 -3.000000
141 2 574.030000 -2975.210000 641.772000 1 1.000000 1 -3.000000
142 2 576.562000 -2966.390000 637.864000 1 1.000000 1 -3.000000
143 2 581.186000 -2958.160000 634.977000 1 1.000000 1 -3.000000
144 2 587.823000 -2953.330000 629.667000 1 1.000000 1 -3.000000
145 2 596.331000 -2950.520000 625.421000 1 1.000000 1 -3.000000
146 2 605.085000 -2947.390000 622.508000 1 1.000000 1 -3.000000
147 2 612.185000 -2943.020000 617.159000 1 1.000000 1 -3.000000
148 2 617.709000 -2935.720000 613.572000 1 1.000000 1 -3.000000
149 2 623.563000 -2929.490000 608.616000 1 1.000000 1 -3.000000
150 2 624.924000 -2920.600000 604.298000 1 1.000000 1 -3.000000
151 2 626.310000 -2910.920000 602.566000 1 1.000000 1 -3.000000
152 2 628.154000 -2901.970000 599.021000 1 1.000000 1 -3.000000
153 2 631.343000 -2894.510000 593.249000 1 1.000000 1 -3.000000
154 2 636.189000 -2886.950000 589.158000 1 1.000000 1 -3.000000
155 2 643.029000 -2880.730000 585.409000 1 1.000000 1 -3.000000
156 2 647.983000 -2873.640000 580.603000 1 1.000000 7 -3.000000
157 1 610.837000 -2855.440000 557.891000 1 1.000000 7 0.000000
158 3 596.671000 -2869.110000 586.893000 1 1.000000 7 0.000000
159 2 565.551000 -2842.340000 555.086000 1 1.000000 7 -3.000000
160 2 563.535000 -2846.870000 563.701000 1 1.000000 1 -3.000000
161 2 559.222000 -2850.100000 571.870000 1 1.000000 1 -3.000000
162 2 555.920000 -2851.760000 581.085000 1 1.000000 1 -3.000000
163 2 554.763000 -2855.850000 590.002000 1 1.000000 1 -3.000000
164 2 554.000000 -2859.590000 599.094000 1 1.000000 1 -3.000000
165 2 554.044000 -2865.100000 607.239000 1 1.000000 1 -3.000000
166 2 553.418000 -2870.430000 615.577000 1 1.000000 1 -3.000000
167 2 552.311000 -2874.360000 624.563000 1 1.000000 1 -3.000000
168 2 554.251000 -2880.230000 632.343000 1 1.000000 1 -3.000000
169 2 557.324000 -2884.330000 640.921000 1 1.000000 1 -3.000000
170 2 559.808000 -2887.080000 650.054000 1 1.000000 1 -3.000000
171 2 562.661000 -2892.150000 658.072000 1 1.000000 1 -3.000000
172 2 568.302000 -2895.530000 665.338000 1 1.000000 1 -3.000000
173 2 572.958000 -2901.130000 671.991000 1 1.000000 1 -3.000000
174 2 577.116000 -2907.870000 677.786000 1 1.000000 1 -3.000000
175 2 579.105000 -2915.820000 683.196000 1 1.000000 1 -3.000000
176 2 581.371000 -2921.100000 691.375000 1 1.000000 1 -3.000000
177 2 581.104000 -2925.970000 700.053000 1 1.000000 1 -3.000000
178 2 579.808000 -2933.070000 706.773000 1 1.000000 1 -3.000000
179 2 580.264000 -2941.450000 712.179000 1 1.000000 1 -3.000000
180 2 580.307000 -2950.330000 716.701000 1 1.000000 1 -3.000000
181 2 580.380000 -2959.560000 720.140000 1 1.000000 1 -3.000000
182 2 578.084000 -2967.580000 725.211000 1 1.000000 1 -3.000000
183 2 574.893000 -2975.430000 730.251000 1 1.000000 8 -3.000000
184 1 618.178000 -2992.830000 723.391000 1 1.000000 8 0.000000
185 3 621.338000 -2959.520000 713.525000 1 1.000000 8 0.000000
186 2 662.745000 -2990.360000 708.193000 1 1.000000 8 -3.000000
187 2 664.137000 -2980.840000 706.311000 1 1.000000 1 -3.000000
188 2 665.876000 -2971.570000 702.976000 1 1.000000 1 -3.000000
189 2 665.195000 -2961.640000 703.444000 1 1.000000 1 -3.000000
190 2 664.460000 -2952.120000 705.873000 1 1.000000 1 -3.000000
191 2 665.230000 -2942.290000 705.088000 1 1.000000 1 -3.000000
192 2 663.851000 -2932.670000 706.440000 1 1.000000 1 -3.000000
193 2 660.765000 -2923.200000 707.243000 1 1.000000 1 -3.000000
194 2 657.201000 -2915.490000 712.381000 1 1.000000 1 -3.000000
195 2 654.469000 -2907.090000 716.843000 1 1.000000 1 -3.000000
196 2 653.573000 -2898.620000 721.751000 1 1.000000 1 -3.000000
197 2 651.760000 -2892.740000 729.437000 1 1.000000 1 -3.000000
198 2 649.020000 -2884.620000 734.401000 1 1.000000 1 -3.000000
199 2 648.547000 -2876.760000 740.272000 1 1.000000 1 -3.000000
200 2 647.707000 -2867.870000 744.401000 1 1.000000 1 -3.000000
201 2 646.585000 -2859.110000 748.833000 1 1.000000 1 -3.000000
202 2 646.072000 -2850.590000 753.718000 1 1.000000 1 -3.000000
203 2 644.572000 -2841.500000 757.229000 1 1.000000 1 -3.000000
204 2 641.745000 -2832.640000 760.535000 1 1.000000 1 -3.000000
205 2 640.562000 -2823.570000 764.112000 1 1.000000 1 -3.000000
206 2 635.587000 -2817.540000 770.184000 1 1.000000 1 -3.000000
207 2 630.073000 -2815.610000 778.146000 1 1.000000 1 -3.000000
208 2 624.551000 -2814.340000 786.246000 1 1.000000 1 -3.000000
209 2 618.366000 -2814.970000 793.947000 1 1.000000 1 -3.000000
210 2 610.843000 -2812.010000 799.600000 1 1.000000 9 -3.000000
211 1 618.011000 -2766.400000 809.428000 1 1.000000 9 0.000000
212 3 637.069000 -2771.350000 780.360000 1 1.000000 9 0.000000
213 2 636.764000 -2723.900000 801.199000 1 1.000000 9 -3.000000
214 2 644.900000 -2726.870000 796.548000 1 1.000000 1 -3.000000
215 2 652.338000 -2727.730000 790.038000 1 1.000000 1 -3.000000
216 2 659.024000 -2728.160000 782.707000 1 1.000000 1 -3.000000
217 2 665.771000 -2729.410000 775.512000 1 1.000000 1 -3.000000
218 2 670.864000 -2726.060000 767.554000 1 1.000000 1 -3.000000
219 2 675.886000 -2722.130000 759.996000 1 1.000000 1 -3.000000
220 2 682.145000 -2719.460000 752.804000 1 1.000000 1 -3.000000
221 2 689.008000 -2720.940000 745.919000 1 1.000000 1 -3.000000
222 2 695.631000 -2719.410000 738.670000 1 1.000000 1 -3.000000
223 2 703.331000 -2720.280000 732.482000 1 1.000000 1 -3.000000
224 2 709.739000 -2723.140000 725.465000 1 1.000000 1 -3.000000
225 2 717.618000 -2726.810000 720.667000 1 1.000000 1 -3.000000
226 2 724.605000 -2727.580000 713.754000 1 1.000000 1 -3.000000
227 2 730.157000 -2728.390000 705.593000 1 1.000000 1 -3.000000
228 2 735.312000 -2729.490000 697.096000 1 1.000000 1 -3.000000
229 2 741.990000 -2730.490000 689.785000 1 1.000000 1 -3.000000
230 2 749.159000 -2730.620000 682.926000 1 1.000000 1 -3.000000
231 2 756.065000 -2730.640000 675.751000 1 1.000000 1 -3.000000
232 2 763.670000 -2732.450000 669.731000 1 1.000000 1 -3.000000
233 2 771.783000 -2732.240000 664.144000 1 1.000000 1 -3.000000
234 2 780.900000 -2731.400000 660.314000 1 1.000000 1 -3.000000
235 2 790.378000 -2732.550000 657.227000 1 1.000000 1 -3.000000
236 2 798.635000 -2730.340000 652.056000 1 1.000000 1 -3.000000
237 2 803.955000 -2725.980000 644.953000 1 1.000000 10 -3.000000
238 1 780.173000 -2745.660000 609.294000 1 1.000000 10 0.000000
239 3 781.452000 -2771.300000 632.982000 1 1.000000 10 0.000000
240 2 758.728000 -2781.560000 587.430000 1 1.000000 10 -3.000000
241 2 756.388000 -2788.670000 593.863000 1 1.000000 1 -3.000000
242 2 757.400000 -2796.680000 599.579000 1 1.000000 1 -3.000000
243 2 758.644000 -2802.670000 607.310000 1 1.000000 1 -3.000000
244 2 759.106000 -2808.400000 615.433000 1 1.000000 1 -3.000000
245 2 759.959000 -2811.540000 624.805000 1 1.000000 1 -3.000000
246 2 760.760000 -2812.800000 634.698000 1 1.000000 1 -3.000000
247 2 757.934000 -2813.310000 644.160000 1 1.000000 1 -3.000000
248 2 755.871000 -2814.470000 653.840000 1 1.000000 1 -3.000000
249 2 753.911000 -2811.510000 663.118000 1 1.000000 1 -3.000000
250 2 750.939000 -2807.140000 671.521000 1 1.000000 1 -3.000000
251 2 747.450000 -2800.970000 678.407000 1 1.000000 1 -3.000000
252 2 745.847000 -2794.600000 685.823000 1 1.000000 1 -3.000000
253 2 743.978000 -2790.000000 694.362000 1 1.000000 1 -3.000000
254 2 744.518000 -2787.150000 703.739000 1 1.000000 1 -3.000000
255 2 746.989000 -2784.490000 712.852000 1 1.000000 1 -3.000000
256 2 747.587000 -2785.440000 722.797000 1 1.000000 1 -3.000000
257 2 745.861000 -2781.810000 731.956000 1 1.000000 1 -3.000000
258 2 742.813000 -2775.940000 739.375000 1 1.000000 1 -3.000000
259 2 740.862000 -2768.140000 745.143000 1 1.000000 1 -3.000000
260 2 740.314000 -2760.000000 750.743000 1 1.000000 1 -3.000000
261 2 740.076000 -2751.970000 756.611000 1 1.000000 1 -3.000000
262 2 736.399000 -2744.970000 762.549000 1 1.000000 1 -3.000000
263 2 735.326000 -2737.760000 769.241000 1 1.000000 1 -3.000000
264 2 730.662000 -2732.300000 775.982000 1 1.000000 11 -3.000000
265 1 768.132000 -2717.220000 800.307000 1 1.000000 11 0.000000
266 3 781.124000 -2743.300000 780.996000 1 1.000000 11 0.000000
267 2 813.409000 -2718.460000 813.343000 1 1.000000 11 -3.000000
268 2 816.586000 -2722.080000 804.783000 1 1.000000 1 -3.000000
269 2 818.949000 -2724.850000 795.634000 1 1.000000 1 -3.000000
270 2 821.715000 -2725.310000 786.088000 1 1.000000 1 -3.000000
271 2 825.250000 -2725.850000 776.744000 1 1.000000 1 -3.000000
272 2 827.113000 -2721.830000 767.982000 1 1.000000 1 -3.000000
273 2 829.690000 -2715.750000 760.569000 1 1.000000 1 -3.000000
274 2 830.769000 -2710.070000 752.400000 1 1.000000 1 -3.000000
275 2 832.971000 -2704.250000 744.517000 1 1.000000 1 -3.000000
276 2 834.914000 -2699.010000 736.384000 1 1.000000 1 -3.000000
277 2 835.707000 -2694.650000 727.585000 1 1.000000 1 -3.000000
278 2 835.983000 -2687.840000 720.476000 1 1.000000 1 -3.000000
279 2 835.914000 -2682.960000 711.878000 1 1.000000 1 -3.000000
280 2 834.962000 -2681.050000 702.291000 1 1.000000 1 -3.000000
281 2 836.095000 -2683.680000 692.797000 1 1.000000 1 -3.000000
282 2 838.791000 -2686.640000 683.743000 1 1.000000 1 -3.000000
283 2 838.448000 -2689.060000 674.026000 1 1.000000 1 -3.000000
284 2 835.493000 -2690.210000 664.569000 1 1.000000 1 -3.000000
285 2 833.716000 -2688.950000 654.906000 1 1.000000 1 -3.000000
286 2 835.197000 -2686.050000 645.506000 1 1.000000 1 -3.000000
287 2 835.978000 -2686.800000 635.623000 1 1.000000 1 -3.000000
288 2 835.543000 -2688.390000 625.782000 1 1.000000 1 -3.000000
289 2 837.392000 -2693.410000 617.345000 1 1.000000 1 -3.000000
290 2 838.394000 -2699.790000 609.787000 1 1.000000 1 -3.000000
291 2 837.239000 -2707.260000 603.387000 1 1.000000 12 -3.000000
292 1 844.216000 -2688.340000 560.766000 1 1.000000 12 0.000000
293 3 822.393000 -2665.560000 576.063000 1 1.000000 12 0.000000
294 2 834.136000 -2657.960000 526.016000 1 1.000000 12 -3.000000
295 2 826.813000 -2652.040000 529.088000 1 1.000000 1 -3.000000
296 2 824.117000 -2642.590000 530.282000 1 1.000000 1 -3.000000
297 2 819.434000 -2633.940000 529.895000 1 1.000000 1 -3.000000
298 2 815.394000 -2625.240000 526.950000 1 1.000000 1 -3.000000
299 2 811.353000 -2616.320000 525.666000 1 1.000000 1 -3.000000
300 2 806.332000 -2607.950000 524.089000 1 1.000000 1 -3.000000
301 2 800.778000 -2599.840000 525.465000 1 1.000000 1 -3.000000
302 2 793.556000 -2593.230000 524.057000 1 1.000000 1 -3.000000
303 2 785.732000 -2587.720000 526.196000 1 1.000000 1 -3.000000
304 2 778.081000 -2581.320000 526.116000 1 1.000000 1 -3.000000
305 2 771.477000 -2575.490000 530.678000 1 1.000000 1 -3.000000
306 2 764.300000 -2570.650000 535.404000 1 1.000000 1 -3.000000
307 2 758.923000 -2565.360000 541.880000 1 1.000000 1 -3.000000
308 2 756.126000 -2557.800000 547.865000 1 1.000000 1 -3.000000
309 2 750.239000 -2550.380000 550.615000 1 1.000000 1 -3.000000
310 2 743.898000 -2544.830000 556.057000 1 1.000000 1 -3.000000
311 2 736.971000 -2539.200000 560.348000 1 1.000000 1 -3.000000
312 2 728.645000 -2535.650000 564.518000 1 1.000000 1 -3.000000
313 2 721.161000 -2533.390000 570.491000 1 1.000000 1 -3.000000
314 2 712.343000 -2530.870000 574.240000 1 1.000000 1 -3.000000
315 2 704.856000 -2524.890000 576.498000 1 1.000000 1 -3.000000
316 2 700.970000 -2516.240000 579.599000 1 1.000000 1 -3.000000
317 2 700.430000 -2507.050000 583.644000 1 1.000000 1 -3.000000
318 2 699.023000 -2497.210000 584.597000 1 1.000000 13 -3.000000
319 1 668.763000 -2494.700000 548.416000 1 1.000000 13 0.000000
320 3 664.406000 -2527.360000 560.230000 1 1.000000 13 0.000000
321 2 633.888000 -2511.580000 521.398000 1 1.000000 13 -3.000000
322 2 633.188000 -2520.480000 525.856000 1 1.000000 1 -3.000000
323 2 631.078000 -2528.770000 530.992000 1 1.000000 1 -3.000000
324 2 630.431000 -2537.800000 534.965000 1 1.000000 1 -3.000000
325 2 633.657000 -2546.850000 536.874000 1 1.000000 1 -3.000000
326 2 634.560000 -2556.270000 539.881000 1 1.000000 1 -3.000000
327 2 637.836000 -2565.700000 540.238000 1 1.000000 1 -3.000000
328 2 645.109000 -2572.440000 539.656000 1 1.000000 1 -3.000000
329 2 650.923000 -2580.070000 536.613000 1 1.000000 1 -3.000000
330 2 655.292000 -2587.620000 532.321000 1 1.000000 1 -3.000000
331 2 661.251000 -2593.260000 526.736000 1 1.000000 1 -3.000000
332 2 669.594000 -2598.260000 524.716000 1 1.000000 1 -3.000000
333 2 677.347000 -2603.440000 521.348000 1 1.000000 1 -3.000000
334 2 684.464000 -2609.000000 517.335000 1 1.000000 1 -3.000000
335 2 688.319000 -2615.110000 510.519000 1 1.000000 1 -3.000000
336 2 689.229000 -2620.830000 502.467000 1 1.000000 1 -3.000000
337 2 686.925000 -2624.090000 493.467000 1 1.000000 1 -3.000000
338 2 687.016000 -2627.320000 484.169000 1 1.000000 1 -3.000000
339 2 687.662000 -2631.830000 475.440000 1 1.000000 1 -3.000000
340 2 688.707000 -2634.030000 465.761000 1 1.000000 1 -3.000000
341 2 691.454000 -2634.260000 456.404000 1 1.000000 1 -3.000000
342 2 696.130000 -2634.940000 447.853000 1 1.000000 1 -3.000000
343 2 700.016000 -2640.450000 440.592000 1 1.000000 1 -3.000000
344 2 703.748000 -2647.740000 434.998000 1 1.000000 1 -3.000000
345 2 710.466000 -2652.600000 429.614000 1 1.000000 14 -3.000000
346 1 694.180000 -2662.170000 386.472000 1 1.000000 14 0.000000
347 3 665.494000 -2664.430000 406.429000 1 1.000000 14 0.000000
348 2 660.670000 -2674.950000 355.817000 1 1.000000 14 -3.000000
349 2 652.715000 -2672.650000 361.165000 1 1.000000 1 -3.000000
350 2 645.441000 -2670.490000 367.422000 1 1.000000 1 -3.000000
351 2 638.177000 -2666.130000 372.536000 1 1.000000 1 -3.000000
352 2 632.142000 -2662.410000 379.474000 1 1.000000 1 -3.000000
353 2 627.929000 -2656.080000 385.903000 1 1.000000 1 -3.000000
354 2 627.307000 -2648.830000 392.590000 1 1.000000 1 -3.000000
355 2 629.110000 -2642.930000 400.342000 1 1.000000 1 -3.000000
356 2 630.191000 -2637.470000 408.525000 1 1.000000 1 -3.000000
357 2 626.796000 -2632.700000 416.635000 1 1.000000 1 -3.000000
358 2 626.070000 -2626.380000 424.387000 1 1.000000 1 -3.000000
359 2 627.280000 -2619.680000 431.530000 1 1.000000 1 -3.000000
360 2 629.425000 -2612.540000 438.200000 1 1.000000 1 -3.000000
361 2 630.653000 -2602.990000 440.576000 1 1.000000 1 -3.000000
362 2 634.106000 -2594.270000 443.987000 1 1.000000 1 -3.000000
363 2 639.395000 -2586.390000 446.673000 1 1.000000 1 -3.000000
364 2 646.026000 -2579.250000 447.397000 1 1.000000 1 -3.000000
365 2 654.491000 -2574.870000 450.176000 1 1.000000 1 -3.000000
366 2 663.701000 -2571.400000 451.029000 1 1.000000 1 -3.000000
367 2 671.835000 -2567.690000 455.252000 1 1.000000 1 -3.000000
368 2 680.232000 -2563.910000 458.800000 1 1.000000 1 -3.000000
369 2 685.369000 -2558.370000 465.174000 1 1.000000 1 -3.000000
370 2 692.740000 -2555.670000 471.372000 1 1.000000 1 -3.000000
371 2 700.750000 -2552.950000 476.701000 1 1.000000 1 -3.000000
372 2 706.705000 -2549.680000 483.723000 1 1.000000 15 -3.000000
373 1 738.081000 -2514.760000 478.296000 1 1.000000 15 0.000000
374 3 714.719000 -2508.810000 452.837000 1 1.000000 15 0.000000
375 2 752.550000 -2473.720000 460.081000 1 1.000000 15 -3.000000
376 2 745.969000 -2473.870000 452.565000 1 1.000000 1 -3.000000
377 2 738.196000 -2470.780000 447.236000 1 1.000000 1 -3.000000
378 2 730.340000 -2469.320000 441.485000 1 1.000000 1 -3.000000
379 2 721.130000 -2467.940000 437.973000 1 1.000000 1 -3.000000
380 2 713.006000 -2468.880000 432.551000 1 1.000000 1 -3.000000
381 2 704.178000 -2473.100000 431.854000 1 1.000000 1 -3.000000
382 2 694.405000 -2471.920000 433.425000 1 1.000000 1 -3.000000
383 2 684.824000 -2473.190000 435.190000 1 1.000000 1 -3.000000
384 2 675.061000 -2472.430000 436.916000 1 1.000000 1 -3.000000
385 2 665.694000 -2469.260000 436.746000 1 1.000000 1 -3.000000
386 2 656.860000 -2465.010000 438.297000 1 1.000000 1 -3.000000
387 2 648.285000 -2461.390000 441.681000 1 1.000000 1 -3.000000
388 2 640.054000 -2456.890000 444.899000 1 1.000000 1 -3.000000
389 2 633.194000 -2454.260000 451.426000 1 1.000000 1 -3.000000
390 2 625.723000 -2454.040000 457.806000 1 1.000000 1 -3.000000
391 2 619.258000 -2451.230000 464.612000 1 1.000000 1 -3.000000
392 2 613.634000 -2450.140000 472.654000 1 1.000000 1 -3.000000
393 2 609.722000 -2451.290000 481.688000 1 1.000000 1 -3.000000
394 2 607.517000 -2447.920000 490.740000 1 1.000000 1 -3.000000
395 2 605.278000 -2444.450000 499.618000 1 1.000000 1 -3.000000
396 2 602.008000 -2442.270000 508.619000 1 1.000000 1 -3.000000
397 2 597.467000 -2438.760000 516.549000 1 1.000000 1 -3.000000
398 2 591.592000 -2434.410000 522.980000 1 1.000000 1 -3.000000
399 2 583.609000 -2431.750000 528.114000 1 1.000000 16 -3.000000
400 1 582.567000 -2386.420000 515.234000 1 1.000000 16 0.000000
401 3 599.282000 -2401.850000 488.569000 1 1.000000 16 0.000000
402 2 590.753000 -2350.630000 485.669000 1 1.000000 16 -3.000000
403 2 594.046000 -2352.960000 476.602000 1 1.000000 1 -3.000000
404 2 598.462000 -2358.720000 469.803000 1 1.000000 1 -3.000000
405 2 605.123000 -2363.460000 464.173000 1 1.000000 1 -3.000000
406 2 609.654000 -2368.610000 456.975000 1 1.000000 1 -3.000000
407 2 611.816000 -2375.620000 450.405000 1 1.000000 1 -3.000000
408 2 612.270000 -2378.680000 440.968000 1 1.000000 1 -3.000000
409 2 614.843000 -2379.290000 431.419000 1 1.000000 1 -3.000000
410 2 610.655000 -2380.120000 422.478000 1 1.000000 1 -3.000000
411 2 608.410000 -2377.680000 413.109000 1 1.000000 1 -3.000000
412 2 606.028000 -2371.920000 405.347000 1 1.000000 1 -3.000000
413 2 605.122000 -2368.630000 396.046000 1 1.000000 1 -3.000000
414 2 604.589000 -2363.870000 387.426000 1 1.000000 1 -3.000000
415 2 605.155000 -2358.940000 379.007000 1 1.000000 1 -3.000000
416 2 609.081000 -2353.870000 371.486000 1 1.000000 1 -3.000000
417 2 611.147000 -2347.720000 364.063000 1 1.000000 1 -3.000000
418 2 610.048000 -2338.260000 361.368000 1 1.000000 1 -3.000000
419 2 608.517000 -2328.810000 358.612000 1 1.000000 1 -3.000000
420 2 604.994000 -2319.470000 358.010000 1 1.000000 1 -3.000000
421 2 601.957000 -2310.210000 356.269000 1 1.000000 1 -3.000000
422 2 599.108000 -2300.840000 355.004000 1 1.000000 1 -3.000000
423 2 596.219000 -2291.380000 355.887000 1 1.000000 1 -3.000000
424 2 592.005000 -2282.370000 355.501000 1 1.000000 1 -3.000000
425 2 587.389000 -2273.530000 354.693000 1 1.000000 1 -3.000000
426 2 581.353000 -2266.790000 350.582000 1 1.000000 17 -3.000000
427 1 590.916000 -2245.500000 391.631000 1 1.000000 17 0.000000
428 3 608.540000 -2275.640000 394.077000 1 1.000000 17 0.000000
429 2 609.026000 -2244.060000 435.161000 1 1.000000 17 -3.000000
430 2 615.657000 -2251.280000 433.858000 1 1.000000 1 -3.000000
431 2 623.056000 -2257.850000 433.994000 1 1.000000 1 -3.000000
432 2 630.111000 -2264.080000 436.945000 1 1.000000 1 -3.000000
433 2 637.212000 -2269.140000 441.761000 1 1.000000 1 -3.000000
434 2 642.191000 -2273.080000 449.459000 1 1.000000 1 -3.000000
435 2 644.713000 -2280.610000 455.494000 1 1.000000 1 -3.000000
436 2 644.185000 -2288.080000 461.918000 1 1.000000 1 -3.000000
437 2 642.960000 -2296.780000 466.259000 1 1.000000 1 -3.000000
438 2 640.972000 -2305.680000 470.049000 1 1.000000 1 -3.000000
439 2 639.917000 -2311.990000 477.605000 1 1.000000 1 -3.000000
440 2 637.520000 -2316.060000 486.229000 1 1.000000 1 -3.000000
441 2 635.441000 -2318.750000 495.492000 1 1.000000 1 -3.000000
442 2 629.787000 -2323.010000 502.463000 1 1.000000 1 -3.000000
443 2 622.169000 -2324.180000 508.707000 1 1.000000 1 -3.000000
444 2 614.996000 -2326.220000 515.201000 1 1.000000 1 -3.000000
445 2 607.178000 -2327.320000 521.089000 1 1.000000 1 -3.000000
446 2 599.657000 -2327.490000 527.623000 1 1.000000 1 -3.000000
447 2 592.448000 -2329.480000 534.163000 1 1.000000 1 -3.000000
448 2 584.173000 -2327.520000 539.205000 1 1.000000 1 -3.000000
449 2 575.971000 -2327.260000 544.829000 1 1.000000 1 -3.000000
450 2 569.932000 -2323.920000 552.048000 1 1.000000 1 -3.000000
451 2 560.513000 -2323.990000 554.956000 1 1.000000 1 -3.000000
452 2 550.775000 -2322.890000 556.579000 1 1.000000 1 -3.000000
453 2 543.190000 -2319.550000 561.834000 1 1.000000 18 -3.000000
454 1 521.614000 -2301.690000 523.908000 1 1.000000 18 0.000000
455 3 553.613000 -2309.510000 511.938000 1 1.000000 18 0.000000
456 2 519.584000 -2288.930000 478.531000 1 1.000000 18 -3.000000
457 2 528.146000 -2293.800000 477.983000 1 1.000000 1 -3.000000
458 2 534.500000 -2299.130000 472.453000 1 1.000000 1 -3.000000
459 2 540.167000 -2306.600000 469.375000 1 1.000000 1 -3.000000
460 2 546.738000 -2313.400000 466.939000 1 1.000000 1 -3.000000
461 2 548.223000 -2323.010000 465.187000 1 1.000000 1 -3.000000
462 2 548.735000 -2332.170000 461.516000 1 1.000000 1 -3.000000
463 2 547.012000 -2341.700000 459.691000 1 1.000000 1 -3.000000
464 2 546.024000 -2351.490000 458.699000 1 1.000000 1 -3.000000
465 2 546.779000 -2361.250000 457.099000 1 1.000000 1 -3.000000