LAMMPS data file

4067 atoms
4067 ellipsoids
4516 bonds
8882 angles
0 dihedrals

3 atom types
5 bond types
12 angle types
0 dihedral types

-4631.092947 4670.465898 xlo xhi
-4631.092947 4670.465898 ylo yhi
-4631.092947 4670.465898 zlo zhi

Masses

1 196016.000000
2 1950.000000
3 19500.000000

Atoms

1 2 983.555000 -2846.570000 300.884000 1 1.000000 1 -3.000000
2 2 975.088000 -2849.640000 296.800000 1 1.000000 1 -3.000000
3 2 967.240000 -2854.670000 293.565000 1 1.000000 1 -3.000000
4 2 958.333000 -2859.040000 292.823000 1 1.000000 1 -3.000000
5 2 948.710000 -2861.620000 292.427000 1 1.000000 1 -3.000000
6 2 940.502000 -2867.270000 292.404000 1 1.000000 1 -3.000000
7 2 934.710000 -2875.200000 292.785000 1 1.000000 1 -3.000000
8 2 929.465000 -2883.310000 295.623000 1 1.000000 1 -3.000000
9 2 924.186000 -2889.220000 301.412000 1 1.000000 1 -3.000000
10 2 918.953000 -2893.370000 308.875000 1 1.000000 1 -3.000000
11 2 915.089000 -2898.060000 316.732000 1 1.000000 1 -3.000000
12 2 909.963000 -2902.350000 324.006000 1 1.000000 1 -3.000000
13 2 904.085000 -2903.290000 331.883000 1 1.000000 1 -3.000000
14 2 899.199000 -2904.120000 340.582000 1 1.000000 1 -3.000000
15 2 892.879000 -2908.060000 347.037000 1 1.000000 1 -3.000000
16 2 887.694000 -2912.840000 354.058000 1 1.000000 1 -3.000000
17 2 883.013000 -2920.360000 358.418000 1 1.000000 1 -3.000000
18 2 877.399000 -2927.780000 361.885000 1 1.000000 1 -3.000000
19 2 873.959000 -2935.930000 366.330000 1 1.000000 1 -3.000000
20 2 870.175000 -2944.120000 370.010000 1 1.000000 1 -3.000000
21 2 866.130000 -2952.980000 371.914000 1 1.000000 2 -3.000000
22 1 893.859000 -2961.740000 409.128000 1 1.000000 2 0.000000
23 3 900.737000 -2928.190000 401.618000 1 1.000000 2 0.000000
24 2 924.112000 -2949.050000 443.018000 1 1.000000 2 -3.000000
25 2 923.297000 -2939.590000 440.434000 1 1.000000 1 -3.000000
26 2 924.913000 -2930.810000 436.307000 1 1.000000 1 -3.000000
27 2 926.292000 -2921.060000 437.196000 1 1.000000 1 -3.000000
28 2 927.063000 -2911.160000 437.350000 1 1.000000 1 -3.000000
29 2 927.220000 -2901.160000 438.013000 1 1.000000 1 -3.000000
30 2 924.648000 -2891.930000 440.347000 1 1.000000 1 -3.000000
31 2 920.044000 -2884.250000 444.846000 1 1.000000 1 -3.000000
32 2 914.485000 -2876.050000 445.673000 1 1.000000 1 -3.000000
33 2 908.825000 -2867.940000 446.336000 1 1.000000 1 -3.000000
34 2 902.265000 -2860.520000 446.824000 1 1.000000 1 -3.000000
35 2 893.910000 -2855.560000 448.240000 1 1.000000 1 -3.000000
36 2 884.684000 -2852.090000 448.454000 1 1.000000 1 -3.000000
37 2 876.222000 -2847.090000 450.151000 1 1.000000 1 -3.000000
38 2 867.582000 -2842.060000 450.819000 1 1.000000 1 -3.000000
39 2 857.736000 -2842.940000 450.483000 1 1.000000 1 -3.000000
40 2 847.966000 -2844.360000 451.759000 1 1.000000 1 -3.000000
41 2 838.511000 -2842.220000 454.328000 1 1.000000 1 -3.000000
42 2 830.087000 -2842.340000 459.572000 1 1.000000 1 -3.000000
43 2 821.008000 -2843.120000 463.606000 1 1.000000 1 -3.000000
44 2 813.275000 -2839.890000 468.896000 1 1.000000 1 -3.000000
45 2 805.529000 -2835.430000 473.280000 1 1.000000 1 -3.000000
46 2 800.239000 -2827.290000 475.359000 1 1.000000 1 -3.000000
47 2 796.097000 -2818.390000 477.006000 1 1.000000 1 -3.000000
48 2 791.946000 -2809.350000 476.821000 1 1.000000 3 -3.000000
49 1 827.551000 -2787.630000 498.933000 1 1.000000 3 0.000000
50 3 835.813000 -2821.490000 501.530000 1 1.000000 3 0.000000
51 2 870.742000 -2786.620000 518.065000 1 1.000000 3 -3.000000
52 2 877.117000 -2792.640000 513.431000 1 1.000000 1 -3.000000
53 2 881.921000 -2799.230000 507.704000 1 1.000000 1 -3.000000
54 2 888.561000 -2803.020000 501.608000 1 1.000000 1 -3.000000
55 2 894.943000 -2808.640000 496.631000 1 1.000000 1 -3.000000
56 2 900.081000 -2816.890000 495.119000 1 1.000000 1 -3.000000
57 2 906.484000 -2824.470000 495.731000 1 1.000000 1 -3.000000
58 2 912.688000 -2832.070000 494.406000 1 1.000000 1 -3.000000
59 2 919.612000 -2839.090000 493.249000 1 1.000000 1 -3.000000
60 2 925.342000 -2846.830000 490.734000 1 1.000000 1 -3.000000
61 2 932.245000 -2850.340000 484.535000 1 1.000000 1 -3.000000
62 2 937.145000 -2853.020000 476.338000 1 1.000000 1 -3.000000
63 2 944.577000 -2853.070000 470.066000 1 1.000000 1 -3.000000
64 2 952.092000 -2855.500000 464.187000 1 1.000000 1 -3.000000
65 2 960.898000 -2856.190000 459.651000 1 1.000000 1 -3.000000
66 2 970.331000 -2858.810000 458.378000 1 1.000000 1 -3.000000
67 2 979.769000 -2856.760000 456.342000 1 1.000000 1 -3.000000
68 2 989.586000 -2856.140000 456.625000 1 1.000000 1 -3.000000
69 2 999.063000 -2854.810000 459.204000 1 1.000000 1 -3.000000
70 2 1008.270000 -2853.410000 462.706000 1 1.000000 1 -3.000000
71 2 1017.950000 -2852.500000 464.536000 1 1.000000 1 -3.000000
72 2 1027.890000 -2852.030000 465.206000 1 1.000000 1 -3.000000
73 2 1036.170000 -2851.120000 470.786000 1 1.000000 1 -3.000000
74 2 1045.350000 -2850.250000 474.443000 1 1.000000 1 -3.000000
75 2 1055.040000 -2850.460000 475.355000 1 1.000000 4 -3.000000
76 1 1079.180000 -2853.810000 515.773000 1 1.000000 4 0.000000
77 3 1046.320000 -2860.240000 525.478000 1 1.000000 4 0.000000
78 2 1083.180000 -2863.480000 561.819000 1 1.000000 4 -3.000000
79 2 1073.930000 -2866.630000 563.733000 1 1.000000 1 -3.000000
80 2 1064.230000 -2868.510000 562.982000 1 1.000000 1 -3.000000
81 2 1054.770000 -2871.390000 562.584000 1 1.000000 1 -3.000000
82 2 1046.830000 -2876.300000 559.144000 1 1.000000 1 -3.000000
83 2 1038.200000 -2880.330000 556.799000 1 1.000000 1 -3.000000
84 2 1029.550000 -2885.200000 557.339000 1 1.000000 1 -3.000000
85 2 1020.680000 -2889.430000 558.150000 1 1.000000 1 -3.000000
86 2 1015.860000 -2897.840000 560.298000 1 1.000000 1 -3.000000
87 2 1010.790000 -2906.410000 560.192000 1 1.000000 1 -3.000000
88 2 1003.530000 -2913.010000 562.606000 1 1.000000 1 -3.000000
89 2 999.776000 -2921.820000 564.225000 1 1.000000 1 -3.000000
90 2 994.510000 -2929.950000 562.398000 1 1.000000 1 -3.000000
91 2 987.239000 -2936.360000 560.423000 1 1.000000 1 -3.000000
92 2 979.301000 -2940.870000 556.696000 1 1.000000 1 -3.000000
93 2 969.757000 -2942.900000 558.556000 1 1.000000 1 -3.000000
94 2 959.982000 -2943.460000 560.504000 1 1.000000 1 -3.000000
95 2 951.090000 -2941.730000 564.480000 1 1.000000 1 -3.000000
96 2 941.247000 -2940.660000 564.077000 1 1.000000 1 -3.000000
97 2 932.447000 -2940.730000 568.446000 1 1.000000 1 -3.000000
98 2 923.737000 -2943.180000 572.450000 1 1.000000 1 -3.000000
99 2 916.784000 -2946.030000 579.021000 1 1.000000 1 -3.000000
100 2 911.895000 -2948.660000 587.144000 1 1.000000 1 -3.000000
101 2 911.050000 -2952.130000 596.351000 1 1.000000 1 -3.000000
102 2 906.887000 -2957.220000 603.758000 1 1.000000 5 -3.000000
103 1 908.422000 -2922.950000 636.159000 1 1.000000 5 0.000000
104 3 929.431000 -2910.960000 610.851000 1 1.000000 5 0.000000
105 2 922.047000 -2880.870000 652.385000 1 1.000000 5 -3.000000
106 2 926.742000 -2877.390000 644.299000 1 1.000000 1 -3.000000
107 2 926.870000 -2874.100000 634.904000 1 1.000000 1 -3.000000
108 2 925.588000 -2868.150000 627.168000 1 1.000000 1 -3.000000
109 2 923.933000 -2862.270000 619.261000 1 1.000000 1 -3.000000
110 2 921.960000 -2855.310000 612.600000 1 1.000000 1 -3.000000
111 2 922.528000 -2846.770000 607.710000 1 1.000000 1 -3.000000
112 2 924.096000 -2838.260000 602.485000 1 1.000000 1 -3.000000
113 2 925.986000 -2829.040000 599.495000 1 1.000000 1 -3.000000
114 2 922.520000 -2819.940000 597.550000 1 1.000000 1 -3.000000
115 2 916.671000 -2811.970000 597.529000 1 1.000000 1 -3.000000
116 2 913.207000 -2802.870000 597.924000 1 1.000000 1 -3.000000
117 2 911.324000 -2793.660000 600.985000 1 1.000000 1 -3.000000
118 2 909.823000 -2784.050000 602.566000 1 1.000000 1 -3.000000
119 2 907.252000 -2774.480000 602.151000 1 1.000000 1 -3.000000
120 2 907.721000 -2764.570000 602.586000 1 1.000000 1 -3.000000
121 2 909.188000 -2754.710000 602.720000 1 1.000000 1 -3.000000
122 2 912.233000 -2745.410000 601.032000 1 1.000000 1 -3.000000
123 2 918.645000 -2737.920000 601.598000 1 1.000000 1 -3.000000
124 2 927.169000 -2733.160000 601.485000 1 1.000000 1 -3.000000
125 2 937.023000 -2733.630000 599.746000 1 1.000000 1 -3.000000
126 2 946.662000 -2734.110000 597.649000 1 1.000000 1 -3.000000
127 2 956.481000 -2734.040000 598.017000 1 1.000000 1 -3.000000
128 2 966.350000 -2733.980000 598.694000 1 1.000000 1 -3.000000
129 2 975.629000 -2730.690000 597.674000 1 1.000000 6 -3.000000
130 1 978.339000 -2693.040000 625.844000 1 1.000000 6 0.000000
131 3 946.471000 -2705.440000 632.581000 1 1.000000 6 0.000000
132 2 960.202000 -2660.980000 655.343000 1 1.000000 6 -3.000000
133 2 955.161000 -2667.580000 660.715000 1 1.000000 1 -3.000000
134 2 949.908000 -2674.610000 665.375000 1 1.000000 1 -3.000000
135 2 945.214000 -2681.560000 670.503000 1 1.000000 1 -3.000000
136 2 938.948000 -2688.620000 673.300000 1 1.000000 1 -3.000000
137 2 934.655000 -2697.480000 674.827000 1 1.000000 1 -3.000000
138 2 926.240000 -2701.810000 672.307000 1 1.000000 1 -3.000000
139 2 917.457000 -2705.610000 669.678000 1 1.000000 1 -3.000000
140 2 912.874000 -2710.400000 662.404000 1 1.000000 1 -3.000000
141 2 906.908000 -2715.770000 656.627000 1 1.000000 1 -3.000000
142 2 899.749000 -2719.880000 651.093000 1 1.000000 1 -3.000000
143 2 894.433000 -2724.980000 644.464000 1 1.000000 1 -3.000000
144 2 887.760000 -2728.580000 638.007000 1 1.000000 1 -3.000000
145 2 884.416000 -2732.910000 629.810000 1 1.000000 1 -3.000000
146 2 879.166000 -2739.630000 624.628000 1 1.000000 1 -3.000000
147 2 875.424000 -2743.760000 616.415000 1 1.000000 1 -3.000000
148 2 871.615000 -2746.590000 607.692000 1 1.000000 1 -3.000000
149 2 871.431000 -2748.090000 597.907000 1 1.000000 1 -3.000000
150 2 871.618000 -2748.500000 587.931000 1 1.000000 1 -3.000000
151 2 870.760000 -2746.810000 578.157000 1 1.000000 1 -3.000000
152 2 871.472000 -2743.840000 568.705000 1 1.000000 1 -3.000000
153 2 872.133000 -2737.710000 561.006000 1 1.000000 1 -3.000000
154 2 870.620000 -2731.140000 553.942000 1 1.000000 1 -3.000000
155 2 868.190000 -2724.060000 547.204000 1 1.000000 1 -3.000000
156 2 865.227000 -2718.880000 539.239000 1 1.000000 7 -3.000000
157 1 832.269000 -2692.560000 560.340000 1 1.000000 7 0.000000
158 3 843.598000 -2713.570000 585.913000 1 1.000000 7 0.000000
159 2 804.379000 -2681.360000 596.704000 1 1.000000 7 -3.000000
160 2 808.557000 -2688.740000 601.540000 1 1.000000 1 -3.000000
161 2 813.194000 -2697.400000 601.929000 1 1.000000 1 -3.000000
162 2 816.206000 -2706.720000 601.357000 1 1.000000 1 -3.000000
163 2 815.908000 -2716.150000 604.112000 1 1.000000 1 -3.000000
164 2 815.213000 -2726.060000 605.699000 1 1.000000 1 -3.000000
165 2 815.917000 -2735.710000 608.055000 1 1.000000 1 -3.000000
166 2 814.951000 -2744.840000 611.581000 1 1.000000 1 -3.000000
167 2 817.098000 -2754.470000 611.810000 1 1.000000 1 -3.000000
168 2 815.663000 -2764.350000 611.415000 1 1.000000 1 -3.000000
169 2 815.780000 -2774.090000 612.720000 1 1.000000 1 -3.000000
170 2 815.234000 -2783.580000 615.163000 1 1.000000 1 -3.000000
171 2 818.328000 -2792.770000 617.115000 1 1.000000 1 -3.000000
172 2 817.894000 -2802.640000 617.848000 1 1.000000 1 -3.000000
173 2 817.681000 -2812.450000 617.360000 1 1.000000 1 -3.000000
174 2 816.294000 -2821.880000 614.812000 1 1.000000 1 -3.000000
175 2 813.192000 -2830.690000 611.536000 1 1.000000 1 -3.000000
176 2 810.586000 -2840.000000 609.535000 1 1.000000 1 -3.000000
177 2 805.458000 -2848.350000 608.917000 1 1.000000 1 -3.000000
178 2 802.125000 -2857.730000 609.137000 1 1.000000 1 -3.000000
179 2 800.149000 -2866.550000 613.301000 1 1.000000 1 -3.000000
180 2 799.145000 -2875.620000 617.094000 1 1.000000 1 -3.000000
181 2 797.540000 -2882.460000 624.229000 1 1.000000 1 -3.000000
182 2 797.303000 -2890.120000 630.554000 1 1.000000 1 -3.000000
183 2 799.747000 -2897.190000 636.987000 1 1.000000 8 -3.000000
184 1 759.348000 -2921.360000 640.424000 1 1.000000 8 0.000000
185 3 749.366000 -2890.880000 626.379000 1 1.000000 8 0.000000
186 2 713.572000 -2928.230000 631.076000 1 1.000000 8 -3.000000
187 2 711.176000 -2918.940000 629.042000 1 1.000000 1 -3.000000
188 2 708.112000 -2910.300000 625.250000 1 1.000000 1 -3.000000
189 2 704.927000 -2901.920000 621.233000 1 1.000000 1 -3.000000
190 2 704.545000 -2892.730000 617.823000 1 1.000000 1 -3.000000
191 2 707.487000 -2885.300000 612.123000 1 1.000000 1 -3.000000
192 2 709.436000 -2877.010000 607.090000 1 1.000000 1 -3.000000
193 2 710.684000 -2870.100000 599.972000 1 1.000000 1 -3.000000
194 2 709.628000 -2862.540000 593.650000 1 1.000000 1 -3.000000
195 2 702.156000 -2860.090000 587.521000 1 1.000000 1 -3.000000
196 2 693.629000 -2856.860000 583.401000 1 1.000000 1 -3.000000
197 2 686.315000 -2854.040000 577.416000 1 1.000000 1 -3.000000
198 2 677.425000 -2857.110000 573.959000 1 1.000000 1 -3.000000
199 2 668.265000 -2859.320000 570.948000 1 1.000000 1 -3.000000
200 2 660.378000 -2863.660000 566.962000 1 1.000000 1 -3.000000
201 2 655.127000 -2868.390000 559.908000 1 1.000000 1 -3.000000
202 2 650.064000 -2874.880000 554.518000 1 1.000000 1 -3.000000
203 2 643.619000 -2878.880000 548.051000 1 1.000000 1 -3.000000
204 2 638.586000 -2882.330000 540.421000 1 1.000000 1 -3.000000
205 2 632.356000 -2887.520000 534.962000 1 1.000000 1 -3.000000
206 2 633.174000 -2891.220000 525.952000 1 1.000000 1 -3.000000
207 2 633.295000 -2895.220000 516.878000 1 1.000000 1 -3.000000
208 2 634.369000 -2901.030000 508.923000 1 1.000000 1 -3.000000
209 2 632.386000 -2905.850000 500.458000 1 1.000000 1 -3.000000
210 2 629.839000 -2910.960000 492.339000 1 1.000000 9 -3.000000
211 1 620.304000 -2951.750000 514.095000 1 1.000000 9 0.000000
212 3 619.823000 -2928.410000 540.274000 1 1.000000 9 0.000000
213 2 610.975000 -2978.070000 552.081000 1 1.000000 9 -3.000000
214 2 614.795000 -2975.120000 560.568000 1 1.000000 1 -3.000000
215 2 618.987000 -2970.290000 568.083000 1 1.000000 1 -3.000000
216 2 622.483000 -2965.810000 576.343000 1 1.000000 1 -3.000000
217 2 625.364000 -2961.600000 584.904000 1 1.000000 1 -3.000000
218 2 626.778000 -2956.500000 593.309000 1 1.000000 1 -3.000000
219 2 627.597000 -2953.430000 602.669000 1 1.000000 1 -3.000000
220 2 628.361000 -2950.870000 612.247000 1 1.000000 1 -3.000000
221 2 629.739000 -2948.920000 621.915000 1 1.000000 1 -3.000000
222 2 632.288000 -2945.760000 630.891000 1 1.000000 1 -3.000000
223 2 637.112000 -2944.100000 639.448000 1 1.000000 1 -3.000000
224 2 637.504000 -2938.640000 647.630000 1 1.000000 1 -3.000000
225 2 635.959000 -2932.350000 655.285000 1 1.000000 1 -3.000000
226 2 633.138000 -2929.430000 664.377000 1 1.000000 1 -3.000000
227 2 627.644000 -2927.050000 672.358000 1 1.000000 1 -3.000000
228 2 622.784000 -2925.420000 680.795000 1 1.000000 1 -3.000000
229 2 617.351000 -2921.950000 688.374000 1 1.000000 1 -3.000000
230 2 611.028000 -2918.380000 695.073000 1 1.000000 1 -3.000000
231 2 604.839000 -2912.380000 699.951000 1 1.000000 1 -3.000000
232 2 597.655000 -2906.750000 704.044000 1 1.000000 1 -3.000000
233 2 590.914000 -2903.690000 710.543000 1 1.000000 1 -3.000000
234 2 587.231000 -2907.240000 718.972000 1 1.000000 1 -3.000000
235 2 584.430000 -2913.090000 726.551000 1 1.000000 1 -3.000000
236 2 584.079000 -2919.140000 734.312000 1 1.000000 1 -3.000000
237 2 580.783000 -2928.060000 737.053000 1 1.000000 10 -3.000000
238 1 625.079000 -2930.290000 753.045000 1 1.000000 10 0.000000
239 3 628.514000 -2914.510000 721.932000 1 1.000000 10 0.000000
240 2 671.604000 -2923.360000 749.742000 1 1.000000 10 -3.000000
241 2 670.844000 -2918.620000 741.038000 1 1.000000 1 -3.000000
242 2 670.824000 -2914.190000 732.094000 1 1.000000 1 -3.000000
243 2 670.521000 -2907.830000 724.498000 1 1.000000 1 -3.000000
244 2 671.027000 -2899.980000 718.384000 1 1.000000 1 -3.000000
245 2 668.912000 -2892.910000 711.864000 1 1.000000 1 -3.000000
246 2 669.219000 -2885.670000 704.962000 1 1.000000 1 -3.000000
247 2 671.811000 -2878.560000 698.701000 1 1.000000 1 -3.000000
248 2 673.039000 -2869.410000 694.850000 1 1.000000 1 -3.000000
249 2 675.207000 -2859.880000 692.871000 1 1.000000 1 -3.000000
250 2 676.562000 -2850.190000 691.586000 1 1.000000 1 -3.000000
251 2 676.236000 -2840.610000 689.349000 1 1.000000 1 -3.000000
252 2 677.645000 -2831.020000 687.347000 1 1.000000 1 -3.000000
253 2 678.547000 -2821.310000 685.166000 1 1.000000 1 -3.000000
254 2 681.083000 -2812.650000 681.208000 1 1.000000 1 -3.000000
255 2 680.815000 -2802.640000 680.693000 1 1.000000 1 -3.000000
256 2 684.447000 -2794.040000 677.464000 1 1.000000 1 -3.000000
257 2 691.167000 -2788.400000 673.049000 1 1.000000 1 -3.000000
258 2 696.986000 -2782.830000 667.348000 1 1.000000 1 -3.000000
259 2 701.818000 -2776.640000 661.316000 1 1.000000 1 -3.000000
260 2 708.972000 -2772.560000 655.746000 1 1.000000 1 -3.000000
261 2 716.998000 -2767.360000 653.212000 1 1.000000 1 -3.000000
262 2 723.019000 -2760.150000 650.080000 1 1.000000 1 -3.000000
263 2 728.470000 -2752.360000 647.042000 1 1.000000 1 -3.000000
264 2 732.551000 -2744.210000 643.050000 1 1.000000 11 -3.000000
265 1 738.550000 -2765.100000 601.083000 1 1.000000 11 0.000000
266 3 711.875000 -2782.780000 615.367000 1 1.000000 11 0.000000
267 2 725.638000 -2794.570000 566.478000 1 1.000000 11 -3.000000
268 2 717.004000 -2795.270000 571.286000 1 1.000000 1 -3.000000
269 2 707.614000 -2796.450000 574.349000 1 1.000000 1 -3.000000
270 2 697.845000 -2795.550000 575.841000 1 1.000000 1 -3.000000
271 2 689.086000 -2792.140000 578.618000 1 1.000000 1 -3.000000
272 2 680.869000 -2786.920000 580.376000 1 1.000000 1 -3.000000
273 2 673.342000 -2780.520000 580.585000 1 1.000000 1 -3.000000
274 2 663.923000 -2777.490000 580.780000 1 1.000000 1 -3.000000
275 2 654.185000 -2776.200000 579.855000 1 1.000000 1 -3.000000
276 2 647.169000 -2773.660000 586.318000 1 1.000000 1 -3.000000
277 2 641.020000 -2769.660000 592.915000 1 1.000000 1 -3.000000
278 2 634.377000 -2764.350000 598.000000 1 1.000000 1 -3.000000
279 2 627.968000 -2758.910000 603.245000 1 1.000000 1 -3.000000
280 2 622.280000 -2754.910000 610.193000 1 1.000000 1 -3.000000
281 2 614.866000 -2750.100000 614.745000 1 1.000000 1 -3.000000
282 2 607.015000 -2745.470000 618.560000 1 1.000000 1 -3.000000
283 2 599.612000 -2744.100000 624.888000 1 1.000000 1 -3.000000
284 2 593.579000 -2743.460000 632.704000 1 1.000000 1 -3.000000
285 2 587.637000 -2742.680000 640.555000 1 1.000000 1 -3.000000
286 2 581.305000 -2739.410000 647.661000 1 1.000000 1 -3.000000
287 2 575.258000 -2735.340000 654.225000 1 1.000000 1 -3.000000
288 2 567.419000 -2734.620000 660.197000 1 1.000000 1 -3.000000
289 2 557.981000 -2734.240000 663.556000 1 1.000000 1 -3.000000
290 2 550.499000 -2730.150000 668.552000 1 1.000000 1 -3.000000
291 2 545.463000 -2725.350000 675.705000 1 1.000000 12 -3.000000
292 1 568.483000 -2685.420000 665.823000 1 1.000000 12 0.000000
293 3 559.524000 -2697.460000 634.382000 1 1.000000 12 0.000000
294 2 587.515000 -2653.820000 636.412000 1 1.000000 12 -3.000000
295 2 583.977000 -2657.700000 628.108000 1 1.000000 1 -3.000000
296 2 577.192000 -2659.630000 621.046000 1 1.000000 1 -3.000000
297 2 569.264000 -2662.780000 615.967000 1 1.000000 1 -3.000000
298 2 562.579000 -2666.810000 610.016000 1 1.000000 1 -3.000000
299 2 554.783000 -2668.680000 604.209000 1 1.000000 1 -3.000000
300 2 546.301000 -2669.120000 599.171000 1 1.000000 1 -3.000000
301 2 536.651000 -2667.670000 597.351000 1 1.000000 1 -3.000000
302 2 527.253000 -2664.600000 596.146000 1 1.000000 1 -3.000000
303 2 518.487000 -2660.450000 597.825000 1 1.000000 1 -3.000000
304 2 510.073000 -2655.500000 598.253000 1 1.000000 1 -3.000000
305 2 503.753000 -2648.380000 601.336000 1 1.000000 1 -3.000000
306 2 498.046000 -2641.130000 604.769000 1 1.000000 1 -3.000000
307 2 493.680000 -2632.740000 607.784000 1 1.000000 1 -3.000000
308 2 492.307000 -2623.120000 609.862000 1 1.000000 1 -3.000000
309 2 489.268000 -2614.030000 612.446000 1 1.000000 1 -3.000000
310 2 482.446000 -2607.260000 614.447000 1 1.000000 1 -3.000000
311 2 478.399000 -2598.240000 615.457000 1 1.000000 1 -3.000000
312 2 473.653000 -2589.630000 616.337000 1 1.000000 1 -3.000000
313 2 468.625000 -2580.980000 616.045000 1 1.000000 1 -3.000000
314 2 463.016000 -2573.420000 613.058000 1 1.000000 1 -3.000000
315 2 456.899000 -2565.720000 612.771000 1 1.000000 1 -3.000000
316 2 448.649000 -2561.110000 615.384000 1 1.000000 1 -3.000000
317 2 439.524000 -2559.290000 618.828000 1 1.000000 1 -3.000000
318 2 430.809000 -2558.500000 623.604000 1 1.000000 13 -3.000000
319 1 442.055000 -2582.270000 662.809000 1 1.000000 13 0.000000
320 3 455.737000 -2601.970000 637.332000 1 1.000000 13 0.000000
321 2 463.181000 -2617.350000 686.207000 1 1.000000 13 -3.000000
322 2 469.495000 -2618.670000 678.784000 1 1.000000 1 -3.000000
323 2 478.555000 -2619.020000 674.820000 1 1.000000 1 -3.000000
324 2 484.585000 -2620.060000 667.041000 1 1.000000 1 -3.000000
325 2 491.370000 -2620.550000 659.860000 1 1.000000 1 -3.000000
326 2 497.085000 -2619.700000 651.806000 1 1.000000 1 -3.000000
327 2 502.730000 -2618.450000 643.848000 1 1.000000 1 -3.000000
328 2 509.534000 -2617.780000 636.746000 1 1.000000 1 -3.000000
329 2 516.723000 -2618.010000 629.926000 1 1.000000 1 -3.000000
330 2 525.240000 -2618.890000 625.149000 1 1.000000 1 -3.000000
331 2 534.627000 -2616.890000 622.789000 1 1.000000 1 -3.000000
332 2 543.436000 -2612.520000 621.364000 1 1.000000 1 -3.000000
333 2 549.924000 -2607.950000 615.209000 1 1.000000 1 -3.000000
334 2 553.840000 -2603.150000 607.513000 1 1.000000 1 -3.000000
335 2 559.195000 -2598.290000 600.614000 1 1.000000 1 -3.000000
336 2 566.830000 -2596.970000 594.406000 1 1.000000 1 -3.000000
337 2 574.875000 -2596.570000 588.708000 1 1.000000 1 -3.000000
338 2 582.815000 -2596.590000 582.984000 1 1.000000 1 -3.000000
339 2 589.501000 -2597.130000 575.585000 1 1.000000 1 -3.000000
340 2 595.159000 -2600.060000 567.929000 1 1.000000 1 -3.000000
341 2 599.490000 -2604.900000 560.450000 1 1.000000 1 -3.000000
342 2 603.325000 -2609.580000 552.711000 1 1.000000 1 -3.000000
343 2 607.696000 -2613.420000 544.774000 1 1.000000 1 -3.000000
344 2 610.310000 -2619.310000 537.113000 1 1.000000 1 -3.000000
345 2 613.068000 -2626.290000 530.711000 1 1.000000 14 -3.000000
346 1 641.858000 -2594.730000 510.777000 1 1.000000 14 0.000000
347 3 610.319000 -2579.550000 508.418000 1 1.000000 14 0.000000
348 2 651.736000 -2552.500000 492.232000 1 1.000000 14 -3.000000
349 2 644.073000 -2547.710000 496.127000 1 1.000000 1 -3.000000
350 2 635.914000 -2543.540000 500.013000 1 1.000000 1 -3.000000
351 2 627.210000 -2539.320000 502.496000 1 1.000000 1 -3.000000
352 2 618.156000 -2535.390000 501.916000 1 1.000000 1 -3.000000
353 2 609.084000 -2533.550000 498.263000 1 1.000000 1 -3.000000
354 2 600.761000 -2532.360000 493.040000 1 1.000000 1 -3.000000
355 2 592.617000 -2531.270000 487.396000 1 1.000000 1 -3.000000
356 2 584.676000 -2528.880000 481.909000 1 1.000000 1 -3.000000
357 2 578.186000 -2528.170000 474.498000 1 1.000000 1 -3.000000
358 2 569.773000 -2527.320000 469.395000 1 1.000000 1 -3.000000
359 2 562.585000 -2523.870000 463.478000 1 1.000000 1 -3.000000
360 2 556.171000 -2517.710000 459.335000 1 1.000000 1 -3.000000
361 2 550.031000 -2511.310000 454.886000 1 1.000000 1 -3.000000
362 2 544.051000 -2504.890000 450.413000 1 1.000000 1 -3.000000
363 2 538.881000 -2497.290000 446.767000 1 1.000000 1 -3.000000
364 2 531.587000 -2491.020000 444.975000 1 1.000000 1 -3.000000
365 2 525.479000 -2483.790000 447.700000 1 1.000000 1 -3.000000
366 2 518.688000 -2478.190000 452.269000 1 1.000000 1 -3.000000
367 2 512.021000 -2473.850000 458.342000 1 1.000000 1 -3.000000
368 2 505.465000 -2471.620000 465.325000 1 1.000000 1 -3.000000
369 2 497.333000 -2469.960000 470.826000 1 1.000000 1 -3.000000
370 2 488.470000 -2468.510000 474.948000 1 1.000000 1 -3.000000
371 2 478.979000 -2465.850000 475.902000 1 1.000000 1 -3.000000
372 2 471.373000 -2464.990000 482.224000 1 1.000000 15 -3.000000
373 1 461.224000 -2507.690000 499.486000 1 1.000000 15 0.000000
374 3 479.669000 -2514.980000 470.657000 1 1.000000 15 0.000000
375 2 463.537000 -2554.850000 499.527000 1 1.000000 15 -3.000000
376 2 472.513000 -2553.280000 495.896000 1 1.000000 1 -3.000000
377 2 482.136000 -2552.690000 493.652000 1 1.000000 1 -3.000000
378 2 490.387000 -2555.090000 488.888000 1 1.000000 1 -3.000000
379 2 496.375000 -2558.190000 481.462000 1 1.000000 1 -3.000000
380 2 499.519000 -2562.700000 473.229000 1 1.000000 1 -3.000000
381 2 503.215000 -2567.250000 465.318000 1 1.000000 1 -3.000000
382 2 504.862000 -2573.120000 457.569000 1 1.000000 1 -3.000000
383 2 507.857000 -2577.540000 449.206000 1 1.000000 1 -3.000000
384 2 510.954000 -2585.370000 443.894000 1 1.000000 1 -3.000000
385 2 515.406000 -2593.410000 440.230000 1 1.000000 1 -3.000000
386 2 520.103000 -2600.240000 434.866000 1 1.000000 1 -3.000000
387 2 524.607000 -2605.560000 427.938000 1 1.000000 1 -3.000000
388 2 529.855000 -2610.450000 421.264000 1 1.000000 1 -3.000000
389 2 537.614000 -2614.710000 416.945000 1 1.000000 1 -3.000000
390 2 545.670000 -2617.220000 411.741000 1 1.000000 1 -3.000000
391 2 552.540000 -2623.300000 407.946000 1 1.000000 1 -3.000000
392 2 561.213000 -2628.070000 406.801000 1 1.000000 1 -3.000000
393 2 570.534000 -2630.790000 405.868000 1 1.000000 1 -3.000000
394 2 577.926000 -2637.300000 404.595000 1 1.000000 1 -3.000000
395 2 583.089000 -2645.000000 401.084000 1 1.000000 1 -3.000000
396 2 588.252000 -2652.620000 397.286000 1 1.000000 1 -3.000000
397 2 589.626000 -2659.320000 390.217000 1 1.000000 1 -3.000000
398 2 589.361000 -2666.200000 383.129000 1 1.000000 1 -3.000000
399 2 588.811000 -2672.760000 375.762000 1 1.000000 16 -3.000000
400 1 574.256000 -2651.520000 336.229000 1 1.000000 16 0.000000
401 3 571.429000 -2626.150000 360.397000 1 1.000000 16 0.000000
402 2 561.476000 -2613.750000 310.938000 1 1.000000 16 -3.000000
403 2 558.119000 -2607.150000 317.466000 1 1.000000 1 -3.000000
404 2 554.198000 -2603.190000 325.722000 1 1.000000 1 -3.000000
405 2 555.488000 -2596.440000 332.917000 1 1.000000 1 -3.000000
406 2 558.581000 -2588.960000 338.598000 1 1.000000 1 -3.000000
407 2 564.584000 -2585.240000 345.551000 1 1.000000 1 -3.000000
408 2 567.674000 -2580.520000 353.704000 1 1.000000 1 -3.000000
409 2 569.214000 -2574.700000 361.544000 1 1.000000 1 -3.000000
410 2 571.463000 -2568.040000 368.526000 1 1.000000 1 -3.000000
411 2 574.325000 -2563.490000 376.781000 1 1.000000 1 -3.000000
412 2 576.628000 -2559.210000 385.378000 1 1.000000 1 -3.000000
413 2 579.351000 -2554.030000 393.317000 1 1.000000 1 -3.000000
414 2 582.468000 -2551.280000 402.301000 1 1.000000 1 -3.000000
415 2 587.263000 -2545.900000 408.973000 1 1.000000 1 -3.000000
416 2 591.744000 -2538.690000 414.167000 1 1.000000 1 -3.000000
417 2 597.171000 -2530.660000 416.345000 1 1.000000 1 -3.000000
418 2 602.993000 -2522.720000 416.634000 1 1.000000 1 -3.000000
419 2 607.947000 -2514.170000 415.635000 1 1.000000 1 -3.000000
420 2 614.679000 -2507.440000 413.233000 1 1.000000 1 -3.000000
421 2 622.357000 -2501.420000 412.317000 1 1.000000 1 -3.000000
422 2 631.185000 -2498.600000 408.618000 1 1.000000 1 -3.000000
423 2 639.989000 -2494.360000 406.686000 1 1.000000 1 -3.000000
424 2 648.642000 -2489.410000 406.027000 1 1.000000 1 -3.000000
425 2 656.797000 -2483.850000 405.829000 1 1.000000 1 -3.000000
426 2 664.828000 -2478.160000 405.801000 1 1.000000 17 -3.000000
427 1 677.392000 -2505.280000 369.247000 1 1.000000 17 0.000000
428 3 642.706000 -2502.500000 365.648000 1 1.000000 17 0.000000
429 2 667.876000 -2534.270000 333.211000 1 1.000000 17 -3.000000
430 2 658.899000 -2530.410000 334.028000 1 1.000000 1 -3.000000
431 2 651.135000 -2524.490000 335.442000 1 1.000000 1 -3.000000
432 2 643.610000 -2518.630000 338.236000 1 1.000000 1 -3.000000
433 2 635.690000 -2515.130000 342.956000 1 1.000000 1 -3.000000
434 2 627.358000 -2512.500000 347.628000 1 1.000000 1 -3.000000
435 2 620.711000 -2508.120000 353.486000 1 1.000000 1 -3.000000
436 2 614.633000 -2503.090000 359.560000 1 1.000000 1 -3.000000
437 2 608.890000 -2500.960000 367.386000 1 1.000000 1 -3.000000
438 2 602.506000 -2495.960000 373.001000 1 1.000000 1 -3.000000
439 2 600.342000 -2486.950000 376.520000 1 1.000000 1 -3.000000
440 2 596.109000 -2478.420000 379.466000 1 1.000000 1 -3.000000
441 2 596.571000 -2468.800000 381.722000 1 1.000000 1 -3.000000
442 2 595.447000 -2459.190000 383.859000 1 1.000000 1 -3.000000
443 2 593.527000 -2449.720000 385.845000 1 1.000000 1 -3.000000
444 2 595.293000 -2439.980000 387.441000 1 1.000000 1 -3.000000
445 2 594.296000 -2430.240000 389.526000 1 1.000000 1 -3.000000
446 2 590.885000 -2421.070000 391.315000 1 1.000000 1 -3.000000
447 2 587.458000 -2412.680000 395.601000 1 1.000000 1 -3.000000
448 2 582.061000 -2405.950000 400.336000 1 1.000000 1 -3.000000
449 2 574.140000 -2401.300000 404.062000 1 1.000000 1 -3.000000
450 2 567.420000 -2395.160000 408.259000 1 1.000000 1 -3.000000
451 2 560.072000 -2391.730000 413.784000 1 1.000000 1 -3.000000
452 2 551.452000 -2391.400000 418.689000 1 1.000000 1 -3.000000
453 2 542.651000 -2387.160000 419.934000 1 1.000000 18 -3.000000
454 1 535.740000 -2388.700000 466.586000 1 1.000000 18 0.000000
455 3 569.498000 -2396.780000 463.300000 1 1.000000 18 0.000000
456 2 550.280000 -2392.400000 511.299000 1 1.000000 18 -3.000000
457 2 559.673000 -2394.820000 509.563000 1 1.000000 1 -3.000000
458 2 569.333000 -2394.370000 511.471000 1 1.000000 1 -3.000000
459 2 579.133000 -2395.050000 512.674000 1 1.000000 1 -3.000000
460 2 588.594000 -2392.940000 515.058000 1 1.000000 1 -3.000000
461 2 598.242000 -2390.720000 514.925000 1 1.000000 1 -3.000000
462 2 607.904000 -2391.160000 513.480000 1 1.000000 1 -3.000000
463 2 616.582000 -2395.840000 511.988000 1 1.000000 1 -3.000000
464 2 623.659000 -2402.610000 510.369000 1 1.000000 1 -3.000000
465 2 630.934000 -2409.020000 508.374000 1 1.000000 1 -3.000000