LAMMPS data file

4067 atoms
4067 ellipsoids
4516 bonds
8882 angles
0 dihedrals

3 atom types
5 bond types
12 angle types
0 dihedral types

-4631.092947 4670.465898 xlo xhi
-4631.092947 4670.465898 ylo yhi
-4631.092947 4670.465898 zlo zhi

Masses

1 196016.000000
2 1950.000000
3 19500.000000

Atoms

1 2 467.929000 -3048.540000 686.595000 1 1.000000 1 -3.000000
2 2 466.194000 -3040.680000 680.917000 1 1.000000 1 -3.000000
3 2 466.075000 -3032.040000 676.173000 1 1.000000 1 -3.000000
4 2 465.414000 -3023.350000 671.412000 1 1.000000 1 -3.000000
5 2 462.431000 -3015.780000 665.863000 1 1.000000 1 -3.000000
6 2 459.991000 -3006.290000 664.299000 1 1.000000 1 -3.000000
7 2 459.589000 -2996.440000 662.587000 1 1.000000 1 -3.000000
8 2 459.412000 -2986.640000 661.999000 1 1.000000 1 -3.000000
9 2 462.345000 -2977.240000 663.081000 1 1.000000 1 -3.000000
10 2 465.806000 -2968.020000 663.833000 1 1.000000 1 -3.000000
11 2 468.365000 -2958.770000 661.817000 1 1.000000 1 -3.000000
12 2 466.200000 -2949.560000 658.477000 1 1.000000 1 -3.000000
13 2 463.845000 -2941.620000 652.882000 1 1.000000 1 -3.000000
14 2 460.305000 -2932.730000 650.481000 1 1.000000 1 -3.000000
15 2 457.865000 -2923.580000 647.609000 1 1.000000 1 -3.000000
16 2 455.152000 -2914.520000 644.700000 1 1.000000 1 -3.000000
17 2 454.987000 -2904.710000 643.470000 1 1.000000 1 -3.000000
18 2 450.931000 -2896.720000 639.129000 1 1.000000 1 -3.000000
19 2 444.662000 -2889.060000 637.686000 1 1.000000 1 -3.000000
20 2 437.058000 -2882.760000 636.721000 1 1.000000 1 -3.000000
21 2 429.098000 -2877.030000 637.070000 1 1.000000 2 -3.000000
22 1 463.618000 -2846.420000 646.639000 1 1.000000 2 0.000000
23 3 480.061000 -2877.230000 646.713000 1 1.000000 2 0.000000
24 2 508.538000 -2834.510000 654.914000 1 1.000000 2 -3.000000
25 2 512.414000 -2843.220000 652.031000 1 1.000000 1 -3.000000
26 2 515.772000 -2851.080000 647.140000 1 1.000000 1 -3.000000
27 2 520.242000 -2858.500000 642.228000 1 1.000000 1 -3.000000
28 2 521.817000 -2867.660000 638.856000 1 1.000000 1 -3.000000
29 2 521.421000 -2877.490000 637.984000 1 1.000000 1 -3.000000
30 2 522.238000 -2887.280000 637.616000 1 1.000000 1 -3.000000
31 2 524.340000 -2897.030000 637.249000 1 1.000000 1 -3.000000
32 2 524.248000 -2906.830000 635.727000 1 1.000000 1 -3.000000
33 2 524.890000 -2916.060000 639.166000 1 1.000000 1 -3.000000
34 2 527.206000 -2925.460000 641.234000 1 1.000000 1 -3.000000
35 2 528.729000 -2933.740000 646.342000 1 1.000000 1 -3.000000
36 2 531.069000 -2941.480000 652.115000 1 1.000000 1 -3.000000
37 2 535.620000 -2949.490000 655.619000 1 1.000000 1 -3.000000
38 2 541.332000 -2956.570000 659.152000 1 1.000000 1 -3.000000
39 2 547.139000 -2964.460000 660.047000 1 1.000000 1 -3.000000
40 2 553.959000 -2971.330000 661.931000 1 1.000000 1 -3.000000
41 2 559.362000 -2977.420000 667.480000 1 1.000000 1 -3.000000
42 2 563.392000 -2985.810000 670.573000 1 1.000000 1 -3.000000
43 2 569.021000 -2993.630000 672.859000 1 1.000000 1 -3.000000
44 2 575.684000 -3000.530000 675.005000 1 1.000000 1 -3.000000
45 2 580.714000 -3008.850000 676.826000 1 1.000000 1 -3.000000
46 2 582.492000 -3018.230000 680.049000 1 1.000000 1 -3.000000
47 2 587.556000 -3026.670000 680.096000 1 1.000000 1 -3.000000
48 2 591.694000 -3034.780000 684.004000 1 1.000000 3 -3.000000
49 1 562.726000 -3065.980000 663.848000 1 1.000000 3 0.000000
50 3 566.355000 -3041.300000 639.247000 1 1.000000 3 0.000000
51 2 536.116000 -3082.260000 628.446000 1 1.000000 3 -3.000000
52 2 536.215000 -3077.010000 620.140000 1 1.000000 1 -3.000000
53 2 531.889000 -3075.190000 611.317000 1 1.000000 1 -3.000000
54 2 524.144000 -3072.530000 605.744000 1 1.000000 1 -3.000000
55 2 515.305000 -3070.180000 602.318000 1 1.000000 1 -3.000000
56 2 505.895000 -3068.570000 600.237000 1 1.000000 1 -3.000000
57 2 497.694000 -3063.540000 597.879000 1 1.000000 1 -3.000000
58 2 489.079000 -3059.540000 595.153000 1 1.000000 1 -3.000000
59 2 482.231000 -3057.090000 588.389000 1 1.000000 1 -3.000000
60 2 476.382000 -3051.410000 582.698000 1 1.000000 1 -3.000000
61 2 469.662000 -3045.370000 578.675000 1 1.000000 1 -3.000000
62 2 464.999000 -3037.320000 575.347000 1 1.000000 1 -3.000000
63 2 460.150000 -3029.470000 571.991000 1 1.000000 1 -3.000000
64 2 455.687000 -3021.390000 568.473000 1 1.000000 1 -3.000000
65 2 451.284000 -3012.460000 567.775000 1 1.000000 1 -3.000000
66 2 446.826000 -3003.900000 565.855000 1 1.000000 1 -3.000000
67 2 441.565000 -2995.610000 564.080000 1 1.000000 1 -3.000000
68 2 437.194000 -2987.880000 559.680000 1 1.000000 1 -3.000000
69 2 430.423000 -2981.320000 556.963000 1 1.000000 1 -3.000000
70 2 421.978000 -2977.410000 553.680000 1 1.000000 1 -3.000000
71 2 412.345000 -2975.240000 552.110000 1 1.000000 1 -3.000000
72 2 402.785000 -2973.740000 554.287000 1 1.000000 1 -3.000000
73 2 392.912000 -2974.120000 553.606000 1 1.000000 1 -3.000000
74 2 383.174000 -2973.660000 555.884000 1 1.000000 1 -3.000000
75 2 374.329000 -2974.690000 560.236000 1 1.000000 4 -3.000000
76 1 358.677000 -2932.260000 573.660000 1 1.000000 4 0.000000
77 3 391.900000 -2926.110000 565.122000 1 1.000000 4 0.000000
78 2 363.138000 -2885.710000 580.222000 1 1.000000 4 -3.000000
79 2 372.405000 -2886.480000 576.753000 1 1.000000 1 -3.000000
80 2 380.989000 -2885.780000 571.923000 1 1.000000 1 -3.000000
81 2 390.691000 -2885.200000 569.848000 1 1.000000 1 -3.000000
82 2 399.930000 -2884.730000 566.484000 1 1.000000 1 -3.000000
83 2 408.023000 -2885.930000 561.004000 1 1.000000 1 -3.000000
84 2 414.424000 -2884.490000 553.567000 1 1.000000 1 -3.000000
85 2 420.445000 -2884.640000 545.645000 1 1.000000 1 -3.000000
86 2 424.794000 -2883.110000 536.757000 1 1.000000 1 -3.000000
87 2 426.296000 -2883.090000 526.964000 1 1.000000 1 -3.000000
88 2 427.760000 -2881.150000 517.410000 1 1.000000 1 -3.000000
89 2 428.991000 -2882.210000 507.728000 1 1.000000 1 -3.000000
90 2 432.305000 -2885.550000 499.141000 1 1.000000 1 -3.000000
91 2 435.742000 -2891.480000 492.015000 1 1.000000 1 -3.000000
92 2 437.940000 -2895.470000 483.153000 1 1.000000 1 -3.000000
93 2 441.910000 -2895.440000 474.058000 1 1.000000 1 -3.000000
94 2 444.733000 -2894.900000 464.545000 1 1.000000 1 -3.000000
95 2 443.829000 -2893.280000 454.917000 1 1.000000 1 -3.000000
96 2 446.175000 -2891.810000 445.341000 1 1.000000 1 -3.000000
97 2 446.662000 -2888.240000 436.165000 1 1.000000 1 -3.000000
98 2 443.164000 -2882.950000 428.664000 1 1.000000 1 -3.000000
99 2 436.859000 -2878.520000 422.320000 1 1.000000 1 -3.000000
100 2 430.895000 -2875.620000 414.974000 1 1.000000 1 -3.000000
101 2 424.758000 -2872.230000 407.899000 1 1.000000 1 -3.000000
102 2 417.267000 -2870.230000 401.645000 1 1.000000 5 -3.000000
103 1 382.429000 -2860.070000 431.781000 1 1.000000 5 0.000000
104 3 408.859000 -2869.020000 452.943000 1 1.000000 5 0.000000
105 2 364.541000 -2853.610000 474.953000 1 1.000000 5 -3.000000
106 2 373.531000 -2852.720000 478.863000 1 1.000000 1 -3.000000
107 2 382.492000 -2852.340000 482.985000 1 1.000000 1 -3.000000
108 2 391.269000 -2850.440000 487.125000 1 1.000000 1 -3.000000
109 2 399.360000 -2852.670000 492.263000 1 1.000000 1 -3.000000
110 2 408.765000 -2854.000000 495.113000 1 1.000000 1 -3.000000
111 2 417.858000 -2857.540000 496.276000 1 1.000000 1 -3.000000
112 2 427.054000 -2861.270000 496.101000 1 1.000000 1 -3.000000
113 2 435.768000 -2864.700000 499.285000 1 1.000000 1 -3.000000
114 2 443.426000 -2868.070000 504.623000 1 1.000000 1 -3.000000
115 2 451.396000 -2868.680000 510.501000 1 1.000000 1 -3.000000
116 2 459.617000 -2870.310000 515.876000 1 1.000000 1 -3.000000
117 2 468.346000 -2871.440000 520.596000 1 1.000000 1 -3.000000
118 2 475.748000 -2871.030000 527.168000 1 1.000000 1 -3.000000
119 2 483.632000 -2870.440000 533.139000 1 1.000000 1 -3.000000
120 2 491.440000 -2871.140000 539.194000 1 1.000000 1 -3.000000
121 2 497.755000 -2875.240000 545.770000 1 1.000000 1 -3.000000
122 2 502.502000 -2877.780000 554.034000 1 1.000000 1 -3.000000
123 2 510.369000 -2881.580000 558.762000 1 1.000000 1 -3.000000
124 2 518.832000 -2885.970000 561.529000 1 1.000000 1 -3.000000
125 2 527.476000 -2890.180000 563.828000 1 1.000000 1 -3.000000
126 2 537.258000 -2891.320000 562.315000 1 1.000000 1 -3.000000
127 2 546.412000 -2895.040000 561.102000 1 1.000000 1 -3.000000
128 2 555.929000 -2894.550000 558.725000 1 1.000000 1 -3.000000
129 2 565.522000 -2892.030000 557.825000 1 1.000000 6 -3.000000
130 1 570.193000 -2851.640000 533.929000 1 1.000000 6 0.000000
131 3 537.243000 -2850.020000 545.999000 1 1.000000 6 0.000000
132 2 554.916000 -2809.750000 518.375000 1 1.000000 6 -3.000000
133 2 546.854000 -2808.480000 523.917000 1 1.000000 1 -3.000000
134 2 538.403000 -2806.380000 528.754000 1 1.000000 1 -3.000000
135 2 529.166000 -2804.090000 531.286000 1 1.000000 1 -3.000000
136 2 519.464000 -2804.410000 532.581000 1 1.000000 1 -3.000000
137 2 509.605000 -2804.600000 533.442000 1 1.000000 1 -3.000000
138 2 500.349000 -2801.370000 532.780000 1 1.000000 1 -3.000000
139 2 490.987000 -2801.830000 529.657000 1 1.000000 1 -3.000000
140 2 481.049000 -2801.550000 528.568000 1 1.000000 1 -3.000000
141 2 471.685000 -2798.280000 528.635000 1 1.000000 1 -3.000000
142 2 462.270000 -2795.680000 528.137000 1 1.000000 1 -3.000000
143 2 453.109000 -2794.400000 531.515000 1 1.000000 1 -3.000000
144 2 445.753000 -2796.200000 537.961000 1 1.000000 1 -3.000000
145 2 437.250000 -2798.280000 542.253000 1 1.000000 1 -3.000000
146 2 429.149000 -2799.190000 547.738000 1 1.000000 1 -3.000000
147 2 421.535000 -2801.690000 553.589000 1 1.000000 1 -3.000000
148 2 416.496000 -2805.030000 561.334000 1 1.000000 1 -3.000000
149 2 410.594000 -2807.740000 568.713000 1 1.000000 1 -3.000000
150 2 404.016000 -2811.730000 574.932000 1 1.000000 1 -3.000000
151 2 399.163000 -2814.900000 582.877000 1 1.000000 1 -3.000000
152 2 392.632000 -2817.490000 589.802000 1 1.000000 1 -3.000000
153 2 387.257000 -2819.420000 597.907000 1 1.000000 1 -3.000000
154 2 382.728000 -2822.880000 606.012000 1 1.000000 1 -3.000000
155 2 376.712000 -2825.790000 613.345000 1 1.000000 1 -3.000000
156 2 373.098000 -2828.650000 622.178000 1 1.000000 7 -3.000000
157 1 344.397000 -2791.200000 624.659000 1 1.000000 7 0.000000
158 3 350.340000 -2794.570000 590.237000 1 1.000000 7 0.000000
159 2 322.349000 -2753.740000 606.167000 1 1.000000 7 -3.000000
160 2 325.274000 -2751.330000 596.932000 1 1.000000 1 -3.000000
161 2 328.214000 -2747.800000 588.198000 1 1.000000 1 -3.000000
162 2 330.597000 -2746.740000 578.623000 1 1.000000 1 -3.000000
163 2 335.595000 -2744.350000 570.358000 1 1.000000 1 -3.000000
164 2 340.059000 -2742.450000 561.742000 1 1.000000 1 -3.000000
165 2 340.651000 -2739.400000 552.320000 1 1.000000 1 -3.000000
166 2 340.939000 -2740.070000 542.563000 1 1.000000 1 -3.000000
167 2 344.494000 -2739.980000 533.393000 1 1.000000 1 -3.000000
168 2 348.037000 -2737.620000 524.407000 1 1.000000 1 -3.000000
169 2 351.377000 -2734.750000 515.650000 1 1.000000 1 -3.000000
170 2 352.963000 -2729.720000 507.380000 1 1.000000 1 -3.000000
171 2 356.719000 -2725.750000 498.970000 1 1.000000 1 -3.000000
172 2 360.163000 -2724.670000 489.829000 1 1.000000 1 -3.000000
173 2 363.428000 -2724.960000 480.643000 1 1.000000 1 -3.000000
174 2 365.170000 -2724.110000 470.994000 1 1.000000 1 -3.000000
175 2 365.502000 -2723.610000 461.066000 1 1.000000 1 -3.000000
176 2 366.156000 -2722.880000 451.146000 1 1.000000 1 -3.000000
177 2 364.776000 -2719.820000 441.841000 1 1.000000 1 -3.000000
178 2 357.602000 -2716.360000 435.910000 1 1.000000 1 -3.000000
179 2 351.650000 -2713.850000 428.355000 1 1.000000 1 -3.000000
180 2 344.069000 -2711.140000 422.468000 1 1.000000 1 -3.000000
181 2 340.416000 -2710.940000 413.253000 1 1.000000 1 -3.000000
182 2 336.065000 -2708.860000 404.716000 1 1.000000 1 -3.000000
183 2 330.347000 -2706.240000 396.930000 1 1.000000 8 -3.000000
184 1 343.536000 -2660.910000 398.958000 1 1.000000 8 0.000000
185 3 371.206000 -2678.110000 411.808000 1 1.000000 8 0.000000
186 2 373.789000 -2626.180000 409.200000 1 1.000000 8 -3.000000
187 2 379.054000 -2630.650000 416.281000 1 1.000000 1 -3.000000
188 2 386.532000 -2633.060000 422.234000 1 1.000000 1 -3.000000
189 2 394.305000 -2637.310000 426.479000 1 1.000000 1 -3.000000
190 2 402.987000 -2640.150000 430.413000 1 1.000000 1 -3.000000
191 2 411.703000 -2641.900000 434.935000 1 1.000000 1 -3.000000
192 2 420.702000 -2643.930000 438.382000 1 1.000000 1 -3.000000
193 2 429.877000 -2646.760000 440.322000 1 1.000000 1 -3.000000
194 2 438.283000 -2650.890000 443.694000 1 1.000000 1 -3.000000
195 2 446.251000 -2653.220000 448.989000 1 1.000000 1 -3.000000
196 2 453.569000 -2656.440000 454.778000 1 1.000000 1 -3.000000
197 2 458.409000 -2662.340000 460.988000 1 1.000000 1 -3.000000
198 2 463.871000 -2666.670000 468.013000 1 1.000000 1 -3.000000
199 2 468.578000 -2667.450000 476.799000 1 1.000000 1 -3.000000
200 2 474.694000 -2671.320000 483.463000 1 1.000000 1 -3.000000
201 2 480.026000 -2675.780000 490.278000 1 1.000000 1 -3.000000
202 2 488.087000 -2681.580000 490.819000 1 1.000000 1 -3.000000
203 2 493.403000 -2689.250000 494.036000 1 1.000000 1 -3.000000
204 2 500.358000 -2695.460000 496.718000 1 1.000000 1 -3.000000
205 2 505.439000 -2703.480000 499.611000 1 1.000000 1 -3.000000
206 2 509.858000 -2712.130000 501.616000 1 1.000000 1 -3.000000
207 2 512.499000 -2721.600000 502.815000 1 1.000000 1 -3.000000
208 2 513.674000 -2731.420000 503.120000 1 1.000000 1 -3.000000
209 2 512.151000 -2741.240000 503.177000 1 1.000000 1 -3.000000
210 2 513.313000 -2751.040000 504.296000 1 1.000000 9 -3.000000
211 1 473.159000 -2742.470000 481.088000 1 1.000000 9 0.000000
212 3 489.797000 -2711.690000 480.047000 1 1.000000 9 0.000000
213 2 443.444000 -2714.970000 456.795000 1 1.000000 9 -3.000000
214 2 450.546000 -2708.350000 455.403000 1 1.000000 1 -3.000000
215 2 456.436000 -2701.190000 452.100000 1 1.000000 1 -3.000000
216 2 461.288000 -2693.010000 449.191000 1 1.000000 1 -3.000000
217 2 469.557000 -2687.670000 448.193000 1 1.000000 1 -3.000000
218 2 478.505000 -2683.830000 446.210000 1 1.000000 1 -3.000000
219 2 488.045000 -2681.990000 444.657000 1 1.000000 1 -3.000000
220 2 497.394000 -2680.880000 441.397000 1 1.000000 1 -3.000000
221 2 506.774000 -2681.510000 438.323000 1 1.000000 1 -3.000000
222 2 515.824000 -2684.830000 436.109000 1 1.000000 1 -3.000000
223 2 525.061000 -2687.890000 434.630000 1 1.000000 1 -3.000000
224 2 534.660000 -2688.960000 432.276000 1 1.000000 1 -3.000000
225 2 544.067000 -2690.810000 429.865000 1 1.000000 1 -3.000000
226 2 553.537000 -2692.530000 427.246000 1 1.000000 1 -3.000000
227 2 561.693000 -2693.090000 421.992000 1 1.000000 1 -3.000000
228 2 569.141000 -2692.950000 415.561000 1 1.000000 1 -3.000000
229 2 578.150000 -2695.340000 412.277000 1 1.000000 1 -3.000000
230 2 586.370000 -2699.310000 408.495000 1 1.000000 1 -3.000000
231 2 595.629000 -2701.960000 406.213000 1 1.000000 1 -3.000000
232 2 604.012000 -2706.910000 405.302000 1 1.000000 1 -3.000000
233 2 613.262000 -2710.510000 403.876000 1 1.000000 1 -3.000000
234 2 623.091000 -2711.940000 403.210000 1 1.000000 1 -3.000000
235 2 632.172000 -2714.180000 399.655000 1 1.000000 1 -3.000000
236 2 641.389000 -2714.510000 395.936000 1 1.000000 1 -3.000000
237 2 649.543000 -2719.340000 393.181000 1 1.000000 10 -3.000000
238 1 674.072000 -2686.530000 369.729000 1 1.000000 10 0.000000
239 3 640.876000 -2679.110000 361.619000 1 1.000000 10 0.000000
240 2 678.118000 -2651.030000 338.966000 1 1.000000 10 -3.000000
241 2 670.419000 -2645.840000 342.289000 1 1.000000 1 -3.000000
242 2 662.352000 -2641.380000 345.752000 1 1.000000 1 -3.000000
243 2 653.770000 -2639.440000 350.130000 1 1.000000 1 -3.000000
244 2 644.905000 -2637.660000 354.110000 1 1.000000 1 -3.000000
245 2 636.759000 -2633.210000 357.525000 1 1.000000 1 -3.000000
246 2 631.685000 -2628.910000 365.093000 1 1.000000 1 -3.000000
247 2 624.133000 -2628.260000 371.480000 1 1.000000 1 -3.000000
248 2 615.228000 -2627.530000 375.824000 1 1.000000 1 -3.000000
249 2 606.167000 -2624.560000 378.996000 1 1.000000 1 -3.000000
250 2 596.341000 -2623.760000 379.630000 1 1.000000 1 -3.000000
251 2 586.646000 -2625.940000 379.113000 1 1.000000 1 -3.000000
252 2 577.108000 -2627.880000 377.245000 1 1.000000 1 -3.000000
253 2 567.636000 -2630.950000 378.354000 1 1.000000 1 -3.000000
254 2 558.809000 -2635.520000 379.364000 1 1.000000 1 -3.000000
255 2 550.711000 -2639.920000 375.710000 1 1.000000 1 -3.000000
256 2 543.849000 -2644.670000 370.481000 1 1.000000 1 -3.000000
257 2 537.304000 -2649.870000 365.115000 1 1.000000 1 -3.000000
258 2 534.923000 -2657.080000 359.015000 1 1.000000 1 -3.000000
259 2 534.945000 -2665.570000 354.052000 1 1.000000 1 -3.000000
260 2 534.902000 -2673.180000 347.672000 1 1.000000 1 -3.000000
261 2 537.175000 -2680.830000 341.832000 1 1.000000 1 -3.000000
262 2 541.883000 -2687.410000 336.131000 1 1.000000 1 -3.000000
263 2 546.654000 -2694.500000 331.280000 1 1.000000 1 -3.000000
264 2 554.037000 -2699.200000 326.526000 1 1.000000 11 -3.000000
265 1 591.943000 -2673.310000 315.723000 1 1.000000 11 0.000000
266 3 574.439000 -2652.900000 338.069000 1 1.000000 11 0.000000
267 2 619.308000 -2635.000000 319.143000 1 1.000000 11 -3.000000
268 2 610.405000 -2631.210000 317.019000 1 1.000000 1 -3.000000
269 2 604.235000 -2627.470000 310.176000 1 1.000000 1 -3.000000
270 2 597.771000 -2622.380000 304.800000 1 1.000000 1 -3.000000
271 2 590.346000 -2618.500000 299.288000 1 1.000000 1 -3.000000
272 2 581.026000 -2616.490000 296.675000 1 1.000000 1 -3.000000
273 2 571.779000 -2619.990000 296.552000 1 1.000000 1 -3.000000
274 2 562.208000 -2619.820000 298.865000 1 1.000000 1 -3.000000
275 2 553.809000 -2614.770000 297.439000 1 1.000000 1 -3.000000
276 2 544.557000 -2611.460000 297.424000 1 1.000000 1 -3.000000
277 2 535.275000 -2610.320000 300.395000 1 1.000000 1 -3.000000
278 2 525.374000 -2610.300000 301.702000 1 1.000000 1 -3.000000
279 2 515.659000 -2609.820000 301.357000 1 1.000000 1 -3.000000
280 2 507.417000 -2604.740000 300.173000 1 1.000000 1 -3.000000
281 2 499.035000 -2599.700000 298.128000 1 1.000000 1 -3.000000
282 2 491.840000 -2594.450000 293.800000 1 1.000000 1 -3.000000
283 2 484.522000 -2589.080000 289.702000 1 1.000000 1 -3.000000
284 2 476.818000 -2584.440000 285.502000 1 1.000000 1 -3.000000
285 2 470.450000 -2579.340000 279.773000 1 1.000000 1 -3.000000
286 2 467.337000 -2572.020000 273.677000 1 1.000000 1 -3.000000
287 2 466.036000 -2563.940000 268.103000 1 1.000000 1 -3.000000
288 2 465.965000 -2556.350000 261.669000 1 1.000000 1 -3.000000
289 2 466.473000 -2547.420000 257.117000 1 1.000000 1 -3.000000
290 2 464.325000 -2538.610000 253.198000 1 1.000000 1 -3.000000
291 2 461.857000 -2531.110000 247.207000 1 1.000000 12 -3.000000
292 1 441.350000 -2511.030000 284.660000 1 1.000000 12 0.000000
293 3 460.422000 -2536.740000 298.681000 1 1.000000 12 0.000000
294 2 432.306000 -2507.100000 330.722000 1 1.000000 12 -3.000000
295 2 441.027000 -2508.480000 335.243000 1 1.000000 1 -3.000000
296 2 450.142000 -2512.070000 337.025000 1 1.000000 1 -3.000000
297 2 458.915000 -2516.290000 338.982000 1 1.000000 1 -3.000000
298 2 468.013000 -2519.880000 339.319000 1 1.000000 1 -3.000000
299 2 476.762000 -2523.720000 337.037000 1 1.000000 1 -3.000000
300 2 485.452000 -2527.080000 333.852000 1 1.000000 1 -3.000000
301 2 495.231000 -2527.060000 334.780000 1 1.000000 1 -3.000000
302 2 504.985000 -2526.080000 334.689000 1 1.000000 1 -3.000000
303 2 514.740000 -2526.160000 336.237000 1 1.000000 1 -3.000000
304 2 523.727000 -2525.760000 340.151000 1 1.000000 1 -3.000000
305 2 530.649000 -2523.600000 346.740000 1 1.000000 1 -3.000000
306 2 537.082000 -2521.500000 353.850000 1 1.000000 1 -3.000000
307 2 543.185000 -2517.930000 360.661000 1 1.000000 1 -3.000000
308 2 551.031000 -2516.330000 366.504000 1 1.000000 1 -3.000000
309 2 558.546000 -2513.540000 372.218000 1 1.000000 1 -3.000000
310 2 566.421000 -2511.220000 377.656000 1 1.000000 1 -3.000000
311 2 574.813000 -2507.870000 381.383000 1 1.000000 1 -3.000000
312 2 583.147000 -2506.270000 386.458000 1 1.000000 1 -3.000000
313 2 592.045000 -2502.600000 388.537000 1 1.000000 1 -3.000000
314 2 601.822000 -2501.130000 388.219000 1 1.000000 1 -3.000000
315 2 611.642000 -2499.990000 389.216000 1 1.000000 1 -3.000000
316 2 621.470000 -2499.410000 388.120000 1 1.000000 1 -3.000000
317 2 631.093000 -2500.820000 389.639000 1 1.000000 1 -3.000000
318 2 640.463000 -2501.160000 392.785000 1 1.000000 13 -3.000000
319 1 654.656000 -2544.600000 404.483000 1 1.000000 13 0.000000
320 3 620.842000 -2544.570000 413.488000 1 1.000000 13 0.000000
321 2 648.115000 -2587.660000 422.766000 1 1.000000 13 -3.000000
322 2 639.389000 -2585.560000 426.963000 1 1.000000 1 -3.000000
323 2 633.034000 -2584.180000 434.405000 1 1.000000 1 -3.000000
324 2 627.250000 -2581.960000 442.058000 1 1.000000 1 -3.000000
325 2 625.149000 -2579.510000 451.372000 1 1.000000 1 -3.000000
326 2 621.126000 -2577.360000 460.132000 1 1.000000 1 -3.000000
327 2 616.394000 -2575.860000 468.628000 1 1.000000 1 -3.000000
328 2 608.717000 -2572.240000 473.813000 1 1.000000 1 -3.000000
329 2 600.500000 -2567.220000 476.280000 1 1.000000 1 -3.000000
330 2 591.386000 -2564.420000 479.100000 1 1.000000 1 -3.000000
331 2 585.938000 -2556.870000 482.415000 1 1.000000 1 -3.000000
332 2 580.927000 -2548.660000 484.453000 1 1.000000 1 -3.000000
333 2 575.054000 -2540.790000 486.461000 1 1.000000 1 -3.000000
334 2 570.028000 -2533.330000 490.737000 1 1.000000 1 -3.000000
335 2 564.408000 -2526.780000 495.426000 1 1.000000 1 -3.000000
336 2 559.288000 -2520.430000 501.107000 1 1.000000 1 -3.000000
337 2 554.206000 -2513.850000 506.568000 1 1.000000 1 -3.000000
338 2 547.193000 -2510.810000 512.770000 1 1.000000 1 -3.000000
339 2 541.639000 -2509.600000 520.846000 1 1.000000 1 -3.000000
340 2 533.815000 -2511.470000 526.705000 1 1.000000 1 -3.000000
341 2 527.484000 -2510.950000 534.354000 1 1.000000 1 -3.000000
342 2 520.970000 -2509.560000 541.608000 1 1.000000 1 -3.000000
343 2 516.051000 -2506.090000 549.613000 1 1.000000 1 -3.000000
344 2 509.720000 -2504.660000 557.010000 1 1.000000 1 -3.000000
345 2 500.784000 -2503.340000 560.785000 1 1.000000 14 -3.000000
346 1 473.679000 -2509.290000 522.612000 1 1.000000 14 0.000000
347 3 503.620000 -2496.960000 509.327000 1 1.000000 14 0.000000
348 2 464.261000 -2505.770000 476.549000 1 1.000000 14 -3.000000
349 2 473.113000 -2501.240000 475.425000 1 1.000000 1 -3.000000
350 2 481.077000 -2496.810000 471.635000 1 1.000000 1 -3.000000
351 2 488.078000 -2490.660000 468.165000 1 1.000000 1 -3.000000
352 2 491.817000 -2481.620000 467.083000 1 1.000000 1 -3.000000
353 2 494.234000 -2474.340000 460.885000 1 1.000000 1 -3.000000
354 2 498.115000 -2465.600000 458.175000 1 1.000000 1 -3.000000
355 2 502.262000 -2456.640000 456.878000 1 1.000000 1 -3.000000
356 2 504.733000 -2447.000000 457.019000 1 1.000000 1 -3.000000
357 2 508.177000 -2437.800000 455.674000 1 1.000000 1 -3.000000
358 2 513.329000 -2429.410000 455.742000 1 1.000000 1 -3.000000
359 2 518.254000 -2421.000000 453.271000 1 1.000000 1 -3.000000
360 2 522.845000 -2414.590000 447.418000 1 1.000000 1 -3.000000
361 2 530.266000 -2408.870000 443.960000 1 1.000000 1 -3.000000
362 2 537.988000 -2404.540000 439.492000 1 1.000000 1 -3.000000
363 2 545.629000 -2398.380000 437.889000 1 1.000000 1 -3.000000
364 2 552.550000 -2391.390000 437.942000 1 1.000000 1 -3.000000
365 2 557.866000 -2383.440000 436.148000 1 1.000000 1 -3.000000
366 2 564.019000 -2376.750000 432.244000 1 1.000000 1 -3.000000
367 2 572.253000 -2371.390000 431.387000 1 1.000000 1 -3.000000
368 2 580.028000 -2365.490000 429.621000 1 1.000000 1 -3.000000
369 2 587.322000 -2360.360000 425.417000 1 1.000000 1 -3.000000
370 2 595.988000 -2356.320000 423.066000 1 1.000000 1 -3.000000
371 2 604.847000 -2352.090000 421.690000 1 1.000000 1 -3.000000
372 2 612.793000 -2346.180000 421.969000 1 1.000000 15 -3.000000
373 1 621.863000 -2369.600000 461.890000 1 1.000000 15 0.000000
374 3 611.852000 -2394.910000 440.004000 1 1.000000 15 0.000000
375 2 626.705000 -2408.740000 487.796000 1 1.000000 15 -3.000000
376 2 630.761000 -2413.620000 480.247000 1 1.000000 1 -3.000000
377 2 633.935000 -2416.970000 471.484000 1 1.000000 1 -3.000000
378 2 636.340000 -2421.250000 462.865000 1 1.000000 1 -3.000000
379 2 634.643000 -2426.300000 454.542000 1 1.000000 1 -3.000000
380 2 631.998000 -2430.230000 445.917000 1 1.000000 1 -3.000000
381 2 629.899000 -2433.700000 436.848000 1 1.000000 1 -3.000000
382 2 626.632000 -2437.500000 428.153000 1 1.000000 1 -3.000000
383 2 623.357000 -2440.210000 419.117000 1 1.000000 1 -3.000000
384 2 619.846000 -2441.690000 409.968000 1 1.000000 1 -3.000000
385 2 619.736000 -2442.970000 400.169000 1 1.000000 1 -3.000000
386 2 620.094000 -2441.480000 390.435000 1 1.000000 1 -3.000000
387 2 617.621000 -2442.780000 380.997000 1 1.000000 1 -3.000000
388 2 612.113000 -2444.310000 372.768000 1 1.000000 1 -3.000000
389 2 605.991000 -2441.180000 365.577000 1 1.000000 1 -3.000000
390 2 600.706000 -2439.930000 357.262000 1 1.000000 1 -3.000000
391 2 594.904000 -2438.090000 349.500000 1 1.000000 1 -3.000000
392 2 586.390000 -2437.360000 344.416000 1 1.000000 1 -3.000000
393 2 578.127000 -2437.260000 339.247000 1 1.000000 1 -3.000000
394 2 570.272000 -2437.560000 333.235000 1 1.000000 1 -3.000000
395 2 561.941000 -2438.720000 328.016000 1 1.000000 1 -3.000000
396 2 553.764000 -2439.280000 322.560000 1 1.000000 1 -3.000000
397 2 546.509000 -2444.150000 317.820000 1 1.000000 1 -3.000000
398 2 538.036000 -2448.950000 315.892000 1 1.000000 1 -3.000000
399 2 530.141000 -2455.010000 315.972000 1 1.000000 16 -3.000000
400 1 546.910000 -2476.590000 277.563000 1 1.000000 16 0.000000
401 3 575.824000 -2465.670000 293.896000 1 1.000000 16 0.000000
402 2 581.399000 -2489.530000 248.080000 1 1.000000 16 -3.000000
403 2 588.730000 -2483.080000 248.991000 1 1.000000 1 -3.000000
404 2 595.456000 -2477.930000 254.194000 1 1.000000 1 -3.000000
405 2 604.247000 -2476.450000 258.528000 1 1.000000 1 -3.000000
406 2 610.587000 -2473.800000 265.708000 1 1.000000 1 -3.000000
407 2 616.803000 -2469.670000 272.261000 1 1.000000 1 -3.000000
408 2 622.581000 -2463.050000 276.892000 1 1.000000 1 -3.000000
409 2 629.098000 -2458.040000 282.250000 1 1.000000 1 -3.000000
410 2 635.155000 -2454.310000 289.089000 1 1.000000 1 -3.000000
411 2 639.700000 -2447.810000 294.927000 1 1.000000 1 -3.000000
412 2 645.961000 -2440.900000 298.279000 1 1.000000 1 -3.000000
413 2 652.873000 -2433.810000 299.550000 1 1.000000 1 -3.000000
414 2 656.624000 -2425.010000 301.900000 1 1.000000 1 -3.000000
415 2 658.574000 -2415.420000 303.749000 1 1.000000 1 -3.000000
416 2 659.564000 -2405.550000 304.014000 1 1.000000 1 -3.000000
417 2 661.489000 -2396.090000 301.909000 1 1.000000 1 -3.000000
418 2 661.346000 -2386.620000 299.450000 1 1.000000 1 -3.000000
419 2 660.672000 -2377.460000 295.874000 1 1.000000 1 -3.000000
420 2 658.117000 -2368.750000 291.742000 1 1.000000 1 -3.000000
421 2 656.848000 -2359.240000 290.026000 1 1.000000 1 -3.000000
422 2 653.353000 -2350.170000 291.375000 1 1.000000 1 -3.000000
423 2 650.116000 -2340.880000 291.432000 1 1.000000 1 -3.000000
424 2 646.953000 -2332.160000 295.031000 1 1.000000 1 -3.000000
425 2 644.067000 -2322.990000 297.559000 1 1.000000 1 -3.000000
426 2 643.446000 -2313.680000 300.693000 1 1.000000 17 -3.000000
427 1 676.322000 -2308.800000 334.193000 1 1.000000 17 0.000000
428 3 690.551000 -2332.030000 312.309000 1 1.000000 17 0.000000
429 2 719.268000 -2315.490000 352.339000 1 1.000000 17 -3.000000
430 2 725.028000 -2315.570000 344.329000 1 1.000000 1 -3.000000
431 2 729.766000 -2313.630000 335.847000 1 1.000000 1 -3.000000
432 2 731.238000 -2309.910000 326.861000 1 1.000000 1 -3.000000
433 2 734.803000 -2306.080000 318.424000 1 1.000000 1 -3.000000
434 2 739.757000 -2304.870000 309.835000 1 1.000000 1 -3.000000
435 2 747.006000 -2303.810000 303.151000 1 1.000000 1 -3.000000
436 2 754.860000 -2303.630000 297.251000 1 1.000000 1 -3.000000
437 2 763.430000 -2301.210000 292.957000 1 1.000000 1 -3.000000
438 2 772.177000 -2296.610000 293.266000 1 1.000000 1 -3.000000
439 2 778.890000 -2289.950000 290.474000 1 1.000000 1 -3.000000
440 2 785.432000 -2284.440000 285.435000 1 1.000000 1 -3.000000
441 2 790.750000 -2278.230000 279.796000 1 1.000000 1 -3.000000
442 2 795.291000 -2269.840000 277.547000 1 1.000000 1 -3.000000
443 2 800.951000 -2261.800000 275.604000 1 1.000000 1 -3.000000
444 2 807.380000 -2254.320000 276.985000 1 1.000000 1 -3.000000
445 2 813.394000 -2246.410000 276.765000 1 1.000000 1 -3.000000
446 2 820.160000 -2239.770000 274.161000 1 1.000000 1 -3.000000
447 2 828.102000 -2234.110000 272.022000 1 1.000000 1 -3.000000
448 2 836.663000 -2229.810000 269.622000 1 1.000000 1 -3.000000
449 2 845.961000 -2227.180000 267.806000 1 1.000000 1 -3.000000
450 2 855.556000 -2229.330000 269.359000 1 1.000000 1 -3.000000
451 2 865.341000 -2231.230000 269.416000 1 1.000000 1 -3.000000
452 2 874.392000 -2235.280000 270.500000 1 1.000000 1 -3.000000
453 2 884.226000 -2233.890000 270.863000 1 1.000000 18 -3.000000
454 1 882.669000 -2246.680000 316.311000 1 1.000000 18 0.000000
455 3 851.057000 -2255.770000 304.455000 1 1.000000 18 0.000000
456 2 860.913000 -2262.660000 354.937000 1 1.000000 18 -3.000000
457 2 853.389000 -2266.500000 349.738000 1 1.000000 1 -3.000000
458 2 846.743000 -2272.090000 344.750000 1 1.000000 1 -3.000000
459 2 840.519000 -2278.080000 339.721000 1 1.000000 1 -3.000000
460 2 833.060000 -2284.570000 338.858000 1 1.000000 1 -3.000000
461 2 827.219000 -2291.040000 334.234000 1 1.000000 1 -3.000000
462 2 823.272000 -2299.620000 331.204000 1 1.000000 1 -3.000000
463 2 819.783000 -2308.770000 330.192000 1 1.000000 1 -3.000000
464 2 817.097000 -2318.420000 330.828000 1 1.000000 1 -3.000000
465 2 814.198000 -2327.720000 330.795000 1 1.000000 1 -3.000000