LAMMPS data file

4067 atoms
4067 ellipsoids
4516 bonds
8882 angles
0 dihedrals

3 atom types
5 bond types
12 angle types
0 dihedral types

-4631.092947 4670.465898 xlo xhi
-4631.092947 4670.465898 ylo yhi
-4631.092947 4670.465898 zlo zhi

Masses

1 196016.000000
2 1950.000000
3 19500.000000

Atoms

1 2 732.137000 -3273.550000 332.098000 1 1.000000 1 -3.000000
2 2 735.796000 -3276.740000 340.710000 1 1.000000 1 -3.000000
3 2 738.794000 -3279.240000 349.779000 1 1.000000 1 -3.000000
4 2 740.394000 -3279.840000 359.475000 1 1.000000 1 -3.000000
5 2 745.306000 -3274.810000 366.494000 1 1.000000 1 -3.000000
6 2 751.281000 -3269.100000 371.950000 1 1.000000 1 -3.000000
7 2 752.438000 -3263.540000 380.203000 1 1.000000 1 -3.000000
8 2 755.676000 -3258.540000 388.094000 1 1.000000 1 -3.000000
9 2 758.355000 -3255.490000 397.091000 1 1.000000 1 -3.000000
10 2 760.567000 -3253.610000 406.584000 1 1.000000 1 -3.000000
11 2 761.009000 -3251.940000 416.410000 1 1.000000 1 -3.000000
12 2 758.426000 -3248.070000 425.155000 1 1.000000 1 -3.000000
13 2 751.513000 -3242.910000 430.040000 1 1.000000 1 -3.000000
14 2 747.036000 -3234.840000 433.401000 1 1.000000 1 -3.000000
15 2 743.881000 -3226.830000 438.119000 1 1.000000 1 -3.000000
16 2 741.259000 -3218.840000 443.437000 1 1.000000 1 -3.000000
17 2 738.988000 -3211.480000 449.603000 1 1.000000 1 -3.000000
18 2 738.225000 -3203.240000 454.909000 1 1.000000 1 -3.000000
19 2 740.658000 -3196.940000 462.073000 1 1.000000 1 -3.000000
20 2 741.422000 -3192.680000 470.968000 1 1.000000 1 -3.000000
21 2 747.125000 -3189.980000 478.601000 1 1.000000 2 -3.000000
22 1 719.378000 -3163.540000 506.166000 1 1.000000 2 0.000000
23 3 711.170000 -3152.870000 473.921000 1 1.000000 2 0.000000
24 2 687.407000 -3129.680000 513.752000 1 1.000000 2 -3.000000
25 2 689.505000 -3125.410000 504.986000 1 1.000000 1 -3.000000
26 2 688.270000 -3121.470000 496.007000 1 1.000000 1 -3.000000
27 2 684.509000 -3117.400000 487.701000 1 1.000000 1 -3.000000
28 2 679.169000 -3115.120000 479.551000 1 1.000000 1 -3.000000
29 2 671.117000 -3112.710000 474.325000 1 1.000000 1 -3.000000
30 2 662.861000 -3109.160000 470.137000 1 1.000000 1 -3.000000
31 2 653.785000 -3105.830000 471.893000 1 1.000000 1 -3.000000
32 2 644.878000 -3101.990000 473.992000 1 1.000000 1 -3.000000
33 2 635.313000 -3099.860000 475.420000 1 1.000000 1 -3.000000
34 2 625.996000 -3097.830000 473.038000 1 1.000000 1 -3.000000
35 2 617.675000 -3093.430000 469.829000 1 1.000000 1 -3.000000
36 2 612.155000 -3085.410000 468.563000 1 1.000000 1 -3.000000
37 2 605.197000 -3080.360000 463.550000 1 1.000000 1 -3.000000
38 2 597.839000 -3076.630000 458.072000 1 1.000000 1 -3.000000
39 2 589.490000 -3073.150000 454.110000 1 1.000000 1 -3.000000
40 2 581.272000 -3070.760000 449.202000 1 1.000000 1 -3.000000
41 2 573.471000 -3069.310000 443.506000 1 1.000000 1 -3.000000
42 2 565.341000 -3066.020000 438.740000 1 1.000000 1 -3.000000
43 2 556.200000 -3064.900000 435.359000 1 1.000000 1 -3.000000
44 2 548.199000 -3065.370000 429.389000 1 1.000000 1 -3.000000
45 2 539.251000 -3064.280000 425.187000 1 1.000000 1 -3.000000
46 2 529.889000 -3061.010000 423.830000 1 1.000000 1 -3.000000
47 2 520.377000 -3058.330000 423.648000 1 1.000000 1 -3.000000
48 2 510.713000 -3057.410000 422.033000 1 1.000000 3 -3.000000
49 1 512.212000 -3016.500000 445.512000 1 1.000000 3 0.000000
50 3 545.136000 -3020.670000 434.392000 1 1.000000 3 0.000000
51 2 533.794000 -2977.810000 461.611000 1 1.000000 3 -3.000000
52 2 540.938000 -2979.580000 455.105000 1 1.000000 1 -3.000000
53 2 548.185000 -2980.400000 448.283000 1 1.000000 1 -3.000000
54 2 553.609000 -2981.970000 440.203000 1 1.000000 1 -3.000000
55 2 559.856000 -2980.490000 432.506000 1 1.000000 1 -3.000000
56 2 565.337000 -2979.890000 424.102000 1 1.000000 1 -3.000000
57 2 567.005000 -2975.490000 415.465000 1 1.000000 1 -3.000000
58 2 569.221000 -2971.840000 406.651000 1 1.000000 1 -3.000000
59 2 571.019000 -2967.350000 397.883000 1 1.000000 1 -3.000000
60 2 575.245000 -2962.370000 390.519000 1 1.000000 1 -3.000000
61 2 578.453000 -2955.520000 384.107000 1 1.000000 1 -3.000000
62 2 582.987000 -2949.770000 377.397000 1 1.000000 1 -3.000000
63 2 584.815000 -2942.580000 370.687000 1 1.000000 1 -3.000000
64 2 589.219000 -2935.700000 365.050000 1 1.000000 1 -3.000000
65 2 598.084000 -2933.380000 361.282000 1 1.000000 1 -3.000000
66 2 606.361000 -2932.330000 355.772000 1 1.000000 1 -3.000000
67 2 613.951000 -2929.180000 350.415000 1 1.000000 1 -3.000000
68 2 621.607000 -2924.550000 346.226000 1 1.000000 1 -3.000000
69 2 628.949000 -2917.920000 345.062000 1 1.000000 1 -3.000000
70 2 635.874000 -2910.970000 343.790000 1 1.000000 1 -3.000000
71 2 641.579000 -2903.340000 341.753000 1 1.000000 1 -3.000000
72 2 646.128000 -2894.640000 341.404000 1 1.000000 1 -3.000000
73 2 650.588000 -2885.780000 341.472000 1 1.000000 1 -3.000000
74 2 654.645000 -2878.770000 347.083000 1 1.000000 1 -3.000000
75 2 660.446000 -2874.690000 354.149000 1 1.000000 4 -3.000000
76 1 706.206000 -2880.380000 344.094000 1 1.000000 4 0.000000
77 3 692.172000 -2871.770000 313.225000 1 1.000000 4 0.000000
78 2 743.314000 -2880.300000 314.928000 1 1.000000 4 -3.000000
79 2 739.415000 -2887.240000 309.190000 1 1.000000 1 -3.000000
80 2 736.030000 -2895.230000 304.531000 1 1.000000 1 -3.000000
81 2 731.097000 -2902.750000 300.353000 1 1.000000 1 -3.000000
82 2 728.989000 -2911.300000 295.725000 1 1.000000 1 -3.000000
83 2 725.013000 -2919.130000 291.054000 1 1.000000 1 -3.000000
84 2 719.360000 -2925.070000 285.344000 1 1.000000 1 -3.000000
85 2 712.385000 -2930.320000 280.437000 1 1.000000 1 -3.000000
86 2 703.111000 -2931.220000 277.299000 1 1.000000 1 -3.000000
87 2 694.712000 -2933.580000 272.508000 1 1.000000 1 -3.000000
88 2 685.025000 -2933.330000 270.612000 1 1.000000 1 -3.000000
89 2 675.725000 -2933.340000 267.065000 1 1.000000 1 -3.000000
90 2 668.027000 -2930.670000 261.552000 1 1.000000 1 -3.000000
91 2 661.960000 -2924.760000 256.462000 1 1.000000 1 -3.000000
92 2 656.520000 -2918.680000 250.905000 1 1.000000 1 -3.000000
93 2 652.205000 -2910.900000 246.243000 1 1.000000 1 -3.000000
94 2 649.820000 -2903.010000 240.625000 1 1.000000 1 -3.000000
95 2 646.212000 -2895.380000 235.280000 1 1.000000 1 -3.000000
96 2 642.578000 -2889.710000 228.105000 1 1.000000 1 -3.000000
97 2 640.799000 -2882.670000 221.205000 1 1.000000 1 -3.000000
98 2 637.669000 -2878.950000 212.536000 1 1.000000 1 -3.000000
99 2 634.479000 -2876.360000 203.524000 1 1.000000 1 -3.000000
100 2 633.370000 -2871.120000 195.210000 1 1.000000 1 -3.000000
101 2 632.029000 -2864.860000 187.607000 1 1.000000 1 -3.000000
102 2 630.278000 -2860.090000 179.111000 1 1.000000 5 -3.000000
103 1 587.955000 -2841.930000 189.503000 1 1.000000 5 0.000000
104 3 599.248000 -2854.000000 220.353000 1 1.000000 5 0.000000
105 2 552.251000 -2832.160000 218.760000 1 1.000000 5 -3.000000
106 2 555.250000 -2839.330000 224.974000 1 1.000000 1 -3.000000
107 2 558.144000 -2842.010000 234.060000 1 1.000000 1 -3.000000
108 2 555.611000 -2843.680000 243.493000 1 1.000000 1 -3.000000
109 2 554.162000 -2842.630000 253.238000 1 1.000000 1 -3.000000
110 2 552.265000 -2842.700000 263.056000 1 1.000000 1 -3.000000
111 2 547.150000 -2847.710000 269.973000 1 1.000000 1 -3.000000
112 2 542.535000 -2849.110000 278.787000 1 1.000000 1 -3.000000
113 2 535.515000 -2848.310000 285.691000 1 1.000000 1 -3.000000
114 2 531.514000 -2846.740000 294.546000 1 1.000000 1 -3.000000
115 2 529.941000 -2847.080000 304.316000 1 1.000000 1 -3.000000
116 2 530.322000 -2846.350000 314.248000 1 1.000000 1 -3.000000
117 2 531.174000 -2843.740000 323.696000 1 1.000000 1 -3.000000
118 2 531.846000 -2840.960000 333.109000 1 1.000000 1 -3.000000
119 2 532.524000 -2839.340000 342.771000 1 1.000000 1 -3.000000
120 2 534.745000 -2837.750000 352.267000 1 1.000000 1 -3.000000
121 2 539.688000 -2836.600000 360.695000 1 1.000000 1 -3.000000
122 2 541.768000 -2834.280000 370.048000 1 1.000000 1 -3.000000
123 2 545.194000 -2835.950000 379.221000 1 1.000000 1 -3.000000
124 2 546.912000 -2838.740000 388.567000 1 1.000000 1 -3.000000
125 2 551.007000 -2841.880000 396.982000 1 1.000000 1 -3.000000
126 2 553.107000 -2848.170000 404.533000 1 1.000000 1 -3.000000
127 2 558.878000 -2854.890000 408.928000 1 1.000000 1 -3.000000
128 2 563.265000 -2862.430000 413.319000 1 1.000000 1 -3.000000
129 2 561.639000 -2871.140000 417.741000 1 1.000000 6 -3.000000
130 1 604.807000 -2872.920000 398.886000 1 1.000000 6 0.000000
131 3 591.616000 -2843.330000 385.711000 1 1.000000 6 0.000000
132 2 639.673000 -2856.730000 371.581000 1 1.000000 6 -3.000000
133 2 639.320000 -2847.040000 372.646000 1 1.000000 1 -3.000000
134 2 639.306000 -2837.410000 375.087000 1 1.000000 1 -3.000000
135 2 635.971000 -2828.120000 375.763000 1 1.000000 1 -3.000000
136 2 631.538000 -2819.520000 373.716000 1 1.000000 1 -3.000000
137 2 626.220000 -2811.420000 372.094000 1 1.000000 1 -3.000000
138 2 623.233000 -2802.060000 372.902000 1 1.000000 1 -3.000000
139 2 620.430000 -2792.600000 373.638000 1 1.000000 1 -3.000000
140 2 615.181000 -2784.270000 373.119000 1 1.000000 1 -3.000000
141 2 608.401000 -2777.090000 371.674000 1 1.000000 1 -3.000000
142 2 606.305000 -2768.260000 367.800000 1 1.000000 1 -3.000000
143 2 602.723000 -2759.550000 364.866000 1 1.000000 1 -3.000000
144 2 595.637000 -2752.530000 365.244000 1 1.000000 1 -3.000000
145 2 589.283000 -2745.360000 367.579000 1 1.000000 1 -3.000000
146 2 582.447000 -2740.210000 372.769000 1 1.000000 1 -3.000000
147 2 578.365000 -2732.160000 376.923000 1 1.000000 1 -3.000000
148 2 575.750000 -2723.390000 380.624000 1 1.000000 1 -3.000000
149 2 574.728000 -2715.090000 385.624000 1 1.000000 1 -3.000000
150 2 572.954000 -2705.390000 387.101000 1 1.000000 1 -3.000000
151 2 574.613000 -2695.740000 388.967000 1 1.000000 1 -3.000000
152 2 575.731000 -2687.310000 394.110000 1 1.000000 1 -3.000000
153 2 577.194000 -2679.450000 400.017000 1 1.000000 1 -3.000000
154 2 578.020000 -2670.010000 403.054000 1 1.000000 1 -3.000000
155 2 578.855000 -2662.820000 409.815000 1 1.000000 1 -3.000000
156 2 580.534000 -2656.640000 417.392000 1 1.000000 7 -3.000000
157 1 544.733000 -2667.650000 446.024000 1 1.000000 7 0.000000
158 3 546.737000 -2695.310000 424.603000 1 1.000000 7 0.000000
159 2 509.597000 -2695.470000 460.949000 1 1.000000 7 -3.000000
160 2 514.198000 -2703.300000 457.245000 1 1.000000 1 -3.000000
161 2 516.230000 -2711.700000 452.278000 1 1.000000 1 -3.000000
162 2 519.204000 -2720.270000 448.253000 1 1.000000 1 -3.000000
163 2 520.717000 -2726.690000 440.861000 1 1.000000 1 -3.000000
164 2 525.197000 -2731.320000 433.312000 1 1.000000 1 -3.000000
165 2 529.852000 -2733.820000 424.984000 1 1.000000 1 -3.000000
166 2 536.528000 -2739.470000 420.482000 1 1.000000 1 -3.000000
167 2 544.556000 -2742.520000 415.750000 1 1.000000 1 -3.000000
168 2 551.221000 -2748.220000 410.934000 1 1.000000 1 -3.000000
169 2 557.885000 -2751.610000 404.538000 1 1.000000 1 -3.000000
170 2 564.771000 -2757.410000 400.389000 1 1.000000 1 -3.000000
171 2 571.207000 -2764.880000 399.281000 1 1.000000 1 -3.000000
172 2 578.580000 -2770.710000 402.314000 1 1.000000 1 -3.000000
173 2 583.611000 -2773.880000 410.389000 1 1.000000 1 -3.000000
174 2 585.195000 -2780.780000 417.253000 1 1.000000 1 -3.000000
175 2 590.931000 -2785.810000 423.445000 1 1.000000 1 -3.000000
176 2 595.137000 -2788.520000 432.056000 1 1.000000 1 -3.000000
177 2 601.162000 -2792.730000 438.723000 1 1.000000 1 -3.000000
178 2 609.388000 -2797.970000 440.402000 1 1.000000 1 -3.000000
179 2 617.266000 -2801.410000 445.137000 1 1.000000 1 -3.000000
180 2 625.456000 -2804.190000 449.942000 1 1.000000 1 -3.000000
181 2 633.761000 -2808.090000 453.803000 1 1.000000 1 -3.000000
182 2 641.957000 -2813.690000 454.477000 1 1.000000 1 -3.000000
183 2 649.205000 -2820.470000 454.263000 1 1.000000 8 -3.000000
184 1 628.002000 -2860.420000 467.879000 1 1.000000 8 0.000000
185 3 601.979000 -2842.210000 452.827000 1 1.000000 8 0.000000
186 2 590.211000 -2887.920000 474.349000 1 1.000000 8 -3.000000
187 2 585.979000 -2879.660000 471.143000 1 1.000000 1 -3.000000
188 2 578.608000 -2872.990000 471.189000 1 1.000000 1 -3.000000
189 2 572.224000 -2865.580000 473.463000 1 1.000000 1 -3.000000
190 2 565.305000 -2858.350000 474.056000 1 1.000000 1 -3.000000
191 2 557.252000 -2853.250000 476.222000 1 1.000000 1 -3.000000
192 2 552.109000 -2845.230000 479.000000 1 1.000000 1 -3.000000
193 2 552.845000 -2835.670000 481.296000 1 1.000000 1 -3.000000
194 2 551.186000 -2825.990000 481.136000 1 1.000000 1 -3.000000
195 2 548.272000 -2816.600000 482.128000 1 1.000000 1 -3.000000
196 2 547.310000 -2806.820000 482.256000 1 1.000000 1 -3.000000
197 2 548.642000 -2797.750000 485.811000 1 1.000000 1 -3.000000
198 2 551.644000 -2789.900000 490.880000 1 1.000000 1 -3.000000
199 2 555.333000 -2782.570000 496.614000 1 1.000000 1 -3.000000
200 2 558.911000 -2775.100000 502.125000 1 1.000000 1 -3.000000
201 2 559.578000 -2766.820000 507.684000 1 1.000000 1 -3.000000
202 2 561.912000 -2758.670000 512.786000 1 1.000000 1 -3.000000
203 2 562.414000 -2751.370000 519.392000 1 1.000000 1 -3.000000
204 2 559.263000 -2743.680000 525.109000 1 1.000000 1 -3.000000
205 2 558.495000 -2736.810000 532.329000 1 1.000000 1 -3.000000
206 2 558.331000 -2732.060000 540.985000 1 1.000000 1 -3.000000
207 2 564.353000 -2730.400000 548.641000 1 1.000000 1 -3.000000
208 2 567.385000 -2725.710000 556.888000 1 1.000000 1 -3.000000
209 2 570.060000 -2722.890000 566.059000 1 1.000000 1 -3.000000
210 2 569.931000 -2724.690000 575.789000 1 1.000000 9 -3.000000
211 1 524.204000 -2723.180000 563.990000 1 1.000000 9 0.000000
212 3 540.517000 -2719.410000 533.341000 1 1.000000 9 0.000000
213 2 488.732000 -2722.460000 532.862000 1 1.000000 9 -3.000000
214 2 493.874000 -2725.500000 524.873000 1 1.000000 1 -3.000000
215 2 498.968000 -2728.460000 516.903000 1 1.000000 1 -3.000000
216 2 504.712000 -2729.310000 508.917000 1 1.000000 1 -3.000000
217 2 511.608000 -2728.080000 501.953000 1 1.000000 1 -3.000000
218 2 518.673000 -2726.120000 495.384000 1 1.000000 1 -3.000000
219 2 527.571000 -2724.180000 491.422000 1 1.000000 1 -3.000000
220 2 536.974000 -2722.690000 488.542000 1 1.000000 1 -3.000000
221 2 545.494000 -2718.220000 485.943000 1 1.000000 1 -3.000000
222 2 554.283000 -2713.800000 486.942000 1 1.000000 1 -3.000000
223 2 562.040000 -2709.210000 491.135000 1 1.000000 1 -3.000000
224 2 570.013000 -2704.300000 494.250000 1 1.000000 1 -3.000000
225 2 577.627000 -2698.170000 494.685000 1 1.000000 1 -3.000000
226 2 586.382000 -2694.660000 497.207000 1 1.000000 1 -3.000000
227 2 593.507000 -2688.770000 500.933000 1 1.000000 1 -3.000000
228 2 602.097000 -2685.750000 504.806000 1 1.000000 1 -3.000000
229 2 611.705000 -2683.710000 503.832000 1 1.000000 1 -3.000000
230 2 621.370000 -2682.500000 505.412000 1 1.000000 1 -3.000000
231 2 631.049000 -2683.430000 507.812000 1 1.000000 1 -3.000000
232 2 640.044000 -2687.350000 509.578000 1 1.000000 1 -3.000000
233 2 648.853000 -2691.930000 509.481000 1 1.000000 1 -3.000000
234 2 656.398000 -2696.510000 505.137000 1 1.000000 1 -3.000000
235 2 662.535000 -2701.550000 499.245000 1 1.000000 1 -3.000000
236 2 668.466000 -2704.580000 491.798000 1 1.000000 1 -3.000000
237 2 671.953000 -2707.490000 483.043000 1 1.000000 10 -3.000000
238 1 665.020000 -2679.980000 445.286000 1 1.000000 10 0.000000
239 3 642.290000 -2667.410000 468.521000 1 1.000000 10 0.000000
240 2 641.127000 -2647.670000 420.685000 1 1.000000 10 -3.000000
241 2 634.288000 -2648.180000 427.976000 1 1.000000 1 -3.000000
242 2 628.228000 -2646.640000 435.600000 1 1.000000 1 -3.000000
243 2 626.232000 -2643.850000 444.800000 1 1.000000 1 -3.000000
244 2 626.838000 -2640.950000 454.236000 1 1.000000 1 -3.000000
245 2 628.876000 -2638.830000 463.612000 1 1.000000 1 -3.000000
246 2 628.163000 -2641.150000 473.082000 1 1.000000 1 -3.000000
247 2 624.543000 -2644.610000 481.598000 1 1.000000 1 -3.000000
248 2 619.188000 -2641.900000 489.551000 1 1.000000 1 -3.000000
249 2 618.805000 -2638.100000 498.468000 1 1.000000 1 -3.000000
250 2 618.999000 -2635.040000 507.897000 1 1.000000 1 -3.000000
251 2 622.602000 -2632.910000 516.878000 1 1.000000 1 -3.000000
252 2 624.820000 -2630.440000 526.196000 1 1.000000 1 -3.000000
253 2 625.289000 -2629.440000 536.074000 1 1.000000 1 -3.000000
254 2 624.765000 -2623.900000 544.370000 1 1.000000 1 -3.000000
255 2 623.112000 -2620.580000 553.511000 1 1.000000 1 -3.000000
256 2 617.347000 -2618.990000 561.290000 1 1.000000 1 -3.000000
257 2 612.439000 -2616.850000 569.618000 1 1.000000 1 -3.000000
258 2 607.925000 -2617.160000 578.444000 1 1.000000 1 -3.000000
259 2 601.640000 -2620.450000 585.235000 1 1.000000 1 -3.000000
260 2 593.765000 -2620.650000 591.139000 1 1.000000 1 -3.000000
261 2 585.559000 -2618.800000 596.428000 1 1.000000 1 -3.000000
262 2 580.358000 -2616.080000 604.502000 1 1.000000 1 -3.000000
263 2 575.298000 -2611.280000 611.560000 1 1.000000 1 -3.000000
264 2 570.046000 -2607.150000 618.759000 1 1.000000 11 -3.000000
265 1 595.627000 -2569.820000 632.069000 1 1.000000 11 0.000000
266 3 619.815000 -2592.450000 620.517000 1 1.000000 11 0.000000
267 2 636.079000 -2546.310000 638.248000 1 1.000000 11 -3.000000
268 2 643.249000 -2552.990000 636.570000 1 1.000000 1 -3.000000
269 2 651.600000 -2557.330000 633.622000 1 1.000000 1 -3.000000
270 2 659.349000 -2561.900000 629.509000 1 1.000000 1 -3.000000
271 2 668.676000 -2564.510000 627.240000 1 1.000000 1 -3.000000
272 2 676.466000 -2570.100000 624.820000 1 1.000000 1 -3.000000
273 2 683.625000 -2576.550000 622.335000 1 1.000000 1 -3.000000
274 2 691.317000 -2581.010000 618.073000 1 1.000000 1 -3.000000
275 2 699.939000 -2585.710000 616.699000 1 1.000000 1 -3.000000
276 2 707.849000 -2590.420000 613.198000 1 1.000000 1 -3.000000
277 2 715.719000 -2596.510000 612.670000 1 1.000000 1 -3.000000
278 2 723.726000 -2601.810000 610.148000 1 1.000000 1 -3.000000
279 2 732.507000 -2606.290000 610.768000 1 1.000000 1 -3.000000
280 2 740.849000 -2611.220000 612.710000 1 1.000000 1 -3.000000
281 2 748.301000 -2617.270000 615.143000 1 1.000000 1 -3.000000
282 2 754.983000 -2624.010000 617.794000 1 1.000000 1 -3.000000
283 2 762.642000 -2629.730000 620.580000 1 1.000000 1 -3.000000
284 2 770.239000 -2636.160000 620.918000 1 1.000000 1 -3.000000
285 2 776.188000 -2643.820000 622.049000 1 1.000000 1 -3.000000
286 2 781.440000 -2651.360000 625.567000 1 1.000000 1 -3.000000
287 2 786.935000 -2658.450000 629.546000 1 1.000000 1 -3.000000
288 2 795.064000 -2662.570000 633.176000 1 1.000000 1 -3.000000
289 2 802.586000 -2668.700000 635.147000 1 1.000000 1 -3.000000
290 2 806.698000 -2677.600000 634.437000 1 1.000000 1 -3.000000
291 2 811.662000 -2685.930000 636.782000 1 1.000000 12 -3.000000
292 1 846.667000 -2663.950000 659.608000 1 1.000000 12 0.000000
293 3 820.630000 -2640.470000 660.121000 1 1.000000 12 0.000000
294 2 864.585000 -2628.190000 684.681000 1 1.000000 12 -3.000000
295 2 860.846000 -2621.560000 678.469000 1 1.000000 1 -3.000000
296 2 855.712000 -2615.200000 672.792000 1 1.000000 1 -3.000000
297 2 854.674000 -2612.000000 663.407000 1 1.000000 1 -3.000000
298 2 851.222000 -2609.380000 654.458000 1 1.000000 1 -3.000000
299 2 846.585000 -2604.610000 647.001000 1 1.000000 1 -3.000000
300 2 840.701000 -2600.650000 640.105000 1 1.000000 1 -3.000000
301 2 834.790000 -2594.570000 634.923000 1 1.000000 1 -3.000000
302 2 828.055000 -2589.070000 630.121000 1 1.000000 1 -3.000000
303 2 819.075000 -2585.320000 628.002000 1 1.000000 1 -3.000000
304 2 810.340000 -2580.790000 628.150000 1 1.000000 1 -3.000000
305 2 800.924000 -2578.200000 626.472000 1 1.000000 1 -3.000000
306 2 792.756000 -2572.620000 626.334000 1 1.000000 1 -3.000000
307 2 785.469000 -2566.110000 624.397000 1 1.000000 1 -3.000000
308 2 779.582000 -2558.450000 622.572000 1 1.000000 1 -3.000000
309 2 773.913000 -2550.280000 621.233000 1 1.000000 1 -3.000000
310 2 769.855000 -2541.270000 620.873000 1 1.000000 1 -3.000000
311 2 767.371000 -2532.500000 624.784000 1 1.000000 1 -3.000000
312 2 766.906000 -2523.390000 628.338000 1 1.000000 1 -3.000000
313 2 767.105000 -2513.640000 628.909000 1 1.000000 1 -3.000000
314 2 765.785000 -2503.950000 627.962000 1 1.000000 1 -3.000000
315 2 763.900000 -2495.320000 623.460000 1 1.000000 1 -3.000000
316 2 761.840000 -2487.030000 618.359000 1 1.000000 1 -3.000000
317 2 759.935000 -2478.890000 613.136000 1 1.000000 1 -3.000000
318 2 759.100000 -2469.960000 608.916000 1 1.000000 13 -3.000000
319 1 805.927000 -2464.240000 606.463000 1 1.000000 13 0.000000
320 3 802.333000 -2498.580000 612.014000 1 1.000000 13 0.000000
321 2 850.513000 -2479.090000 610.617000 1 1.000000 13 -3.000000
322 2 847.643000 -2488.110000 608.160000 1 1.000000 1 -3.000000
323 2 846.215000 -2497.470000 605.048000 1 1.000000 1 -3.000000
324 2 845.008000 -2506.220000 600.656000 1 1.000000 1 -3.000000
325 2 844.424000 -2514.030000 594.515000 1 1.000000 1 -3.000000
326 2 845.684000 -2522.300000 589.078000 1 1.000000 1 -3.000000
327 2 845.783000 -2531.820000 586.295000 1 1.000000 1 -3.000000
328 2 845.629000 -2541.270000 583.163000 1 1.000000 1 -3.000000
329 2 845.108000 -2550.820000 580.579000 1 1.000000 1 -3.000000
330 2 842.324000 -2560.300000 581.385000 1 1.000000 1 -3.000000
331 2 840.832000 -2569.770000 579.179000 1 1.000000 1 -3.000000
332 2 838.899000 -2577.820000 573.656000 1 1.000000 1 -3.000000
333 2 840.117000 -2583.780000 565.915000 1 1.000000 1 -3.000000
334 2 836.221000 -2588.100000 557.781000 1 1.000000 1 -3.000000
335 2 831.368000 -2594.260000 551.940000 1 1.000000 1 -3.000000
336 2 828.211000 -2599.740000 544.393000 1 1.000000 1 -3.000000
337 2 829.206000 -2604.670000 535.935000 1 1.000000 1 -3.000000
338 2 828.815000 -2612.670000 530.228000 1 1.000000 1 -3.000000
339 2 827.356000 -2621.220000 525.548000 1 1.000000 1 -3.000000
340 2 825.341000 -2628.990000 519.651000 1 1.000000 1 -3.000000
341 2 821.012000 -2635.730000 513.758000 1 1.000000 1 -3.000000
342 2 819.771000 -2643.540000 507.802000 1 1.000000 1 -3.000000
343 2 821.171000 -2652.120000 503.130000 1 1.000000 1 -3.000000
344 2 825.514000 -2658.990000 497.483000 1 1.000000 1 -3.000000
345 2 830.745000 -2665.550000 492.292000 1 1.000000 14 -3.000000
346 1 794.806000 -2696.110000 495.249000 1 1.000000 14 0.000000
347 3 780.577000 -2665.930000 505.910000 1 1.000000 14 0.000000
348 2 749.557000 -2707.420000 502.285000 1 1.000000 14 -3.000000
349 2 745.724000 -2698.720000 505.335000 1 1.000000 1 -3.000000
350 2 742.294000 -2690.550000 509.601000 1 1.000000 1 -3.000000
351 2 738.395000 -2681.660000 511.854000 1 1.000000 1 -3.000000
352 2 735.220000 -2673.770000 516.941000 1 1.000000 1 -3.000000
353 2 732.819000 -2664.690000 520.112000 1 1.000000 1 -3.000000
354 2 730.173000 -2655.070000 520.759000 1 1.000000 1 -3.000000
355 2 730.821000 -2645.330000 522.044000 1 1.000000 1 -3.000000
356 2 728.033000 -2636.060000 520.428000 1 1.000000 1 -3.000000
357 2 723.995000 -2627.210000 518.966000 1 1.000000 1 -3.000000
358 2 723.248000 -2617.510000 520.996000 1 1.000000 1 -3.000000
359 2 721.965000 -2609.000000 525.796000 1 1.000000 1 -3.000000
360 2 718.791000 -2600.250000 528.958000 1 1.000000 1 -3.000000
361 2 719.097000 -2590.380000 528.831000 1 1.000000 1 -3.000000
362 2 719.396000 -2580.900000 525.857000 1 1.000000 1 -3.000000
363 2 720.657000 -2571.410000 523.024000 1 1.000000 1 -3.000000
364 2 717.363000 -2562.030000 523.069000 1 1.000000 1 -3.000000
365 2 711.740000 -2554.620000 526.418000 1 1.000000 1 -3.000000
366 2 706.972000 -2546.060000 526.265000 1 1.000000 1 -3.000000
367 2 699.598000 -2539.620000 524.048000 1 1.000000 1 -3.000000
368 2 691.717000 -2533.920000 521.950000 1 1.000000 1 -3.000000
369 2 684.953000 -2527.190000 519.491000 1 1.000000 1 -3.000000
370 2 678.580000 -2519.530000 519.122000 1 1.000000 1 -3.000000
371 2 671.501000 -2512.660000 520.702000 1 1.000000 1 -3.000000
372 2 663.122000 -2510.790000 525.641000 1 1.000000 15 -3.000000
373 1 644.450000 -2496.010000 484.827000 1 1.000000 15 0.000000
374 3 678.064000 -2501.720000 476.589000 1 1.000000 15 0.000000
375 2 646.372000 -2485.380000 438.909000 1 1.000000 15 -3.000000
376 2 653.992000 -2491.170000 436.513000 1 1.000000 1 -3.000000
377 2 662.415000 -2496.310000 436.425000 1 1.000000 1 -3.000000
378 2 669.567000 -2502.940000 434.825000 1 1.000000 1 -3.000000
379 2 678.135000 -2507.370000 435.957000 1 1.000000 1 -3.000000
380 2 687.904000 -2508.570000 436.565000 1 1.000000 1 -3.000000
381 2 695.995000 -2513.680000 439.076000 1 1.000000 1 -3.000000
382 2 703.932000 -2519.130000 441.137000 1 1.000000 1 -3.000000
383 2 711.179000 -2524.560000 444.996000 1 1.000000 1 -3.000000
384 2 719.134000 -2529.520000 447.851000 1 1.000000 1 -3.000000
385 2 724.429000 -2537.750000 449.293000 1 1.000000 1 -3.000000
386 2 731.163000 -2544.570000 446.652000 1 1.000000 1 -3.000000
387 2 738.596000 -2550.530000 444.123000 1 1.000000 1 -3.000000
388 2 745.926000 -2555.010000 439.328000 1 1.000000 1 -3.000000
389 2 752.798000 -2558.830000 433.376000 1 1.000000 1 -3.000000
390 2 760.419000 -2559.660000 427.118000 1 1.000000 1 -3.000000
391 2 767.650000 -2559.720000 420.302000 1 1.000000 1 -3.000000
392 2 776.606000 -2562.570000 417.290000 1 1.000000 1 -3.000000
393 2 784.368000 -2565.540000 411.954000 1 1.000000 1 -3.000000
394 2 793.254000 -2567.820000 408.148000 1 1.000000 1 -3.000000
395 2 802.252000 -2567.140000 404.156000 1 1.000000 1 -3.000000
396 2 809.779000 -2563.140000 399.228000 1 1.000000 1 -3.000000
397 2 815.793000 -2557.920000 393.335000 1 1.000000 1 -3.000000
398 2 820.713000 -2551.800000 387.335000 1 1.000000 1 -3.000000
399 2 826.798000 -2549.110000 380.099000 1 1.000000 16 -3.000000
400 1 802.292000 -2509.390000 373.465000 1 1.000000 16 0.000000
401 3 788.770000 -2522.300000 402.937000 1 1.000000 16 0.000000
402 2 771.302000 -2476.160000 386.478000 1 1.000000 16 -3.000000
403 2 768.033000 -2477.280000 395.566000 1 1.000000 1 -3.000000
404 2 768.766000 -2479.180000 405.322000 1 1.000000 1 -3.000000
405 2 773.156000 -2481.250000 413.982000 1 1.000000 1 -3.000000
406 2 776.582000 -2481.850000 423.210000 1 1.000000 1 -3.000000
407 2 780.279000 -2480.390000 432.251000 1 1.000000 1 -3.000000
408 2 786.602000 -2478.010000 439.585000 1 1.000000 1 -3.000000
409 2 792.960000 -2475.240000 446.621000 1 1.000000 1 -3.000000
410 2 795.018000 -2472.120000 455.729000 1 1.000000 1 -3.000000
411 2 798.600000 -2469.050000 464.396000 1 1.000000 1 -3.000000
412 2 799.981000 -2462.460000 471.667000 1 1.000000 1 -3.000000
413 2 804.621000 -2456.880000 478.451000 1 1.000000 1 -3.000000
414 2 810.523000 -2450.330000 482.846000 1 1.000000 1 -3.000000
415 2 818.227000 -2445.940000 487.343000 1 1.000000 1 -3.000000
416 2 824.963000 -2439.500000 490.794000 1 1.000000 1 -3.000000
417 2 828.449000 -2431.000000 494.464000 1 1.000000 1 -3.000000
418 2 830.692000 -2421.310000 495.143000 1 1.000000 1 -3.000000
419 2 833.503000 -2412.160000 492.999000 1 1.000000 1 -3.000000
420 2 839.558000 -2404.920000 489.997000 1 1.000000 1 -3.000000
421 2 847.733000 -2399.670000 487.697000 1 1.000000 1 -3.000000
422 2 853.827000 -2391.840000 486.517000 1 1.000000 1 -3.000000
423 2 860.073000 -2384.320000 484.940000 1 1.000000 1 -3.000000
424 2 864.394000 -2375.450000 484.330000 1 1.000000 1 -3.000000
425 2 868.228000 -2366.600000 482.684000 1 1.000000 1 -3.000000
426 2 876.174000 -2361.030000 484.461000 1 1.000000 17 -3.000000
427 1 871.912000 -2335.210000 445.227000 1 1.000000 17 0.000000
428 3 842.531000 -2354.160000 445.487000 1 1.000000 17 0.000000
429 2 850.475000 -2322.490000 405.209000 1 1.000000 17 -3.000000
430 2 841.876000 -2327.010000 407.357000 1 1.000000 1 -3.000000
431 2 833.229000 -2331.200000 410.020000 1 1.000000 1 -3.000000
432 2 824.749000 -2335.790000 411.885000 1 1.000000 1 -3.000000
433 2 816.728000 -2341.300000 412.711000 1 1.000000 1 -3.000000
434 2 810.571000 -2349.130000 412.370000 1 1.000000 1 -3.000000
435 2 802.949000 -2355.460000 411.770000 1 1.000000 1 -3.000000
436 2 794.883000 -2360.740000 409.685000 1 1.000000 1 -3.000000
437 2 788.524000 -2368.320000 409.894000 1 1.000000 1 -3.000000
438 2 780.668000 -2373.670000 412.693000 1 1.000000 1 -3.000000
439 2 771.976000 -2378.390000 413.264000 1 1.000000 1 -3.000000
440 2 762.174000 -2379.460000 412.106000 1 1.000000 1 -3.000000
441 2 752.819000 -2381.860000 413.317000 1 1.000000 1 -3.000000
442 2 743.943000 -2385.460000 415.828000 1 1.000000 1 -3.000000
443 2 736.711000 -2388.240000 421.925000 1 1.000000 1 -3.000000
444 2 729.027000 -2390.610000 427.761000 1 1.000000 1 -3.000000
445 2 721.544000 -2391.680000 434.175000 1 1.000000 1 -3.000000
446 2 713.994000 -2394.950000 439.579000 1 1.000000 1 -3.000000
447 2 708.469000 -2396.370000 447.610000 1 1.000000 1 -3.000000
448 2 705.314000 -2395.270000 457.099000 1 1.000000 1 -3.000000
449 2 702.247000 -2394.830000 466.443000 1 1.000000 1 -3.000000
450 2 701.297000 -2393.440000 476.169000 1 1.000000 1 -3.000000
451 2 700.151000 -2393.740000 485.986000 1 1.000000 1 -3.000000
452 2 697.812000 -2390.180000 494.849000 1 1.000000 1 -3.000000
453 2 697.253000 -2385.610000 503.629000 1 1.000000 18 -3.000000
454 1 652.756000 -2401.120000 500.827000 1 1.000000 18 0.000000
455 3 665.636000 -2408.160000 468.953000 1 1.000000 18 0.000000
456 2 616.661000 -2421.920000 478.750000 1 1.000000 18 -3.000000
457 2 623.483000 -2424.330000 471.904000 1 1.000000 1 -3.000000
458 2 631.660000 -2425.140000 466.295000 1 1.000000 1 -3.000000
459 2 637.755000 -2426.690000 458.586000 1 1.000000 1 -3.000000
460 2 642.734000 -2431.790000 451.882000 1 1.000000 1 -3.000000
461 2 645.243000 -2438.320000 444.866000 1 1.000000 1 -3.000000
462 2 644.479000 -2446.740000 439.768000 1 1.000000 1 -3.000000
463 2 640.263000 -2452.660000 433.002000 1 1.000000 1 -3.000000
464 2 636.107000 -2456.860000 425.005000 1 1.000000 1 -3.000000
465 2 632.989000 -2463.330000 418.128000 1 1.000000 1 -3.000000