LAMMPS data file

4067 atoms
4067 ellipsoids
4516 bonds
8882 angles
0 dihedrals

3 atom types
5 bond types
12 angle types
0 dihedral types

-4631.092947 4670.465898 xlo xhi
-4631.092947 4670.465898 ylo yhi
-4631.092947 4670.465898 zlo zhi

Masses

1 196016.000000
2 1950.000000
3 19500.000000

Atoms

1 2 988.514000 -2913.400000 565.785000 1 1.000000 1 -3.000000
2 2 980.731000 -2916.280000 571.229000 1 1.000000 1 -3.000000
3 2 974.126000 -2918.060000 578.514000 1 1.000000 1 -3.000000
4 2 967.769000 -2922.690000 584.500000 1 1.000000 1 -3.000000
5 2 963.641000 -2928.670000 591.290000 1 1.000000 1 -3.000000
6 2 958.463000 -2936.210000 595.068000 1 1.000000 1 -3.000000
7 2 953.120000 -2944.160000 597.389000 1 1.000000 1 -3.000000
8 2 950.702000 -2953.560000 599.499000 1 1.000000 1 -3.000000
9 2 946.593000 -2962.540000 600.501000 1 1.000000 1 -3.000000
10 2 942.832000 -2971.080000 603.800000 1 1.000000 1 -3.000000
11 2 937.681000 -2979.430000 605.115000 1 1.000000 1 -3.000000
12 2 933.016000 -2987.090000 609.152000 1 1.000000 1 -3.000000
13 2 928.774000 -2995.220000 612.648000 1 1.000000 1 -3.000000
14 2 924.285000 -3003.280000 616.277000 1 1.000000 1 -3.000000
15 2 917.369000 -3010.180000 617.352000 1 1.000000 1 -3.000000
16 2 912.356000 -3018.390000 620.113000 1 1.000000 1 -3.000000
17 2 907.922000 -3027.140000 619.242000 1 1.000000 1 -3.000000
18 2 902.582000 -3034.240000 614.860000 1 1.000000 1 -3.000000
19 2 895.079000 -3039.580000 610.980000 1 1.000000 1 -3.000000
20 2 886.456000 -3043.690000 608.714000 1 1.000000 1 -3.000000
21 2 876.631000 -3044.990000 609.171000 1 1.000000 2 -3.000000
22 1 850.825000 -3005.620000 613.206000 1 1.000000 2 0.000000
23 3 882.042000 -2993.660000 602.961000 1 1.000000 2 0.000000
24 2 844.155000 -2959.120000 610.738000 1 1.000000 2 -3.000000
25 2 851.831000 -2956.060000 605.302000 1 1.000000 1 -3.000000
26 2 858.980000 -2955.350000 598.489000 1 1.000000 1 -3.000000
27 2 866.739000 -2954.810000 592.282000 1 1.000000 1 -3.000000
28 2 875.233000 -2952.850000 587.808000 1 1.000000 1 -3.000000
29 2 882.063000 -2949.050000 581.671000 1 1.000000 1 -3.000000
30 2 890.099000 -2947.380000 576.342000 1 1.000000 1 -3.000000
31 2 897.613000 -2947.310000 569.725000 1 1.000000 1 -3.000000
32 2 905.238000 -2946.830000 563.453000 1 1.000000 1 -3.000000
33 2 910.545000 -2949.230000 555.582000 1 1.000000 1 -3.000000
34 2 916.358000 -2952.930000 548.399000 1 1.000000 1 -3.000000
35 2 919.900000 -2956.020000 539.559000 1 1.000000 1 -3.000000
36 2 923.464000 -2956.280000 530.230000 1 1.000000 1 -3.000000
37 2 929.572000 -2954.930000 522.712000 1 1.000000 1 -3.000000
38 2 935.661000 -2955.130000 514.972000 1 1.000000 1 -3.000000
39 2 939.371000 -2956.060000 505.890000 1 1.000000 1 -3.000000
40 2 941.407000 -2958.110000 496.464000 1 1.000000 1 -3.000000
41 2 941.132000 -2960.790000 486.961000 1 1.000000 1 -3.000000
42 2 939.614000 -2964.510000 477.887000 1 1.000000 1 -3.000000
43 2 939.640000 -2971.930000 471.449000 1 1.000000 1 -3.000000
44 2 937.720000 -2978.200000 464.242000 1 1.000000 1 -3.000000
45 2 933.302000 -2984.220000 457.704000 1 1.000000 1 -3.000000
46 2 928.976000 -2987.430000 449.499000 1 1.000000 1 -3.000000
47 2 926.224000 -2990.050000 440.362000 1 1.000000 1 -3.000000
48 2 922.789000 -2994.000000 431.745000 1 1.000000 3 -3.000000
49 1 920.550000 -2952.410000 409.509000 1 1.000000 3 0.000000
50 3 935.905000 -2944.580000 439.905000 1 1.000000 3 0.000000
51 2 930.749000 -2906.640000 404.541000 1 1.000000 3 -3.000000
52 2 938.100000 -2905.450000 411.055000 1 1.000000 1 -3.000000
53 2 943.381000 -2903.780000 419.168000 1 1.000000 1 -3.000000
54 2 948.662000 -2902.490000 427.464000 1 1.000000 1 -3.000000
55 2 952.700000 -2903.070000 436.458000 1 1.000000 1 -3.000000
56 2 953.304000 -2905.910000 445.850000 1 1.000000 1 -3.000000
57 2 953.870000 -2908.090000 455.436000 1 1.000000 1 -3.000000
58 2 954.207000 -2911.180000 464.810000 1 1.000000 1 -3.000000
59 2 953.020000 -2914.110000 474.132000 1 1.000000 1 -3.000000
60 2 950.742000 -2915.540000 483.640000 1 1.000000 1 -3.000000
61 2 950.157000 -2918.800000 492.989000 1 1.000000 1 -3.000000
62 2 950.191000 -2920.920000 502.588000 1 1.000000 1 -3.000000
63 2 946.540000 -2918.930000 511.550000 1 1.000000 1 -3.000000
64 2 942.878000 -2914.870000 519.671000 1 1.000000 1 -3.000000
65 2 940.095000 -2907.560000 525.791000 1 1.000000 1 -3.000000
66 2 938.079000 -2901.520000 533.309000 1 1.000000 1 -3.000000
67 2 934.577000 -2893.430000 537.991000 1 1.000000 1 -3.000000
68 2 932.225000 -2884.680000 542.185000 1 1.000000 1 -3.000000
69 2 927.481000 -2876.550000 545.163000 1 1.000000 1 -3.000000
70 2 922.301000 -2868.230000 545.432000 1 1.000000 1 -3.000000
71 2 921.163000 -2858.450000 546.446000 1 1.000000 1 -3.000000
72 2 919.389000 -2849.800000 550.815000 1 1.000000 1 -3.000000
73 2 919.091000 -2840.230000 553.017000 1 1.000000 1 -3.000000
74 2 918.498000 -2830.390000 553.598000 1 1.000000 1 -3.000000
75 2 915.817000 -2821.260000 550.633000 1 1.000000 4 -3.000000
76 1 870.067000 -2821.010000 539.332000 1 1.000000 4 0.000000
77 3 876.190000 -2854.630000 546.760000 1 1.000000 4 0.000000
78 2 827.664000 -2840.880000 533.977000 1 1.000000 4 -3.000000
79 2 832.328000 -2849.400000 536.095000 1 1.000000 1 -3.000000
80 2 837.762000 -2857.470000 538.169000 1 1.000000 1 -3.000000
81 2 841.716000 -2866.300000 540.179000 1 1.000000 1 -3.000000
82 2 844.534000 -2874.390000 545.531000 1 1.000000 1 -3.000000
83 2 843.982000 -2884.150000 546.003000 1 1.000000 1 -3.000000
84 2 841.786000 -2893.570000 543.734000 1 1.000000 1 -3.000000
85 2 836.664000 -2901.790000 541.419000 1 1.000000 1 -3.000000
86 2 832.651000 -2910.090000 537.651000 1 1.000000 1 -3.000000
87 2 827.871000 -2918.290000 534.921000 1 1.000000 1 -3.000000
88 2 823.578000 -2927.070000 533.193000 1 1.000000 1 -3.000000
89 2 820.404000 -2935.430000 529.050000 1 1.000000 1 -3.000000
90 2 818.216000 -2944.350000 525.046000 1 1.000000 1 -3.000000
91 2 811.816000 -2951.870000 524.834000 1 1.000000 1 -3.000000
92 2 809.683000 -2960.530000 520.374000 1 1.000000 1 -3.000000
93 2 809.176000 -2965.850000 512.157000 1 1.000000 1 -3.000000
94 2 808.401000 -2968.960000 502.876000 1 1.000000 1 -3.000000
95 2 807.833000 -2970.740000 493.195000 1 1.000000 1 -3.000000
96 2 807.536000 -2969.040000 483.382000 1 1.000000 1 -3.000000
97 2 806.997000 -2968.470000 473.430000 1 1.000000 1 -3.000000
98 2 809.577000 -2963.650000 465.129000 1 1.000000 1 -3.000000
99 2 812.470000 -2958.340000 457.276000 1 1.000000 1 -3.000000
100 2 816.807000 -2953.200000 449.939000 1 1.000000 1 -3.000000
101 2 821.323000 -2946.120000 444.607000 1 1.000000 1 -3.000000
102 2 825.525000 -2938.720000 439.528000 1 1.000000 5 -3.000000
103 1 800.965000 -2941.780000 399.260000 1 1.000000 5 0.000000
104 3 781.044000 -2959.160000 422.355000 1 1.000000 5 0.000000
105 2 762.153000 -2952.270000 374.527000 1 1.000000 5 -3.000000
106 2 756.563000 -2956.140000 381.667000 1 1.000000 1 -3.000000
107 2 749.827000 -2961.200000 386.882000 1 1.000000 1 -3.000000
108 2 744.035000 -2960.780000 395.036000 1 1.000000 1 -3.000000
109 2 738.659000 -2960.630000 403.243000 1 1.000000 1 -3.000000
110 2 737.710000 -2961.550000 413.073000 1 1.000000 1 -3.000000
111 2 735.781000 -2963.490000 422.634000 1 1.000000 1 -3.000000
112 2 733.643000 -2964.930000 432.239000 1 1.000000 1 -3.000000
113 2 727.678000 -2970.020000 438.350000 1 1.000000 1 -3.000000
114 2 721.284000 -2976.110000 442.786000 1 1.000000 1 -3.000000
115 2 713.771000 -2981.940000 445.455000 1 1.000000 1 -3.000000
116 2 706.219000 -2987.880000 447.875000 1 1.000000 1 -3.000000
117 2 699.467000 -2994.260000 451.430000 1 1.000000 1 -3.000000
118 2 692.861000 -2999.350000 456.658000 1 1.000000 1 -3.000000
119 2 687.143000 -3004.410000 463.047000 1 1.000000 1 -3.000000
120 2 681.870000 -3009.920000 469.399000 1 1.000000 1 -3.000000
121 2 674.747000 -3013.800000 474.905000 1 1.000000 1 -3.000000
122 2 668.361000 -3017.170000 481.430000 1 1.000000 1 -3.000000
123 2 662.123000 -3023.290000 486.089000 1 1.000000 1 -3.000000
124 2 653.481000 -3026.670000 489.566000 1 1.000000 1 -3.000000
125 2 644.375000 -3030.310000 488.550000 1 1.000000 1 -3.000000
126 2 637.220000 -3032.800000 482.434000 1 1.000000 1 -3.000000
127 2 631.137000 -3039.240000 478.173000 1 1.000000 1 -3.000000
128 2 624.276000 -3045.770000 475.733000 1 1.000000 1 -3.000000
129 2 619.403000 -3051.080000 468.910000 1 1.000000 6 -3.000000
130 1 603.637000 -3016.000000 441.588000 1 1.000000 6 0.000000
131 3 633.469000 -3003.300000 454.646000 1 1.000000 6 0.000000
132 2 605.309000 -2972.530000 423.492000 1 1.000000 6 -3.000000
133 2 612.185000 -2966.200000 426.870000 1 1.000000 1 -3.000000
134 2 618.878000 -2961.310000 432.194000 1 1.000000 1 -3.000000
135 2 626.333000 -2961.140000 438.895000 1 1.000000 1 -3.000000
136 2 632.714000 -2958.790000 446.012000 1 1.000000 1 -3.000000
137 2 637.330000 -2959.030000 454.798000 1 1.000000 1 -3.000000
138 2 641.146000 -2961.760000 463.517000 1 1.000000 1 -3.000000
139 2 645.029000 -2964.020000 472.380000 1 1.000000 1 -3.000000
140 2 648.058000 -2969.060000 480.460000 1 1.000000 1 -3.000000
141 2 650.362000 -2972.060000 489.697000 1 1.000000 1 -3.000000
142 2 655.813000 -2974.730000 497.563000 1 1.000000 1 -3.000000
143 2 661.974000 -2974.510000 505.289000 1 1.000000 1 -3.000000
144 2 666.673000 -2972.980000 513.908000 1 1.000000 1 -3.000000
145 2 673.350000 -2971.290000 521.092000 1 1.000000 1 -3.000000
146 2 676.627000 -2965.310000 528.193000 1 1.000000 1 -3.000000
147 2 680.223000 -2958.230000 533.941000 1 1.000000 1 -3.000000
148 2 686.349000 -2954.380000 540.868000 1 1.000000 1 -3.000000
149 2 693.493000 -2948.980000 545.178000 1 1.000000 1 -3.000000
150 2 700.712000 -2943.120000 548.992000 1 1.000000 1 -3.000000
151 2 707.640000 -2939.700000 555.197000 1 1.000000 1 -3.000000
152 2 712.364000 -2937.250000 563.455000 1 1.000000 1 -3.000000
153 2 720.019000 -2935.040000 569.418000 1 1.000000 1 -3.000000
154 2 727.599000 -2933.110000 575.363000 1 1.000000 1 -3.000000
155 2 735.230000 -2933.780000 581.728000 1 1.000000 1 -3.000000
156 2 743.851000 -2936.610000 585.555000 1 1.000000 7 -3.000000
157 1 771.226000 -2923.420000 549.477000 1 1.000000 7 0.000000
158 3 739.714000 -2910.880000 540.693000 1 1.000000 7 0.000000
159 2 780.134000 -2898.630000 510.274000 1 1.000000 7 -3.000000
160 2 773.238000 -2892.400000 506.749000 1 1.000000 1 -3.000000
161 2 767.401000 -2887.280000 500.694000 1 1.000000 1 -3.000000
162 2 760.968000 -2884.010000 493.940000 1 1.000000 1 -3.000000
163 2 753.025000 -2880.880000 488.810000 1 1.000000 1 -3.000000
164 2 746.896000 -2874.970000 483.998000 1 1.000000 1 -3.000000
165 2 742.040000 -2867.810000 479.114000 1 1.000000 1 -3.000000
166 2 738.156000 -2859.900000 474.362000 1 1.000000 1 -3.000000
167 2 736.341000 -2851.740000 469.216000 1 1.000000 1 -3.000000
168 2 733.776000 -2842.610000 466.750000 1 1.000000 1 -3.000000
169 2 729.714000 -2834.300000 463.425000 1 1.000000 1 -3.000000
170 2 725.343000 -2826.040000 459.976000 1 1.000000 1 -3.000000
171 2 720.854000 -2818.590000 455.155000 1 1.000000 1 -3.000000
172 2 714.734000 -2812.140000 450.735000 1 1.000000 1 -3.000000
173 2 708.896000 -2804.910000 447.375000 1 1.000000 1 -3.000000
174 2 703.644000 -2797.420000 443.275000 1 1.000000 1 -3.000000
175 2 701.262000 -2787.810000 442.449000 1 1.000000 1 -3.000000
176 2 700.584000 -2778.220000 440.598000 1 1.000000 1 -3.000000
177 2 697.835000 -2769.720000 436.220000 1 1.000000 1 -3.000000
178 2 693.546000 -2762.950000 430.560000 1 1.000000 1 -3.000000
179 2 688.503000 -2760.390000 422.532000 1 1.000000 1 -3.000000
180 2 682.697000 -2758.540000 414.784000 1 1.000000 1 -3.000000
181 2 675.296000 -2757.810000 408.291000 1 1.000000 1 -3.000000
182 2 667.543000 -2757.080000 402.086000 1 1.000000 1 -3.000000
183 2 658.681000 -2757.240000 397.630000 1 1.000000 8 -3.000000
184 1 662.255000 -2802.300000 383.879000 1 1.000000 8 0.000000
185 3 672.522000 -2803.200000 417.220000 1 1.000000 8 0.000000
186 2 669.288000 -2848.260000 391.716000 1 1.000000 8 -3.000000
187 2 672.692000 -2846.170000 400.665000 1 1.000000 1 -3.000000
188 2 673.534000 -2842.610000 409.854000 1 1.000000 1 -3.000000
189 2 670.743000 -2839.100000 418.582000 1 1.000000 1 -3.000000
190 2 668.009000 -2839.200000 428.072000 1 1.000000 1 -3.000000
191 2 667.660000 -2836.710000 437.613000 1 1.000000 1 -3.000000
192 2 666.946000 -2837.100000 447.474000 1 1.000000 1 -3.000000
193 2 664.949000 -2834.080000 456.711000 1 1.000000 1 -3.000000
194 2 665.666000 -2834.770000 466.650000 1 1.000000 1 -3.000000
195 2 669.871000 -2836.740000 475.434000 1 1.000000 1 -3.000000
196 2 676.326000 -2836.170000 482.903000 1 1.000000 1 -3.000000
197 2 683.174000 -2833.170000 489.280000 1 1.000000 1 -3.000000
198 2 688.394000 -2829.640000 496.842000 1 1.000000 1 -3.000000
199 2 690.499000 -2829.640000 506.465000 1 1.000000 1 -3.000000
200 2 693.042000 -2828.030000 515.906000 1 1.000000 1 -3.000000
201 2 697.172000 -2825.770000 524.823000 1 1.000000 1 -3.000000
202 2 699.554000 -2823.520000 534.016000 1 1.000000 1 -3.000000
203 2 701.275000 -2824.610000 543.740000 1 1.000000 1 -3.000000
204 2 705.872000 -2821.090000 552.026000 1 1.000000 1 -3.000000
205 2 712.314000 -2819.400000 559.300000 1 1.000000 1 -3.000000
206 2 718.922000 -2818.540000 566.793000 1 1.000000 1 -3.000000
207 2 726.035000 -2817.890000 573.735000 1 1.000000 1 -3.000000
208 2 733.243000 -2818.200000 580.437000 1 1.000000 1 -3.000000
209 2 738.155000 -2818.880000 588.962000 1 1.000000 1 -3.000000
210 2 744.704000 -2821.530000 595.779000 1 1.000000 9 -3.000000
211 1 720.748000 -2789.850000 621.189000 1 1.000000 9 0.000000
212 3 696.670000 -2802.540000 599.254000 1 1.000000 9 0.000000
213 2 681.893000 -2766.450000 633.730000 1 1.000000 9 -3.000000
214 2 677.646000 -2775.590000 633.902000 1 1.000000 1 -3.000000
215 2 673.945000 -2784.550000 631.881000 1 1.000000 1 -3.000000
216 2 667.879000 -2790.840000 627.294000 1 1.000000 1 -3.000000
217 2 660.888000 -2796.740000 623.742000 1 1.000000 1 -3.000000
218 2 653.187000 -2800.520000 618.835000 1 1.000000 1 -3.000000
219 2 646.707000 -2803.100000 611.995000 1 1.000000 1 -3.000000
220 2 638.727000 -2803.720000 606.287000 1 1.000000 1 -3.000000
221 2 635.522000 -2801.490000 597.165000 1 1.000000 1 -3.000000
222 2 630.742000 -2799.350000 588.752000 1 1.000000 1 -3.000000
223 2 626.653000 -2798.990000 579.878000 1 1.000000 1 -3.000000
224 2 620.702000 -2796.570000 572.402000 1 1.000000 1 -3.000000
225 2 615.594000 -2793.230000 564.592000 1 1.000000 1 -3.000000
226 2 611.171000 -2788.900000 556.841000 1 1.000000 1 -3.000000
227 2 610.308000 -2782.820000 549.047000 1 1.000000 1 -3.000000
228 2 606.798000 -2778.520000 540.845000 1 1.000000 1 -3.000000
229 2 601.913000 -2774.550000 533.100000 1 1.000000 1 -3.000000
230 2 595.033000 -2769.520000 527.878000 1 1.000000 1 -3.000000
231 2 589.776000 -2761.890000 524.682000 1 1.000000 1 -3.000000
232 2 583.894000 -2753.800000 524.542000 1 1.000000 1 -3.000000
233 2 577.971000 -2746.510000 527.794000 1 1.000000 1 -3.000000
234 2 572.788000 -2738.320000 529.257000 1 1.000000 1 -3.000000
235 2 565.292000 -2731.710000 530.903000 1 1.000000 1 -3.000000
236 2 558.931000 -2724.430000 532.728000 1 1.000000 1 -3.000000
237 2 555.303000 -2718.280000 539.593000 1 1.000000 10 -3.000000
238 1 520.923000 -2750.600000 538.490000 1 1.000000 10 0.000000
239 3 534.202000 -2752.220000 506.263000 1 1.000000 10 0.000000
240 2 493.694000 -2782.620000 517.222000 1 1.000000 10 -3.000000
241 2 498.052000 -2780.070000 508.654000 1 1.000000 1 -3.000000
242 2 502.758000 -2776.430000 500.737000 1 1.000000 1 -3.000000
243 2 503.984000 -2774.100000 491.002000 1 1.000000 1 -3.000000
244 2 504.340000 -2770.350000 481.815000 1 1.000000 1 -3.000000
245 2 503.811000 -2765.290000 473.292000 1 1.000000 1 -3.000000
246 2 504.153000 -2761.890000 463.978000 1 1.000000 1 -3.000000
247 2 506.554000 -2758.270000 455.149000 1 1.000000 1 -3.000000
248 2 509.372000 -2753.240000 447.083000 1 1.000000 1 -3.000000
249 2 510.356000 -2749.010000 438.197000 1 1.000000 1 -3.000000
250 2 510.399000 -2744.880000 429.251000 1 1.000000 1 -3.000000
251 2 509.304000 -2740.920000 420.247000 1 1.000000 1 -3.000000
252 2 511.381000 -2737.130000 411.248000 1 1.000000 1 -3.000000
253 2 514.574000 -2732.080000 403.510000 1 1.000000 1 -3.000000
254 2 516.165000 -2725.320000 396.561000 1 1.000000 1 -3.000000
255 2 517.390000 -2719.240000 388.962000 1 1.000000 1 -3.000000
256 2 518.029000 -2710.100000 385.498000 1 1.000000 1 -3.000000
257 2 519.078000 -2700.940000 381.789000 1 1.000000 1 -3.000000
258 2 522.458000 -2691.930000 379.251000 1 1.000000 1 -3.000000
259 2 527.590000 -2683.760000 377.403000 1 1.000000 1 -3.000000
260 2 532.479000 -2675.400000 378.895000 1 1.000000 1 -3.000000
261 2 537.753000 -2667.200000 380.791000 1 1.000000 1 -3.000000
262 2 541.375000 -2658.780000 384.543000 1 1.000000 1 -3.000000
263 2 545.175000 -2650.260000 387.594000 1 1.000000 1 -3.000000
264 2 547.362000 -2641.870000 392.379000 1 1.000000 11 -3.000000
265 1 508.923000 -2615.480000 385.254000 1 1.000000 11 0.000000
266 3 498.409000 -2647.530000 375.796000 1 1.000000 11 0.000000
267 2 464.963000 -2608.320000 369.555000 1 1.000000 11 -3.000000
268 2 467.092000 -2612.300000 360.707000 1 1.000000 1 -3.000000
269 2 470.626000 -2613.380000 351.528000 1 1.000000 1 -3.000000
270 2 476.371000 -2618.370000 345.253000 1 1.000000 1 -3.000000
271 2 483.292000 -2623.090000 339.984000 1 1.000000 1 -3.000000
272 2 487.614000 -2627.120000 331.948000 1 1.000000 1 -3.000000
273 2 491.458000 -2634.170000 326.066000 1 1.000000 1 -3.000000
274 2 497.704000 -2640.590000 321.816000 1 1.000000 1 -3.000000
275 2 501.240000 -2646.720000 314.948000 1 1.000000 1 -3.000000
276 2 508.397000 -2651.270000 309.888000 1 1.000000 1 -3.000000
277 2 514.799000 -2655.460000 303.688000 1 1.000000 1 -3.000000
278 2 519.039000 -2662.200000 297.710000 1 1.000000 1 -3.000000
279 2 525.186000 -2668.280000 292.967000 1 1.000000 1 -3.000000
280 2 533.086000 -2673.790000 290.665000 1 1.000000 1 -3.000000
281 2 541.104000 -2679.100000 288.163000 1 1.000000 1 -3.000000
282 2 549.351000 -2684.000000 285.343000 1 1.000000 1 -3.000000
283 2 558.193000 -2687.850000 282.953000 1 1.000000 1 -3.000000
284 2 567.480000 -2691.190000 282.056000 1 1.000000 1 -3.000000
285 2 575.428000 -2697.030000 281.394000 1 1.000000 1 -3.000000
286 2 584.445000 -2701.080000 281.162000 1 1.000000 1 -3.000000
287 2 590.838000 -2708.600000 282.504000 1 1.000000 1 -3.000000
288 2 597.175000 -2716.190000 282.091000 1 1.000000 1 -3.000000
289 2 604.444000 -2722.660000 280.319000 1 1.000000 1 -3.000000
290 2 611.697000 -2729.170000 278.073000 1 1.000000 1 -3.000000
291 2 618.818000 -2733.740000 272.910000 1 1.000000 12 -3.000000
292 1 619.535000 -2689.340000 257.006000 1 1.000000 12 0.000000
293 3 586.595000 -2693.280000 268.328000 1 1.000000 12 0.000000
294 2 600.188000 -2646.930000 249.628000 1 1.000000 12 -3.000000
295 2 595.906000 -2650.720000 257.571000 1 1.000000 1 -3.000000
296 2 591.475000 -2651.800000 266.427000 1 1.000000 1 -3.000000
297 2 590.337000 -2652.300000 276.363000 1 1.000000 1 -3.000000
298 2 592.187000 -2653.390000 285.900000 1 1.000000 1 -3.000000
299 2 594.068000 -2655.530000 295.365000 1 1.000000 1 -3.000000
300 2 596.119000 -2657.100000 304.879000 1 1.000000 1 -3.000000
301 2 598.615000 -2657.120000 314.478000 1 1.000000 1 -3.000000
302 2 600.221000 -2657.250000 324.212000 1 1.000000 1 -3.000000
303 2 600.685000 -2654.370000 333.694000 1 1.000000 1 -3.000000
304 2 601.675000 -2652.880000 343.428000 1 1.000000 1 -3.000000
305 2 603.767000 -2648.800000 352.110000 1 1.000000 1 -3.000000
306 2 606.522000 -2644.380000 360.375000 1 1.000000 1 -3.000000
307 2 607.477000 -2638.630000 368.312000 1 1.000000 1 -3.000000
308 2 606.821000 -2632.120000 375.683000 1 1.000000 1 -3.000000
309 2 604.577000 -2623.470000 380.125000 1 1.000000 1 -3.000000
310 2 603.479000 -2614.370000 383.888000 1 1.000000 1 -3.000000
311 2 604.728000 -2604.980000 386.760000 1 1.000000 1 -3.000000
312 2 603.786000 -2595.680000 389.918000 1 1.000000 1 -3.000000
313 2 603.694000 -2586.310000 392.571000 1 1.000000 1 -3.000000
314 2 604.858000 -2576.900000 395.373000 1 1.000000 1 -3.000000
315 2 602.580000 -2568.630000 400.332000 1 1.000000 1 -3.000000
316 2 596.727000 -2562.760000 405.793000 1 1.000000 1 -3.000000
317 2 589.708000 -2560.440000 412.215000 1 1.000000 1 -3.000000
318 2 583.571000 -2558.420000 419.630000 1 1.000000 13 -3.000000
319 1 605.517000 -2574.180000 458.246000 1 1.000000 13 0.000000
320 3 623.516000 -2589.070000 432.132000 1 1.000000 13 0.000000
321 2 636.980000 -2601.350000 480.756000 1 1.000000 13 -3.000000
322 2 643.503000 -2604.250000 473.798000 1 1.000000 1 -3.000000
323 2 651.695000 -2603.580000 468.382000 1 1.000000 1 -3.000000
324 2 656.377000 -2601.860000 459.871000 1 1.000000 1 -3.000000
325 2 660.822000 -2600.680000 451.114000 1 1.000000 1 -3.000000
326 2 664.383000 -2597.440000 442.494000 1 1.000000 1 -3.000000
327 2 669.129000 -2595.680000 434.009000 1 1.000000 1 -3.000000
328 2 674.239000 -2595.620000 425.502000 1 1.000000 1 -3.000000
329 2 678.635000 -2594.980000 416.770000 1 1.000000 1 -3.000000
330 2 681.209000 -2593.690000 407.353000 1 1.000000 1 -3.000000
331 2 681.632000 -2592.220000 397.581000 1 1.000000 1 -3.000000
332 2 679.847000 -2588.570000 388.537000 1 1.000000 1 -3.000000
333 2 676.217000 -2586.850000 379.516000 1 1.000000 1 -3.000000
334 2 674.560000 -2586.090000 369.785000 1 1.000000 1 -3.000000
335 2 672.558000 -2584.640000 360.261000 1 1.000000 1 -3.000000
336 2 669.299000 -2583.010000 351.091000 1 1.000000 1 -3.000000
337 2 668.165000 -2582.070000 341.305000 1 1.000000 1 -3.000000
338 2 667.237000 -2580.630000 331.473000 1 1.000000 1 -3.000000
339 2 665.996000 -2579.060000 321.793000 1 1.000000 1 -3.000000
340 2 662.942000 -2575.670000 312.878000 1 1.000000 1 -3.000000
341 2 658.171000 -2572.300000 304.781000 1 1.000000 1 -3.000000
342 2 652.019000 -2566.570000 299.631000 1 1.000000 1 -3.000000
343 2 644.165000 -2561.180000 297.006000 1 1.000000 1 -3.000000
344 2 635.632000 -2557.530000 293.397000 1 1.000000 1 -3.000000
345 2 631.404000 -2551.560000 286.671000 1 1.000000 14 -3.000000
346 1 615.116000 -2528.320000 324.357000 1 1.000000 14 0.000000
347 3 644.817000 -2542.800000 336.093000 1 1.000000 14 0.000000
348 2 617.751000 -2512.840000 368.809000 1 1.000000 14 -3.000000
349 2 627.674000 -2513.570000 369.004000 1 1.000000 1 -3.000000
350 2 637.536000 -2514.240000 369.508000 1 1.000000 1 -3.000000
351 2 647.075000 -2512.440000 367.449000 1 1.000000 1 -3.000000
352 2 656.686000 -2510.860000 365.690000 1 1.000000 1 -3.000000
353 2 666.596000 -2510.960000 364.409000 1 1.000000 1 -3.000000
354 2 676.181000 -2510.380000 362.235000 1 1.000000 1 -3.000000
355 2 685.107000 -2508.100000 358.760000 1 1.000000 1 -3.000000
356 2 694.075000 -2506.190000 355.157000 1 1.000000 1 -3.000000
357 2 703.904000 -2505.190000 354.903000 1 1.000000 1 -3.000000
358 2 713.546000 -2503.110000 356.810000 1 1.000000 1 -3.000000
359 2 722.316000 -2498.840000 356.940000 1 1.000000 1 -3.000000
360 2 730.402000 -2493.390000 358.467000 1 1.000000 1 -3.000000
361 2 737.331000 -2487.540000 362.412000 1 1.000000 1 -3.000000
362 2 746.566000 -2485.300000 365.222000 1 1.000000 1 -3.000000
363 2 755.704000 -2484.730000 369.106000 1 1.000000 1 -3.000000
364 2 764.716000 -2482.780000 372.662000 1 1.000000 1 -3.000000
365 2 773.173000 -2480.190000 377.391000 1 1.000000 1 -3.000000
366 2 780.435000 -2479.560000 384.048000 1 1.000000 1 -3.000000
367 2 786.889000 -2480.020000 391.544000 1 1.000000 1 -3.000000
368 2 792.608000 -2481.790000 399.423000 1 1.000000 1 -3.000000
369 2 799.499000 -2481.120000 406.307000 1 1.000000 1 -3.000000
370 2 804.863000 -2478.070000 414.073000 1 1.000000 1 -3.000000
371 2 810.349000 -2475.290000 421.900000 1 1.000000 1 -3.000000
372 2 814.454000 -2470.190000 429.407000 1 1.000000 15 -3.000000
373 1 793.165000 -2428.440000 434.798000 1 1.000000 15 0.000000
374 3 771.638000 -2445.830000 413.167000 1 1.000000 15 0.000000
375 2 760.557000 -2396.030000 423.777000 1 1.000000 15 -3.000000
376 2 755.260000 -2403.170000 419.717000 1 1.000000 1 -3.000000
377 2 749.472000 -2408.120000 413.384000 1 1.000000 1 -3.000000
378 2 742.564000 -2414.740000 410.694000 1 1.000000 1 -3.000000
379 2 736.773000 -2422.530000 408.675000 1 1.000000 1 -3.000000
380 2 729.649000 -2428.930000 406.165000 1 1.000000 1 -3.000000
381 2 724.719000 -2435.660000 400.822000 1 1.000000 1 -3.000000
382 2 717.423000 -2440.420000 396.337000 1 1.000000 1 -3.000000
383 2 712.753000 -2448.090000 392.107000 1 1.000000 1 -3.000000
384 2 704.952000 -2450.990000 386.656000 1 1.000000 1 -3.000000
385 2 696.350000 -2452.830000 382.180000 1 1.000000 1 -3.000000
386 2 688.255000 -2449.580000 377.414000 1 1.000000 1 -3.000000
387 2 679.435000 -2447.810000 373.202000 1 1.000000 1 -3.000000
388 2 672.111000 -2445.920000 366.851000 1 1.000000 1 -3.000000
389 2 664.392000 -2446.200000 360.643000 1 1.000000 1 -3.000000
390 2 660.084000 -2448.310000 351.975000 1 1.000000 1 -3.000000
391 2 658.956000 -2450.120000 342.292000 1 1.000000 1 -3.000000
392 2 659.947000 -2450.550000 332.473000 1 1.000000 1 -3.000000
393 2 662.784000 -2450.470000 323.003000 1 1.000000 1 -3.000000
394 2 664.894000 -2447.220000 313.848000 1 1.000000 1 -3.000000
395 2 668.119000 -2443.630000 305.234000 1 1.000000 1 -3.000000
396 2 670.721000 -2442.190000 295.955000 1 1.000000 1 -3.000000
397 2 672.867000 -2442.130000 286.337000 1 1.000000 1 -3.000000
398 2 673.085000 -2445.050000 276.850000 1 1.000000 1 -3.000000
399 2 674.298000 -2446.450000 267.078000 1 1.000000 16 -3.000000
400 1 643.423000 -2481.470000 260.150000 1 1.000000 16 0.000000
401 3 632.155000 -2466.510000 289.761000 1 1.000000 16 0.000000
402 2 606.472000 -2508.180000 272.241000 1 1.000000 16 -3.000000
403 2 604.432000 -2504.640000 281.194000 1 1.000000 1 -3.000000
404 2 605.639000 -2500.650000 290.263000 1 1.000000 1 -3.000000
405 2 604.890000 -2495.750000 298.759000 1 1.000000 1 -3.000000
406 2 600.637000 -2492.390000 307.241000 1 1.000000 1 -3.000000
407 2 595.095000 -2489.720000 314.963000 1 1.000000 1 -3.000000
408 2 588.521000 -2488.630000 322.512000 1 1.000000 1 -3.000000
409 2 581.385000 -2488.280000 329.333000 1 1.000000 1 -3.000000
410 2 575.247000 -2488.430000 337.065000 1 1.000000 1 -3.000000
411 2 569.976000 -2487.690000 345.414000 1 1.000000 1 -3.000000
412 2 569.648000 -2488.250000 355.354000 1 1.000000 1 -3.000000
413 2 568.664000 -2486.980000 365.107000 1 1.000000 1 -3.000000
414 2 566.675000 -2485.620000 374.789000 1 1.000000 1 -3.000000
415 2 565.296000 -2482.010000 383.954000 1 1.000000 1 -3.000000
416 2 565.825000 -2478.870000 393.397000 1 1.000000 1 -3.000000
417 2 568.013000 -2471.480000 399.589000 1 1.000000 1 -3.000000
418 2 569.717000 -2463.920000 405.818000 1 1.000000 1 -3.000000
419 2 571.642000 -2457.140000 412.669000 1 1.000000 1 -3.000000
420 2 575.333000 -2451.810000 420.235000 1 1.000000 1 -3.000000
421 2 579.495000 -2449.680000 428.944000 1 1.000000 1 -3.000000
422 2 585.504000 -2446.300000 436.020000 1 1.000000 1 -3.000000
423 2 592.965000 -2442.830000 441.799000 1 1.000000 1 -3.000000
424 2 598.789000 -2438.910000 448.820000 1 1.000000 1 -3.000000
425 2 605.904000 -2437.080000 455.403000 1 1.000000 1 -3.000000
426 2 611.802000 -2436.940000 463.251000 1 1.000000 17 -3.000000
427 1 640.371000 -2434.990000 425.859000 1 1.000000 17 0.000000
428 3 617.565000 -2409.170000 419.937000 1 1.000000 17 0.000000
429 2 654.629000 -2417.470000 384.370000 1 1.000000 17 -3.000000
430 2 648.448000 -2410.080000 386.128000 1 1.000000 1 -3.000000
431 2 641.932000 -2402.680000 385.181000 1 1.000000 1 -3.000000
432 2 636.651000 -2394.500000 387.008000 1 1.000000 1 -3.000000
433 2 634.245000 -2385.260000 384.325000 1 1.000000 1 -3.000000
434 2 630.284000 -2376.960000 380.699000 1 1.000000 1 -3.000000
435 2 630.024000 -2367.290000 378.152000 1 1.000000 1 -3.000000
436 2 629.960000 -2357.710000 375.500000 1 1.000000 1 -3.000000
437 2 630.467000 -2347.880000 374.169000 1 1.000000 1 -3.000000
438 2 633.709000 -2338.440000 373.610000 1 1.000000 1 -3.000000
439 2 635.652000 -2328.740000 372.580000 1 1.000000 1 -3.000000
440 2 638.557000 -2319.820000 369.656000 1 1.000000 1 -3.000000
441 2 639.924000 -2310.030000 369.042000 1 1.000000 1 -3.000000
442 2 643.732000 -2300.990000 367.770000 1 1.000000 1 -3.000000
443 2 651.338000 -2294.990000 369.910000 1 1.000000 1 -3.000000
444 2 656.755000 -2287.000000 372.075000 1 1.000000 1 -3.000000
445 2 663.217000 -2280.470000 375.976000 1 1.000000 1 -3.000000
446 2 668.658000 -2272.780000 379.148000 1 1.000000 1 -3.000000
447 2 673.786000 -2264.460000 380.824000 1 1.000000 1 -3.000000
448 2 679.538000 -2257.450000 384.936000 1 1.000000 1 -3.000000
449 2 683.163000 -2248.900000 388.265000 1 1.000000 1 -3.000000
450 2 686.535000 -2240.420000 391.702000 1 1.000000 1 -3.000000
451 2 689.060000 -2230.920000 393.499000 1 1.000000 1 -3.000000
452 2 693.169000 -2221.880000 392.978000 1 1.000000 1 -3.000000
453 2 698.600000 -2213.640000 393.519000 1 1.000000 18 -3.000000
454 1 706.263000 -2205.910000 347.540000 1 1.000000 18 0.000000
455 3 683.572000 -2232.570000 347.718000 1 1.000000 18 0.000000
456 2 701.001000 -2215.690000 301.745000 1 1.000000 18 -3.000000
457 2 694.931000 -2223.390000 300.619000 1 1.000000 1 -3.000000
458 2 687.501000 -2229.720000 300.132000 1 1.000000 1 -3.000000
459 2 679.433000 -2235.250000 301.617000 1 1.000000 1 -3.000000
460 2 671.451000 -2240.230000 305.032000 1 1.000000 1 -3.000000
461 2 665.371000 -2246.050000 310.126000 1 1.000000 1 -3.000000
462 2 657.586000 -2251.340000 313.492000 1 1.000000 1 -3.000000
463 2 650.461000 -2258.170000 314.538000 1 1.000000 1 -3.000000
464 2 643.656000 -2265.370000 314.222000 1 1.000000 1 -3.000000
465 2 634.724000 -2269.520000 314.179000 1 1.000000 1 -3.000000