LAMMPS data file

4067 atoms
4067 ellipsoids
4516 bonds
8882 angles
0 dihedrals

3 atom types
5 bond types
12 angle types
0 dihedral types

-4631.092947 4670.465898 xlo xhi
-4631.092947 4670.465898 ylo yhi
-4631.092947 4670.465898 zlo zhi

Masses

1 196016.000000
2 1950.000000
3 19500.000000

Atoms

1 2 430.688000 -3083.390000 589.199000 1 1.000000 1 -3.000000
2 2 436.079000 -3083.930000 580.822000 1 1.000000 1 -3.000000
3 2 440.735000 -3082.720000 572.114000 1 1.000000 1 -3.000000
4 2 448.438000 -3079.630000 566.343000 1 1.000000 1 -3.000000
5 2 456.020000 -3077.340000 560.360000 1 1.000000 1 -3.000000
6 2 462.853000 -3074.350000 553.922000 1 1.000000 1 -3.000000
7 2 466.602000 -3074.940000 544.813000 1 1.000000 1 -3.000000
8 2 470.789000 -3074.440000 535.891000 1 1.000000 1 -3.000000
9 2 474.057000 -3069.520000 527.937000 1 1.000000 1 -3.000000
10 2 474.252000 -3062.050000 521.286000 1 1.000000 1 -3.000000
11 2 473.663000 -3056.270000 513.267000 1 1.000000 1 -3.000000
12 2 471.606000 -3051.770000 504.695000 1 1.000000 1 -3.000000
13 2 470.632000 -3048.360000 495.390000 1 1.000000 1 -3.000000
14 2 469.053000 -3044.110000 486.687000 1 1.000000 1 -3.000000
15 2 469.496000 -3037.720000 479.056000 1 1.000000 1 -3.000000
16 2 468.137000 -3031.240000 471.862000 1 1.000000 1 -3.000000
17 2 465.271000 -3024.750000 464.806000 1 1.000000 1 -3.000000
18 2 462.192000 -3017.890000 458.328000 1 1.000000 1 -3.000000
19 2 455.867000 -3011.050000 454.723000 1 1.000000 1 -3.000000
20 2 449.188000 -3003.940000 453.340000 1 1.000000 1 -3.000000
21 2 442.760000 -2996.980000 450.282000 1 1.000000 2 -3.000000
22 1 457.357000 -2979.050000 409.019000 1 1.000000 2 0.000000
23 3 485.810000 -2995.560000 421.187000 1 1.000000 2 0.000000
24 2 489.522000 -2972.100000 375.196000 1 1.000000 2 -3.000000
25 2 496.092000 -2979.090000 377.823000 1 1.000000 1 -3.000000
26 2 503.332000 -2984.920000 381.305000 1 1.000000 1 -3.000000
27 2 510.233000 -2990.470000 385.676000 1 1.000000 1 -3.000000
28 2 517.729000 -2995.940000 389.201000 1 1.000000 1 -3.000000
29 2 520.877000 -3002.780000 395.640000 1 1.000000 1 -3.000000
30 2 524.789000 -3007.690000 403.499000 1 1.000000 1 -3.000000
31 2 527.385000 -3013.320000 411.118000 1 1.000000 1 -3.000000
32 2 529.341000 -3017.480000 419.727000 1 1.000000 1 -3.000000
33 2 528.832000 -3022.450000 428.348000 1 1.000000 1 -3.000000
34 2 531.202000 -3028.640000 435.699000 1 1.000000 1 -3.000000
35 2 535.859000 -3034.060000 442.538000 1 1.000000 1 -3.000000
36 2 540.998000 -3039.290000 449.120000 1 1.000000 1 -3.000000
37 2 547.403000 -3041.690000 456.377000 1 1.000000 1 -3.000000
38 2 553.998000 -3045.790000 462.540000 1 1.000000 1 -3.000000
39 2 562.420000 -3049.810000 465.938000 1 1.000000 1 -3.000000
40 2 569.873000 -3056.450000 466.058000 1 1.000000 1 -3.000000
41 2 575.476000 -3062.540000 460.537000 1 1.000000 1 -3.000000
42 2 578.365000 -3068.450000 453.143000 1 1.000000 1 -3.000000
43 2 584.659000 -3071.700000 446.056000 1 1.000000 1 -3.000000
44 2 590.596000 -3072.700000 438.322000 1 1.000000 1 -3.000000
45 2 597.886000 -3073.680000 431.599000 1 1.000000 1 -3.000000
46 2 602.386000 -3072.090000 422.933000 1 1.000000 1 -3.000000
47 2 608.949000 -3069.160000 416.224000 1 1.000000 1 -3.000000
48 2 617.173000 -3066.990000 410.896000 1 1.000000 3 -3.000000
49 1 656.286000 -3093.350000 411.720000 1 1.000000 3 0.000000
50 3 643.245000 -3097.780000 443.846000 1 1.000000 3 0.000000
51 2 686.483000 -3123.550000 431.668000 1 1.000000 3 -3.000000
52 2 680.369000 -3122.360000 439.338000 1 1.000000 1 -3.000000
53 2 675.963000 -3125.410000 447.570000 1 1.000000 1 -3.000000
54 2 671.549000 -3127.510000 456.184000 1 1.000000 1 -3.000000
55 2 667.006000 -3127.300000 465.090000 1 1.000000 1 -3.000000
56 2 665.247000 -3125.140000 474.652000 1 1.000000 1 -3.000000
57 2 663.846000 -3122.040000 483.921000 1 1.000000 1 -3.000000
58 2 662.642000 -3118.590000 493.200000 1 1.000000 1 -3.000000
59 2 662.045000 -3113.860000 501.887000 1 1.000000 1 -3.000000
60 2 659.960000 -3110.720000 511.000000 1 1.000000 1 -3.000000
61 2 659.704000 -3107.400000 520.264000 1 1.000000 1 -3.000000
62 2 659.016000 -3100.280000 527.008000 1 1.000000 1 -3.000000
63 2 658.676000 -3093.540000 534.056000 1 1.000000 1 -3.000000
64 2 660.543000 -3086.830000 541.165000 1 1.000000 1 -3.000000
65 2 662.932000 -3080.530000 548.460000 1 1.000000 1 -3.000000
66 2 661.344000 -3074.880000 556.566000 1 1.000000 1 -3.000000
67 2 658.942000 -3069.390000 564.553000 1 1.000000 1 -3.000000
68 2 661.344000 -3064.220000 572.616000 1 1.000000 1 -3.000000
69 2 665.772000 -3059.880000 580.339000 1 1.000000 1 -3.000000
70 2 669.073000 -3059.180000 589.650000 1 1.000000 1 -3.000000
71 2 672.152000 -3059.960000 599.082000 1 1.000000 1 -3.000000
72 2 675.057000 -3060.120000 608.519000 1 1.000000 1 -3.000000
73 2 674.517000 -3058.270000 618.189000 1 1.000000 1 -3.000000
74 2 673.290000 -3058.610000 627.968000 1 1.000000 1 -3.000000
75 2 671.739000 -3057.540000 637.605000 1 1.000000 4 -3.000000
76 1 714.369000 -3040.760000 648.905000 1 1.000000 4 0.000000
77 3 716.854000 -3046.990000 614.566000 1 1.000000 4 0.000000
78 2 758.075000 -3026.180000 638.563000 1 1.000000 4 -3.000000
79 2 756.877000 -3029.070000 629.101000 1 1.000000 1 -3.000000
80 2 758.098000 -3031.240000 619.483000 1 1.000000 1 -3.000000
81 2 760.035000 -3033.980000 610.147000 1 1.000000 1 -3.000000
82 2 760.788000 -3034.880000 600.318000 1 1.000000 1 -3.000000
83 2 762.523000 -3035.370000 590.529000 1 1.000000 1 -3.000000
84 2 766.166000 -3035.560000 581.354000 1 1.000000 1 -3.000000
85 2 773.691000 -3037.640000 575.164000 1 1.000000 1 -3.000000
86 2 780.374000 -3044.340000 572.078000 1 1.000000 1 -3.000000
87 2 784.941000 -3050.540000 565.799000 1 1.000000 1 -3.000000
88 2 789.968000 -3053.770000 557.848000 1 1.000000 1 -3.000000
89 2 796.105000 -3054.920000 550.148000 1 1.000000 1 -3.000000
90 2 803.082000 -3056.320000 543.237000 1 1.000000 1 -3.000000
91 2 806.829000 -3055.200000 534.135000 1 1.000000 1 -3.000000
92 2 811.444000 -3053.550000 525.670000 1 1.000000 1 -3.000000
93 2 817.114000 -3050.260000 518.232000 1 1.000000 1 -3.000000
94 2 823.131000 -3046.960000 510.989000 1 1.000000 1 -3.000000
95 2 829.383000 -3044.690000 503.795000 1 1.000000 1 -3.000000
96 2 835.746000 -3042.500000 496.636000 1 1.000000 1 -3.000000
97 2 843.426000 -3039.790000 491.112000 1 1.000000 1 -3.000000
98 2 852.649000 -3039.470000 487.443000 1 1.000000 1 -3.000000
99 2 861.308000 -3038.250000 482.973000 1 1.000000 1 -3.000000
100 2 868.322000 -3037.880000 476.183000 1 1.000000 1 -3.000000
101 2 874.654000 -3035.750000 468.942000 1 1.000000 1 -3.000000
102 2 880.971000 -3033.460000 461.708000 1 1.000000 5 -3.000000
103 1 855.020000 -3008.670000 431.030000 1 1.000000 5 0.000000
104 3 834.872000 -3009.730000 459.413000 1 1.000000 5 0.000000
105 2 815.938000 -2986.140000 417.307000 1 1.000000 5 -3.000000
106 2 814.510000 -2984.230000 426.837000 1 1.000000 1 -3.000000
107 2 812.025000 -2982.780000 436.356000 1 1.000000 1 -3.000000
108 2 808.003000 -2984.170000 445.188000 1 1.000000 1 -3.000000
109 2 804.262000 -2982.460000 454.145000 1 1.000000 1 -3.000000
110 2 800.272000 -2981.360000 463.034000 1 1.000000 1 -3.000000
111 2 797.266000 -2981.210000 472.429000 1 1.000000 1 -3.000000
112 2 794.225000 -2981.950000 481.941000 1 1.000000 1 -3.000000
113 2 790.879000 -2981.200000 491.139000 1 1.000000 1 -3.000000
114 2 787.925000 -2979.420000 500.500000 1 1.000000 1 -3.000000
115 2 785.425000 -2977.750000 509.972000 1 1.000000 1 -3.000000
116 2 779.694000 -2975.610000 517.973000 1 1.000000 1 -3.000000
117 2 772.874000 -2974.490000 525.104000 1 1.000000 1 -3.000000
118 2 766.405000 -2975.370000 532.605000 1 1.000000 1 -3.000000
119 2 760.403000 -2977.210000 540.293000 1 1.000000 1 -3.000000
120 2 756.560000 -2979.590000 549.132000 1 1.000000 1 -3.000000
121 2 751.352000 -2984.750000 555.772000 1 1.000000 1 -3.000000
122 2 748.405000 -2987.750000 564.714000 1 1.000000 1 -3.000000
123 2 741.025000 -2990.170000 570.933000 1 1.000000 1 -3.000000
124 2 735.525000 -2994.390000 578.030000 1 1.000000 1 -3.000000
125 2 729.913000 -3000.690000 583.250000 1 1.000000 1 -3.000000
126 2 722.717000 -3007.280000 585.181000 1 1.000000 1 -3.000000
127 2 717.109000 -3015.530000 584.010000 1 1.000000 1 -3.000000
128 2 714.589000 -3025.170000 582.651000 1 1.000000 1 -3.000000
129 2 715.161000 -3034.150000 578.635000 1 1.000000 6 -3.000000
130 1 681.308000 -3021.770000 548.112000 1 1.000000 6 0.000000
131 3 697.782000 -2991.530000 554.592000 1 1.000000 6 0.000000
132 2 656.233000 -2990.320000 523.462000 1 1.000000 6 -3.000000
133 2 662.052000 -2982.500000 522.359000 1 1.000000 1 -3.000000
134 2 670.340000 -2977.530000 520.312000 1 1.000000 1 -3.000000
135 2 679.200000 -2973.910000 518.149000 1 1.000000 1 -3.000000
136 2 685.788000 -2966.890000 515.642000 1 1.000000 1 -3.000000
137 2 690.236000 -2958.450000 512.759000 1 1.000000 1 -3.000000
138 2 691.693000 -2949.570000 508.599000 1 1.000000 1 -3.000000
139 2 693.074000 -2940.920000 503.823000 1 1.000000 1 -3.000000
140 2 692.423000 -2936.380000 495.001000 1 1.000000 1 -3.000000
141 2 697.133000 -2931.510000 487.829000 1 1.000000 1 -3.000000
142 2 702.365000 -2929.520000 479.691000 1 1.000000 1 -3.000000
143 2 709.854000 -2925.110000 475.025000 1 1.000000 1 -3.000000
144 2 716.238000 -2917.900000 472.062000 1 1.000000 1 -3.000000
145 2 722.086000 -2912.670000 465.988000 1 1.000000 1 -3.000000
146 2 724.914000 -2906.580000 458.725000 1 1.000000 1 -3.000000
147 2 730.628000 -2900.520000 453.405000 1 1.000000 1 -3.000000
148 2 734.274000 -2894.410000 446.381000 1 1.000000 1 -3.000000
149 2 737.923000 -2888.880000 439.022000 1 1.000000 1 -3.000000
150 2 740.568000 -2880.800000 433.986000 1 1.000000 1 -3.000000
151 2 744.873000 -2875.560000 426.914000 1 1.000000 1 -3.000000
152 2 747.729000 -2868.660000 420.299000 1 1.000000 1 -3.000000
153 2 750.795000 -2860.920000 414.760000 1 1.000000 1 -3.000000
154 2 754.937000 -2856.170000 407.147000 1 1.000000 1 -3.000000
155 2 758.792000 -2852.820000 398.726000 1 1.000000 1 -3.000000
156 2 762.683000 -2848.370000 390.714000 1 1.000000 7 -3.000000
157 1 720.694000 -2845.800000 369.416000 1 1.000000 7 0.000000
158 3 712.525000 -2844.520000 403.391000 1 1.000000 7 0.000000
159 2 673.839000 -2840.310000 368.891000 1 1.000000 7 -3.000000
160 2 671.603000 -2840.790000 378.512000 1 1.000000 1 -3.000000
161 2 668.823000 -2839.020000 387.966000 1 1.000000 1 -3.000000
162 2 670.109000 -2837.360000 397.687000 1 1.000000 1 -3.000000
163 2 672.382000 -2838.640000 407.226000 1 1.000000 1 -3.000000
164 2 673.590000 -2842.300000 416.427000 1 1.000000 1 -3.000000
165 2 671.755000 -2847.610000 424.673000 1 1.000000 1 -3.000000
166 2 667.813000 -2852.110000 432.700000 1 1.000000 1 -3.000000
167 2 667.690000 -2856.580000 441.520000 1 1.000000 1 -3.000000
168 2 663.503000 -2860.550000 449.447000 1 1.000000 1 -3.000000
169 2 657.219000 -2863.700000 456.564000 1 1.000000 1 -3.000000
170 2 651.635000 -2865.280000 464.622000 1 1.000000 1 -3.000000
171 2 644.850000 -2865.260000 471.801000 1 1.000000 1 -3.000000
172 2 637.612000 -2865.630000 478.413000 1 1.000000 1 -3.000000
173 2 634.097000 -2867.120000 487.559000 1 1.000000 1 -3.000000
174 2 631.302000 -2870.760000 496.252000 1 1.000000 1 -3.000000
175 2 628.608000 -2875.230000 504.827000 1 1.000000 1 -3.000000
176 2 627.385000 -2873.910000 514.459000 1 1.000000 1 -3.000000
177 2 627.639000 -2870.480000 523.756000 1 1.000000 1 -3.000000
178 2 625.482000 -2868.800000 533.335000 1 1.000000 1 -3.000000
179 2 623.309000 -2869.450000 542.847000 1 1.000000 1 -3.000000
180 2 621.101000 -2869.820000 552.450000 1 1.000000 1 -3.000000
181 2 618.497000 -2873.810000 561.153000 1 1.000000 1 -3.000000
182 2 617.207000 -2878.220000 569.899000 1 1.000000 1 -3.000000
183 2 616.665000 -2883.610000 578.241000 1 1.000000 8 -3.000000
184 1 662.367000 -2886.900000 589.493000 1 1.000000 8 0.000000
185 3 662.992000 -2872.000000 557.855000 1 1.000000 8 0.000000
186 2 708.354000 -2880.110000 581.658000 1 1.000000 8 -3.000000
187 2 707.199000 -2871.630000 576.708000 1 1.000000 1 -3.000000
188 2 704.983000 -2863.810000 571.213000 1 1.000000 1 -3.000000
189 2 702.326000 -2856.380000 565.233000 1 1.000000 1 -3.000000
190 2 698.918000 -2848.230000 560.628000 1 1.000000 1 -3.000000
191 2 692.379000 -2841.600000 557.537000 1 1.000000 1 -3.000000
192 2 685.803000 -2834.890000 554.431000 1 1.000000 1 -3.000000
193 2 679.919000 -2829.670000 548.332000 1 1.000000 1 -3.000000
194 2 675.396000 -2822.630000 543.056000 1 1.000000 1 -3.000000
195 2 676.358000 -2814.230000 537.903000 1 1.000000 1 -3.000000
196 2 679.720000 -2806.470000 532.933000 1 1.000000 1 -3.000000
197 2 681.793000 -2797.530000 529.122000 1 1.000000 1 -3.000000
198 2 685.140000 -2789.100000 525.204000 1 1.000000 1 -3.000000
199 2 685.886000 -2780.880000 519.636000 1 1.000000 1 -3.000000
200 2 685.832000 -2771.110000 518.235000 1 1.000000 1 -3.000000
201 2 688.797000 -2761.670000 516.642000 1 1.000000 1 -3.000000
202 2 691.432000 -2752.920000 513.194000 1 1.000000 1 -3.000000
203 2 692.593000 -2743.350000 511.109000 1 1.000000 1 -3.000000
204 2 689.616000 -2734.360000 508.592000 1 1.000000 1 -3.000000
205 2 684.718000 -2726.040000 510.591000 1 1.000000 1 -3.000000
206 2 679.645000 -2717.770000 512.206000 1 1.000000 1 -3.000000
207 2 674.910000 -2709.270000 513.782000 1 1.000000 1 -3.000000
208 2 668.618000 -2702.030000 511.132000 1 1.000000 1 -3.000000
209 2 661.424000 -2695.500000 509.254000 1 1.000000 1 -3.000000
210 2 653.722000 -2689.310000 510.332000 1 1.000000 9 -3.000000
211 1 697.678000 -2674.090000 502.442000 1 1.000000 9 0.000000
212 3 702.117000 -2708.160000 509.056000 1 1.000000 9 0.000000
213 2 744.318000 -2680.000000 498.162000 1 1.000000 9 -3.000000
214 2 746.042000 -2689.520000 500.477000 1 1.000000 1 -3.000000
215 2 743.144000 -2698.970000 499.626000 1 1.000000 1 -3.000000
216 2 743.652000 -2708.850000 500.495000 1 1.000000 1 -3.000000
217 2 743.463000 -2717.560000 495.875000 1 1.000000 1 -3.000000
218 2 741.868000 -2726.200000 491.303000 1 1.000000 1 -3.000000
219 2 741.081000 -2735.080000 486.792000 1 1.000000 1 -3.000000
220 2 739.313000 -2744.030000 483.036000 1 1.000000 1 -3.000000
221 2 739.693000 -2753.740000 481.043000 1 1.000000 1 -3.000000
222 2 737.794000 -2763.440000 480.901000 1 1.000000 1 -3.000000
223 2 735.640000 -2772.640000 477.888000 1 1.000000 1 -3.000000
224 2 734.135000 -2782.390000 477.816000 1 1.000000 1 -3.000000
225 2 731.953000 -2791.970000 476.584000 1 1.000000 1 -3.000000
226 2 729.920000 -2801.330000 474.782000 1 1.000000 1 -3.000000
227 2 730.102000 -2811.040000 473.456000 1 1.000000 1 -3.000000
228 2 729.138000 -2820.580000 475.473000 1 1.000000 1 -3.000000
229 2 728.766000 -2830.520000 475.867000 1 1.000000 1 -3.000000
230 2 725.883000 -2839.870000 476.748000 1 1.000000 1 -3.000000
231 2 723.773000 -2849.470000 477.329000 1 1.000000 1 -3.000000
232 2 719.795000 -2857.620000 481.000000 1 1.000000 1 -3.000000
233 2 717.184000 -2865.640000 486.324000 1 1.000000 1 -3.000000
234 2 715.306000 -2872.280000 493.356000 1 1.000000 1 -3.000000
235 2 717.426000 -2878.260000 501.091000 1 1.000000 1 -3.000000
236 2 716.792000 -2883.470000 509.594000 1 1.000000 1 -3.000000
237 2 716.193000 -2889.380000 517.490000 1 1.000000 10 -3.000000
238 1 747.080000 -2865.650000 544.175000 1 1.000000 10 0.000000
239 3 739.534000 -2843.190000 518.287000 1 1.000000 10 0.000000
240 2 773.243000 -2827.940000 554.985000 1 1.000000 10 -3.000000
241 2 771.538000 -2824.940000 545.746000 1 1.000000 1 -3.000000
242 2 771.270000 -2820.270000 537.032000 1 1.000000 1 -3.000000
243 2 770.628000 -2815.340000 528.516000 1 1.000000 1 -3.000000
244 2 769.120000 -2808.840000 521.138000 1 1.000000 1 -3.000000
245 2 768.186000 -2800.660000 515.645000 1 1.000000 1 -3.000000
246 2 771.565000 -2793.360000 509.860000 1 1.000000 1 -3.000000
247 2 775.283000 -2786.550000 503.673000 1 1.000000 1 -3.000000
248 2 779.491000 -2780.570000 496.863000 1 1.000000 1 -3.000000
249 2 782.144000 -2777.470000 487.798000 1 1.000000 1 -3.000000
250 2 784.273000 -2776.840000 477.975000 1 1.000000 1 -3.000000
251 2 786.173000 -2775.950000 468.321000 1 1.000000 1 -3.000000
252 2 787.318000 -2775.950000 458.381000 1 1.000000 1 -3.000000
253 2 787.973000 -2777.240000 448.561000 1 1.000000 1 -3.000000
254 2 790.739000 -2777.140000 439.111000 1 1.000000 1 -3.000000
255 2 792.617000 -2774.400000 429.868000 1 1.000000 1 -3.000000
256 2 796.111000 -2770.390000 421.460000 1 1.000000 1 -3.000000
257 2 798.620000 -2767.230000 412.460000 1 1.000000 1 -3.000000
258 2 802.395000 -2766.610000 403.311000 1 1.000000 1 -3.000000
259 2 808.980000 -2771.040000 397.448000 1 1.000000 1 -3.000000
260 2 813.421000 -2776.740000 390.604000 1 1.000000 1 -3.000000
261 2 818.603000 -2782.310000 384.385000 1 1.000000 1 -3.000000
262 2 826.587000 -2786.290000 380.027000 1 1.000000 1 -3.000000
263 2 835.434000 -2788.620000 376.175000 1 1.000000 1 -3.000000
264 2 844.664000 -2790.670000 373.621000 1 1.000000 11 -3.000000
265 1 830.708000 -2823.890000 343.295000 1 1.000000 11 0.000000
266 3 802.863000 -2802.810000 345.541000 1 1.000000 11 0.000000
267 2 800.740000 -2842.890000 312.182000 1 1.000000 11 -3.000000
268 2 794.132000 -2836.150000 314.755000 1 1.000000 1 -3.000000
269 2 786.517000 -2829.960000 315.420000 1 1.000000 1 -3.000000
270 2 778.624000 -2824.040000 314.378000 1 1.000000 1 -3.000000
271 2 771.418000 -2817.200000 314.777000 1 1.000000 1 -3.000000
272 2 764.300000 -2810.160000 314.655000 1 1.000000 1 -3.000000
273 2 756.685000 -2804.270000 312.855000 1 1.000000 1 -3.000000
274 2 751.303000 -2796.470000 310.315000 1 1.000000 1 -3.000000
275 2 744.261000 -2789.540000 309.126000 1 1.000000 1 -3.000000
276 2 735.740000 -2784.560000 308.335000 1 1.000000 1 -3.000000
277 2 726.985000 -2780.420000 306.302000 1 1.000000 1 -3.000000
278 2 717.902000 -2776.510000 304.714000 1 1.000000 1 -3.000000
279 2 709.160000 -2772.070000 303.217000 1 1.000000 1 -3.000000
280 2 699.877000 -2771.080000 300.178000 1 1.000000 1 -3.000000
281 2 691.006000 -2770.470000 295.700000 1 1.000000 1 -3.000000
282 2 682.393000 -2772.260000 291.141000 1 1.000000 1 -3.000000
283 2 673.242000 -2775.360000 288.855000 1 1.000000 1 -3.000000
284 2 663.601000 -2775.280000 286.594000 1 1.000000 1 -3.000000
285 2 654.196000 -2777.580000 288.708000 1 1.000000 1 -3.000000
286 2 645.418000 -2779.120000 292.816000 1 1.000000 1 -3.000000
287 2 637.799000 -2777.970000 299.114000 1 1.000000 1 -3.000000
288 2 630.016000 -2775.400000 304.841000 1 1.000000 1 -3.000000
289 2 623.008000 -2771.480000 310.857000 1 1.000000 1 -3.000000
290 2 620.303000 -2764.170000 316.846000 1 1.000000 1 -3.000000
291 2 615.520000 -2759.930000 324.420000 1 1.000000 12 -3.000000
292 1 645.686000 -2768.740000 359.750000 1 1.000000 12 0.000000
293 3 666.751000 -2764.400000 332.046000 1 1.000000 12 0.000000
294 2 688.572000 -2777.880000 377.265000 1 1.000000 12 -3.000000
295 2 693.653000 -2773.660000 369.966000 1 1.000000 1 -3.000000
296 2 699.955000 -2768.060000 364.709000 1 1.000000 1 -3.000000
297 2 705.971000 -2764.430000 357.714000 1 1.000000 1 -3.000000
298 2 709.034000 -2757.780000 351.230000 1 1.000000 1 -3.000000
299 2 710.154000 -2752.370000 343.072000 1 1.000000 1 -3.000000
300 2 707.974000 -2747.140000 334.771000 1 1.000000 1 -3.000000
301 2 705.887000 -2742.860000 326.163000 1 1.000000 1 -3.000000
302 2 705.398000 -2736.120000 318.913000 1 1.000000 1 -3.000000
303 2 706.060000 -2727.710000 313.887000 1 1.000000 1 -3.000000
304 2 706.268000 -2717.750000 313.247000 1 1.000000 1 -3.000000
305 2 708.710000 -2709.620000 308.402000 1 1.000000 1 -3.000000
306 2 711.468000 -2704.530000 300.442000 1 1.000000 1 -3.000000
307 2 713.742000 -2700.760000 291.613000 1 1.000000 1 -3.000000
308 2 718.705000 -2702.620000 283.214000 1 1.000000 1 -3.000000
309 2 724.347000 -2702.190000 275.289000 1 1.000000 1 -3.000000
310 2 729.046000 -2699.850000 266.927000 1 1.000000 1 -3.000000
311 2 734.183000 -2696.990000 259.019000 1 1.000000 1 -3.000000
312 2 736.440000 -2696.010000 249.444000 1 1.000000 1 -3.000000
313 2 739.089000 -2694.090000 240.049000 1 1.000000 1 -3.000000
314 2 740.598000 -2693.120000 230.303000 1 1.000000 1 -3.000000
315 2 744.819000 -2688.320000 222.764000 1 1.000000 1 -3.000000
316 2 749.376000 -2684.540000 214.854000 1 1.000000 1 -3.000000
317 2 756.550000 -2679.080000 210.967000 1 1.000000 1 -3.000000
318 2 763.501000 -2677.090000 204.217000 1 1.000000 13 -3.000000
319 1 784.891000 -2643.800000 229.868000 1 1.000000 13 0.000000
320 3 761.954000 -2657.630000 252.391000 1 1.000000 13 0.000000
321 2 791.309000 -2618.440000 269.123000 1 1.000000 13 -3.000000
322 2 785.528000 -2621.840000 276.428000 1 1.000000 1 -3.000000
323 2 777.514000 -2624.940000 281.421000 1 1.000000 1 -3.000000
324 2 770.630000 -2630.190000 286.280000 1 1.000000 1 -3.000000
325 2 765.161000 -2637.060000 290.744000 1 1.000000 1 -3.000000
326 2 760.707000 -2644.160000 295.996000 1 1.000000 1 -3.000000
327 2 757.483000 -2648.180000 304.467000 1 1.000000 1 -3.000000
328 2 757.482000 -2650.940000 313.962000 1 1.000000 1 -3.000000
329 2 758.058000 -2654.440000 323.221000 1 1.000000 1 -3.000000
330 2 758.643000 -2656.630000 332.966000 1 1.000000 1 -3.000000
331 2 758.430000 -2658.740000 342.550000 1 1.000000 1 -3.000000
332 2 758.877000 -2659.980000 352.405000 1 1.000000 1 -3.000000
333 2 760.718000 -2658.380000 362.059000 1 1.000000 1 -3.000000
334 2 763.451000 -2656.720000 371.485000 1 1.000000 1 -3.000000
335 2 766.838000 -2653.590000 380.228000 1 1.000000 1 -3.000000
336 2 771.476000 -2652.180000 388.864000 1 1.000000 1 -3.000000
337 2 776.306000 -2649.170000 396.963000 1 1.000000 1 -3.000000
338 2 782.534000 -2649.960000 404.714000 1 1.000000 1 -3.000000
339 2 787.063000 -2647.420000 413.121000 1 1.000000 1 -3.000000
340 2 791.769000 -2646.070000 421.866000 1 1.000000 1 -3.000000
341 2 797.165000 -2647.450000 430.131000 1 1.000000 1 -3.000000
342 2 802.681000 -2647.090000 438.413000 1 1.000000 1 -3.000000
343 2 806.521000 -2644.690000 447.148000 1 1.000000 1 -3.000000
344 2 809.705000 -2641.720000 455.898000 1 1.000000 1 -3.000000
345 2 814.744000 -2637.690000 463.461000 1 1.000000 14 -3.000000
346 1 775.691000 -2612.280000 471.192000 1 1.000000 14 0.000000
347 3 776.469000 -2615.490000 436.360000 1 1.000000 14 0.000000
348 2 735.392000 -2591.860000 457.787000 1 1.000000 14 -3.000000
349 2 733.346000 -2595.840000 448.990000 1 1.000000 1 -3.000000
350 2 728.628000 -2600.290000 441.520000 1 1.000000 1 -3.000000
351 2 723.947000 -2605.360000 434.486000 1 1.000000 1 -3.000000
352 2 719.601000 -2609.150000 426.595000 1 1.000000 1 -3.000000
353 2 714.858000 -2614.420000 419.804000 1 1.000000 1 -3.000000
354 2 707.725000 -2615.920000 413.192000 1 1.000000 1 -3.000000
355 2 698.916000 -2618.920000 409.475000 1 1.000000 1 -3.000000
356 2 692.322000 -2622.480000 402.979000 1 1.000000 1 -3.000000
357 2 686.589000 -2624.200000 394.991000 1 1.000000 1 -3.000000
358 2 678.848000 -2628.280000 390.226000 1 1.000000 1 -3.000000
359 2 671.031000 -2634.370000 390.137000 1 1.000000 1 -3.000000
360 2 663.792000 -2640.500000 387.898000 1 1.000000 1 -3.000000
361 2 654.224000 -2642.630000 387.706000 1 1.000000 1 -3.000000
362 2 644.916000 -2645.390000 390.100000 1 1.000000 1 -3.000000
363 2 635.336000 -2647.330000 392.285000 1 1.000000 1 -3.000000
364 2 626.140000 -2647.810000 395.903000 1 1.000000 1 -3.000000
365 2 619.490000 -2650.230000 402.830000 1 1.000000 1 -3.000000
366 2 612.987000 -2650.740000 410.134000 1 1.000000 1 -3.000000
367 2 606.224000 -2653.800000 416.684000 1 1.000000 1 -3.000000
368 2 598.783000 -2652.760000 423.143000 1 1.000000 1 -3.000000
369 2 591.711000 -2652.270000 430.097000 1 1.000000 1 -3.000000
370 2 584.054000 -2654.460000 435.905000 1 1.000000 1 -3.000000
371 2 577.112000 -2652.320000 442.738000 1 1.000000 1 -3.000000
372 2 570.938000 -2650.420000 450.266000 1 1.000000 15 -3.000000
373 1 558.067000 -2608.180000 433.391000 1 1.000000 15 0.000000
374 3 574.372000 -2623.190000 406.130000 1 1.000000 15 0.000000
375 2 557.980000 -2574.300000 400.647000 1 1.000000 15 -3.000000
376 2 556.766000 -2580.820000 393.210000 1 1.000000 1 -3.000000
377 2 554.359000 -2585.380000 384.799000 1 1.000000 1 -3.000000
378 2 552.331000 -2587.040000 375.229000 1 1.000000 1 -3.000000
379 2 554.107000 -2588.970000 365.701000 1 1.000000 1 -3.000000
380 2 559.199000 -2591.870000 357.795000 1 1.000000 1 -3.000000
381 2 563.786000 -2595.900000 350.013000 1 1.000000 1 -3.000000
382 2 567.670000 -2596.500000 340.864000 1 1.000000 1 -3.000000
383 2 570.654000 -2596.910000 331.320000 1 1.000000 1 -3.000000
384 2 572.871000 -2598.740000 321.959000 1 1.000000 1 -3.000000
385 2 573.257000 -2604.960000 314.262000 1 1.000000 1 -3.000000
386 2 573.943000 -2610.880000 306.281000 1 1.000000 1 -3.000000
387 2 579.205000 -2614.710000 298.831000 1 1.000000 1 -3.000000
388 2 583.700000 -2619.360000 291.338000 1 1.000000 1 -3.000000
389 2 587.919000 -2625.730000 285.014000 1 1.000000 1 -3.000000
390 2 593.475000 -2629.430000 277.663000 1 1.000000 1 -3.000000
391 2 597.770000 -2634.750000 270.471000 1 1.000000 1 -3.000000
392 2 604.030000 -2638.360000 263.678000 1 1.000000 1 -3.000000
393 2 611.847000 -2641.480000 258.405000 1 1.000000 1 -3.000000
394 2 620.953000 -2643.760000 255.588000 1 1.000000 1 -3.000000
395 2 629.272000 -2647.990000 252.231000 1 1.000000 1 -3.000000
396 2 636.478000 -2654.890000 251.553000 1 1.000000 1 -3.000000
397 2 645.494000 -2656.850000 248.225000 1 1.000000 1 -3.000000
398 2 651.913000 -2659.330000 241.062000 1 1.000000 1 -3.000000
399 2 659.171000 -2661.090000 234.505000 1 1.000000 16 -3.000000
400 1 679.990000 -2619.060000 239.353000 1 1.000000 16 0.000000
401 3 659.047000 -2620.690000 267.100000 1 1.000000 16 0.000000
402 2 686.402000 -2577.180000 260.067000 1 1.000000 16 -3.000000
403 2 678.086000 -2576.820000 265.270000 1 1.000000 1 -3.000000
404 2 669.723000 -2574.790000 270.206000 1 1.000000 1 -3.000000
405 2 663.368000 -2569.320000 275.379000 1 1.000000 1 -3.000000
406 2 658.837000 -2562.810000 281.376000 1 1.000000 1 -3.000000
407 2 657.120000 -2556.650000 288.975000 1 1.000000 1 -3.000000
408 2 653.540000 -2550.350000 295.748000 1 1.000000 1 -3.000000
409 2 655.143000 -2542.460000 301.558000 1 1.000000 1 -3.000000
410 2 658.219000 -2534.370000 306.473000 1 1.000000 1 -3.000000
411 2 661.254000 -2525.050000 307.680000 1 1.000000 1 -3.000000
412 2 666.883000 -2516.930000 308.586000 1 1.000000 1 -3.000000
413 2 673.306000 -2509.640000 306.517000 1 1.000000 1 -3.000000
414 2 678.293000 -2501.170000 306.076000 1 1.000000 1 -3.000000
415 2 683.935000 -2493.000000 305.975000 1 1.000000 1 -3.000000
416 2 690.461000 -2486.340000 309.317000 1 1.000000 1 -3.000000
417 2 695.074000 -2478.730000 313.686000 1 1.000000 1 -3.000000
418 2 701.032000 -2471.680000 317.275000 1 1.000000 1 -3.000000
419 2 704.578000 -2462.690000 319.469000 1 1.000000 1 -3.000000
420 2 708.554000 -2453.840000 318.133000 1 1.000000 1 -3.000000
421 2 714.418000 -2446.300000 315.225000 1 1.000000 1 -3.000000
422 2 720.583000 -2440.030000 310.707000 1 1.000000 1 -3.000000
423 2 727.946000 -2434.590000 306.866000 1 1.000000 1 -3.000000
424 2 735.806000 -2429.210000 303.851000 1 1.000000 1 -3.000000
425 2 744.328000 -2426.220000 299.700000 1 1.000000 1 -3.000000
426 2 752.736000 -2425.130000 294.778000 1 1.000000 17 -3.000000
427 1 755.792000 -2378.510000 301.405000 1 1.000000 17 0.000000
428 3 726.809000 -2387.170000 318.852000 1 1.000000 17 0.000000
429 2 741.778000 -2337.390000 319.600000 1 1.000000 17 -3.000000
430 2 734.904000 -2344.490000 319.420000 1 1.000000 1 -3.000000
431 2 727.865000 -2349.890000 324.053000 1 1.000000 1 -3.000000
432 2 719.295000 -2354.210000 326.162000 1 1.000000 1 -3.000000
433 2 710.852000 -2359.280000 326.141000 1 1.000000 1 -3.000000
434 2 703.887000 -2366.180000 325.222000 1 1.000000 1 -3.000000
435 2 696.552000 -2372.580000 323.969000 1 1.000000 1 -3.000000
436 2 687.619000 -2375.880000 321.183000 1 1.000000 1 -3.000000
437 2 678.843000 -2377.550000 316.814000 1 1.000000 1 -3.000000
438 2 670.455000 -2379.850000 312.114000 1 1.000000 1 -3.000000
439 2 661.724000 -2382.510000 308.366000 1 1.000000 1 -3.000000
440 2 652.400000 -2384.420000 305.819000 1 1.000000 1 -3.000000
441 2 642.977000 -2385.640000 303.001000 1 1.000000 1 -3.000000
442 2 635.445000 -2388.620000 297.271000 1 1.000000 1 -3.000000
443 2 630.321000 -2392.200000 289.450000 1 1.000000 1 -3.000000
444 2 622.847000 -2394.710000 283.465000 1 1.000000 1 -3.000000
445 2 615.866000 -2400.440000 279.373000 1 1.000000 1 -3.000000
446 2 606.997000 -2402.100000 275.276000 1 1.000000 1 -3.000000
447 2 601.273000 -2404.120000 267.401000 1 1.000000 1 -3.000000
448 2 595.906000 -2405.290000 259.142000 1 1.000000 1 -3.000000
449 2 595.571000 -2406.290000 249.315000 1 1.000000 1 -3.000000
450 2 594.512000 -2407.180000 239.444000 1 1.000000 1 -3.000000
451 2 593.909000 -2409.650000 229.843000 1 1.000000 1 -3.000000
452 2 596.521000 -2409.860000 220.165000 1 1.000000 1 -3.000000
453 2 595.927000 -2414.630000 211.528000 1 1.000000 18 -3.000000
454 1 623.433000 -2452.670000 216.102000 1 1.000000 18 0.000000
455 3 620.818000 -2440.770000 248.925000 1 1.000000 18 0.000000
456 2 648.176000 -2484.130000 241.093000 1 1.000000 18 -3.000000
457 2 651.662000 -2478.760000 248.614000 1 1.000000 1 -3.000000
458 2 653.399000 -2475.450000 257.683000 1 1.000000 1 -3.000000
459 2 649.776000 -2471.270000 265.878000 1 1.000000 1 -3.000000
460 2 643.005000 -2468.410000 272.534000 1 1.000000 1 -3.000000
461 2 634.826000 -2467.010000 278.309000 1 1.000000 1 -3.000000
462 2 627.695000 -2465.910000 285.095000 1 1.000000 1 -3.000000
463 2 619.645000 -2466.930000 290.667000 1 1.000000 1 -3.000000
464 2 614.203000 -2466.930000 298.872000 1 1.000000 1 -3.000000
465 2 608.947000 -2464.900000 306.872000 1 1.000000 1 -3.000000