LAMMPS data file

4067 atoms
4067 ellipsoids
4516 bonds
8882 angles
0 dihedrals

3 atom types
5 bond types
12 angle types
0 dihedral types

-4631.092947 4670.465898 xlo xhi
-4631.092947 4670.465898 ylo yhi
-4631.092947 4670.465898 zlo zhi

Masses

1 196016.000000
2 1950.000000
3 19500.000000

Atoms

1 2 945.020000 -3207.770000 374.809000 1 1.000000 1 -3.000000
2 2 936.161000 -3209.170000 379.035000 1 1.000000 1 -3.000000
3 2 929.013000 -3211.310000 385.525000 1 1.000000 1 -3.000000
4 2 921.378000 -3215.110000 390.414000 1 1.000000 1 -3.000000
5 2 912.268000 -3217.650000 392.770000 1 1.000000 1 -3.000000
6 2 903.117000 -3221.180000 393.153000 1 1.000000 1 -3.000000
7 2 895.147000 -3225.280000 397.425000 1 1.000000 1 -3.000000
8 2 887.667000 -3228.230000 403.295000 1 1.000000 1 -3.000000
9 2 879.594000 -3228.870000 408.888000 1 1.000000 1 -3.000000
10 2 870.604000 -3229.520000 413.039000 1 1.000000 1 -3.000000
11 2 863.069000 -3229.690000 419.533000 1 1.000000 1 -3.000000
12 2 856.218000 -3226.560000 426.010000 1 1.000000 1 -3.000000
13 2 850.404000 -3220.750000 431.586000 1 1.000000 1 -3.000000
14 2 842.892000 -3215.360000 435.054000 1 1.000000 1 -3.000000
15 2 834.541000 -3210.900000 437.856000 1 1.000000 1 -3.000000
16 2 824.745000 -3210.010000 439.384000 1 1.000000 1 -3.000000
17 2 815.447000 -3209.750000 442.757000 1 1.000000 1 -3.000000
18 2 808.095000 -3209.490000 449.310000 1 1.000000 1 -3.000000
19 2 798.813000 -3206.820000 451.566000 1 1.000000 1 -3.000000
20 2 790.795000 -3204.320000 456.696000 1 1.000000 1 -3.000000
21 2 781.727000 -3200.330000 457.831000 1 1.000000 2 -3.000000
22 1 807.301000 -3166.080000 477.913000 1 1.000000 2 0.000000
23 3 819.753000 -3167.110000 445.344000 1 1.000000 2 0.000000
24 2 838.500000 -3130.700000 477.069000 1 1.000000 2 -3.000000
25 2 836.298000 -3123.730000 470.399000 1 1.000000 1 -3.000000
26 2 831.889000 -3119.710000 462.433000 1 1.000000 1 -3.000000
27 2 826.821000 -3114.370000 455.842000 1 1.000000 1 -3.000000
28 2 821.325000 -3107.610000 451.246000 1 1.000000 1 -3.000000
29 2 817.802000 -3101.550000 444.152000 1 1.000000 1 -3.000000
30 2 817.733000 -3100.830000 434.392000 1 1.000000 1 -3.000000
31 2 820.209000 -3098.500000 425.016000 1 1.000000 1 -3.000000
32 2 819.797000 -3095.140000 415.791000 1 1.000000 1 -3.000000
33 2 818.745000 -3091.630000 406.538000 1 1.000000 1 -3.000000
34 2 816.001000 -3088.860000 397.470000 1 1.000000 1 -3.000000
35 2 811.183000 -3084.060000 390.236000 1 1.000000 1 -3.000000
36 2 805.887000 -3077.990000 384.231000 1 1.000000 1 -3.000000
37 2 799.282000 -3073.820000 378.112000 1 1.000000 1 -3.000000
38 2 792.911000 -3068.070000 373.160000 1 1.000000 1 -3.000000
39 2 785.777000 -3062.340000 369.458000 1 1.000000 1 -3.000000
40 2 780.083000 -3055.550000 364.894000 1 1.000000 1 -3.000000
41 2 778.875000 -3046.020000 362.868000 1 1.000000 1 -3.000000
42 2 776.255000 -3036.360000 362.471000 1 1.000000 1 -3.000000
43 2 774.318000 -3026.910000 360.604000 1 1.000000 1 -3.000000
44 2 774.151000 -3017.800000 356.750000 1 1.000000 1 -3.000000
45 2 773.180000 -3008.480000 353.697000 1 1.000000 1 -3.000000
46 2 769.076000 -2999.410000 353.773000 1 1.000000 1 -3.000000
47 2 766.204000 -2989.960000 353.221000 1 1.000000 1 -3.000000
48 2 764.498000 -2980.290000 351.825000 1 1.000000 3 -3.000000
49 1 771.988000 -2986.110000 305.660000 1 1.000000 3 0.000000
50 3 756.426000 -3016.030000 314.990000 1 1.000000 3 0.000000
51 2 772.127000 -3011.270000 265.760000 1 1.000000 3 -3.000000
52 2 763.558000 -3015.690000 267.948000 1 1.000000 1 -3.000000
53 2 755.284000 -3021.080000 269.593000 1 1.000000 1 -3.000000
54 2 747.204000 -3026.220000 272.544000 1 1.000000 1 -3.000000
55 2 740.404000 -3031.190000 277.830000 1 1.000000 1 -3.000000
56 2 734.441000 -3036.460000 283.701000 1 1.000000 1 -3.000000
57 2 727.596000 -3040.850000 289.339000 1 1.000000 1 -3.000000
58 2 719.469000 -3044.310000 293.866000 1 1.000000 1 -3.000000
59 2 713.530000 -3044.880000 301.843000 1 1.000000 1 -3.000000
60 2 709.421000 -3045.390000 310.816000 1 1.000000 1 -3.000000
61 2 707.074000 -3046.310000 320.365000 1 1.000000 1 -3.000000
62 2 703.766000 -3047.280000 329.453000 1 1.000000 1 -3.000000
63 2 700.402000 -3045.680000 338.642000 1 1.000000 1 -3.000000
64 2 695.885000 -3046.670000 347.254000 1 1.000000 1 -3.000000
65 2 692.308000 -3045.680000 356.425000 1 1.000000 1 -3.000000
66 2 691.805000 -3047.110000 366.275000 1 1.000000 1 -3.000000
67 2 691.197000 -3051.380000 375.210000 1 1.000000 1 -3.000000
68 2 691.548000 -3056.850000 383.375000 1 1.000000 1 -3.000000
69 2 690.346000 -3059.650000 392.868000 1 1.000000 1 -3.000000
70 2 686.930000 -3058.760000 401.995000 1 1.000000 1 -3.000000
71 2 684.745000 -3058.580000 411.722000 1 1.000000 1 -3.000000
72 2 680.960000 -3058.410000 420.951000 1 1.000000 1 -3.000000
73 2 676.367000 -3057.270000 429.644000 1 1.000000 1 -3.000000
74 2 674.370000 -3059.070000 439.277000 1 1.000000 1 -3.000000
75 2 671.718000 -3060.800000 448.789000 1 1.000000 4 -3.000000
76 1 627.770000 -3063.850000 431.878000 1 1.000000 4 0.000000
77 3 639.603000 -3033.910000 418.147000 1 1.000000 4 0.000000
78 2 591.841000 -3049.490000 404.890000 1 1.000000 4 -3.000000
79 2 597.980000 -3045.150000 398.549000 1 1.000000 1 -3.000000
80 2 604.354000 -3042.220000 391.618000 1 1.000000 1 -3.000000
81 2 609.068000 -3034.760000 387.032000 1 1.000000 1 -3.000000
82 2 612.174000 -3028.260000 380.365000 1 1.000000 1 -3.000000
83 2 614.718000 -3022.030000 373.077000 1 1.000000 1 -3.000000
84 2 614.834000 -3013.720000 367.903000 1 1.000000 1 -3.000000
85 2 617.034000 -3004.980000 364.017000 1 1.000000 1 -3.000000
86 2 619.725000 -2995.580000 365.455000 1 1.000000 1 -3.000000
87 2 625.574000 -2989.730000 370.879000 1 1.000000 1 -3.000000
88 2 633.302000 -2986.270000 376.139000 1 1.000000 1 -3.000000
89 2 641.193000 -2981.360000 380.084000 1 1.000000 1 -3.000000
90 2 648.998000 -2975.950000 382.689000 1 1.000000 1 -3.000000
91 2 657.721000 -2972.330000 385.708000 1 1.000000 1 -3.000000
92 2 666.716000 -2968.800000 387.576000 1 1.000000 1 -3.000000
93 2 674.250000 -2964.250000 391.954000 1 1.000000 1 -3.000000
94 2 680.806000 -2957.670000 395.443000 1 1.000000 1 -3.000000
95 2 688.772000 -2952.080000 397.114000 1 1.000000 1 -3.000000
96 2 694.303000 -2943.970000 398.534000 1 1.000000 1 -3.000000
97 2 698.504000 -2935.710000 401.923000 1 1.000000 1 -3.000000
98 2 700.050000 -2927.710000 407.512000 1 1.000000 1 -3.000000
99 2 700.706000 -2921.440000 415.089000 1 1.000000 1 -3.000000
100 2 698.441000 -2920.630000 424.577000 1 1.000000 1 -3.000000
101 2 697.259000 -2920.800000 434.351000 1 1.000000 1 -3.000000
102 2 695.805000 -2922.280000 444.117000 1 1.000000 5 -3.000000
103 1 733.308000 -2948.990000 454.666000 1 1.000000 5 0.000000
104 3 735.273000 -2945.780000 419.957000 1 1.000000 5 0.000000
105 2 770.959000 -2975.260000 443.743000 1 1.000000 5 -3.000000
106 2 773.113000 -2969.150000 436.265000 1 1.000000 1 -3.000000
107 2 776.573000 -2962.380000 429.841000 1 1.000000 1 -3.000000
108 2 777.253000 -2955.400000 422.877000 1 1.000000 1 -3.000000
109 2 780.186000 -2947.920000 417.215000 1 1.000000 1 -3.000000
110 2 784.538000 -2940.500000 412.262000 1 1.000000 1 -3.000000
111 2 787.919000 -2935.630000 404.346000 1 1.000000 1 -3.000000
112 2 791.362000 -2929.540000 397.368000 1 1.000000 1 -3.000000
113 2 796.588000 -2921.850000 394.530000 1 1.000000 1 -3.000000
114 2 803.148000 -2914.750000 392.307000 1 1.000000 1 -3.000000
115 2 809.394000 -2909.290000 386.935000 1 1.000000 1 -3.000000
116 2 815.891000 -2902.880000 383.333000 1 1.000000 1 -3.000000
117 2 818.672000 -2897.790000 375.280000 1 1.000000 1 -3.000000
118 2 820.891000 -2891.770000 367.878000 1 1.000000 1 -3.000000
119 2 822.654000 -2885.380000 360.394000 1 1.000000 1 -3.000000
120 2 822.673000 -2880.190000 351.941000 1 1.000000 1 -3.000000
121 2 819.914000 -2875.610000 343.609000 1 1.000000 1 -3.000000
122 2 816.677000 -2872.590000 334.690000 1 1.000000 1 -3.000000
123 2 814.296000 -2868.230000 326.211000 1 1.000000 1 -3.000000
124 2 810.520000 -2865.380000 317.560000 1 1.000000 1 -3.000000
125 2 808.796000 -2860.430000 309.127000 1 1.000000 1 -3.000000
126 2 806.091000 -2852.730000 303.519000 1 1.000000 1 -3.000000
127 2 802.539000 -2843.710000 301.351000 1 1.000000 1 -3.000000
128 2 803.709000 -2834.760000 297.499000 1 1.000000 1 -3.000000
129 2 803.580000 -2825.410000 294.469000 1 1.000000 6 -3.000000
130 1 763.470000 -2818.600000 318.299000 1 1.000000 6 0.000000
131 3 782.141000 -2839.380000 339.666000 1 1.000000 6 0.000000
132 2 734.500000 -2825.130000 354.970000 1 1.000000 6 -3.000000
133 2 737.167000 -2832.950000 360.358000 1 1.000000 1 -3.000000
134 2 736.239000 -2841.370000 365.344000 1 1.000000 1 -3.000000
135 2 735.867000 -2851.150000 367.130000 1 1.000000 1 -3.000000
136 2 734.611000 -2860.510000 369.913000 1 1.000000 1 -3.000000
137 2 729.950000 -2868.560000 373.425000 1 1.000000 1 -3.000000
138 2 724.718000 -2875.490000 378.234000 1 1.000000 1 -3.000000
139 2 718.370000 -2881.270000 383.174000 1 1.000000 1 -3.000000
140 2 712.298000 -2884.270000 390.410000 1 1.000000 1 -3.000000
141 2 705.418000 -2885.660000 397.185000 1 1.000000 1 -3.000000
142 2 698.936000 -2886.690000 404.525000 1 1.000000 1 -3.000000
143 2 693.165000 -2888.890000 412.147000 1 1.000000 1 -3.000000
144 2 686.108000 -2889.110000 419.122000 1 1.000000 1 -3.000000
145 2 681.112000 -2887.890000 427.701000 1 1.000000 1 -3.000000
146 2 677.189000 -2886.250000 436.734000 1 1.000000 1 -3.000000
147 2 673.586000 -2883.060000 445.376000 1 1.000000 1 -3.000000
148 2 669.174000 -2881.410000 454.096000 1 1.000000 1 -3.000000
149 2 668.180000 -2882.300000 463.846000 1 1.000000 1 -3.000000
150 2 664.068000 -2880.620000 472.569000 1 1.000000 1 -3.000000
151 2 657.980000 -2880.130000 480.196000 1 1.000000 1 -3.000000
152 2 652.185000 -2882.370000 487.926000 1 1.000000 1 -3.000000
153 2 648.006000 -2887.320000 495.412000 1 1.000000 1 -3.000000
154 2 644.331000 -2891.680000 503.517000 1 1.000000 1 -3.000000
155 2 642.975000 -2894.930000 512.770000 1 1.000000 1 -3.000000
156 2 642.006000 -2897.730000 522.071000 1 1.000000 7 -3.000000
157 1 622.577000 -2858.610000 540.086000 1 1.000000 7 0.000000
158 3 621.812000 -2852.620000 505.532000 1 1.000000 7 0.000000
159 2 607.350000 -2814.000000 536.948000 1 1.000000 7 -3.000000
160 2 603.412000 -2811.610000 528.046000 1 1.000000 1 -3.000000
161 2 598.098000 -2814.510000 520.309000 1 1.000000 1 -3.000000
162 2 593.746000 -2816.810000 511.643000 1 1.000000 1 -3.000000
163 2 590.936000 -2819.690000 502.672000 1 1.000000 1 -3.000000
164 2 588.007000 -2825.220000 494.852000 1 1.000000 1 -3.000000
165 2 584.534000 -2830.440000 487.163000 1 1.000000 1 -3.000000
166 2 581.971000 -2834.130000 478.353000 1 1.000000 1 -3.000000
167 2 581.948000 -2838.950000 469.708000 1 1.000000 1 -3.000000
168 2 582.067000 -2842.270000 460.466000 1 1.000000 1 -3.000000
169 2 579.748000 -2843.450000 450.901000 1 1.000000 1 -3.000000
170 2 573.671000 -2842.770000 443.276000 1 1.000000 1 -3.000000
171 2 566.146000 -2840.440000 437.294000 1 1.000000 1 -3.000000
172 2 559.936000 -2835.850000 431.097000 1 1.000000 1 -3.000000
173 2 556.262000 -2829.930000 423.859000 1 1.000000 1 -3.000000
174 2 552.815000 -2826.230000 415.321000 1 1.000000 1 -3.000000
175 2 548.854000 -2822.490000 406.957000 1 1.000000 1 -3.000000
176 2 543.240000 -2822.100000 398.889000 1 1.000000 1 -3.000000
177 2 540.299000 -2821.120000 389.429000 1 1.000000 1 -3.000000
178 2 535.611000 -2820.350000 380.547000 1 1.000000 1 -3.000000
179 2 533.149000 -2819.630000 370.960000 1 1.000000 1 -3.000000
180 2 526.801000 -2821.160000 363.450000 1 1.000000 1 -3.000000
181 2 522.067000 -2822.480000 354.924000 1 1.000000 1 -3.000000
182 2 516.747000 -2823.340000 346.648000 1 1.000000 1 -3.000000
183 2 512.276000 -2823.300000 337.810000 1 1.000000 8 -3.000000
184 1 473.773000 -2844.590000 354.842000 1 1.000000 8 0.000000
185 3 495.433000 -2844.100000 382.447000 1 1.000000 8 0.000000
186 2 451.261000 -2871.100000 386.891000 1 1.000000 8 -3.000000
187 2 455.941000 -2865.330000 393.360000 1 1.000000 1 -3.000000
188 2 460.158000 -2858.580000 399.327000 1 1.000000 1 -3.000000
189 2 462.884000 -2852.420000 406.613000 1 1.000000 1 -3.000000
190 2 467.993000 -2846.480000 412.685000 1 1.000000 1 -3.000000
191 2 473.692000 -2840.000000 417.739000 1 1.000000 1 -3.000000
192 2 479.240000 -2833.470000 422.781000 1 1.000000 1 -3.000000
193 2 485.650000 -2826.660000 425.897000 1 1.000000 1 -3.000000
194 2 489.765000 -2821.350000 433.305000 1 1.000000 1 -3.000000
195 2 494.141000 -2816.250000 440.603000 1 1.000000 1 -3.000000
196 2 500.839000 -2813.920000 447.675000 1 1.000000 1 -3.000000
197 2 502.157000 -2814.020000 457.561000 1 1.000000 1 -3.000000
198 2 504.122000 -2810.300000 466.595000 1 1.000000 1 -3.000000
199 2 507.263000 -2811.870000 475.824000 1 1.000000 1 -3.000000
200 2 511.493000 -2814.640000 484.320000 1 1.000000 1 -3.000000
201 2 515.010000 -2817.670000 492.928000 1 1.000000 1 -3.000000
202 2 521.349000 -2820.620000 499.987000 1 1.000000 1 -3.000000
203 2 528.656000 -2823.910000 505.902000 1 1.000000 1 -3.000000
204 2 537.765000 -2827.530000 507.784000 1 1.000000 1 -3.000000
205 2 542.421000 -2836.280000 507.770000 1 1.000000 1 -3.000000
206 2 546.826000 -2845.090000 507.102000 1 1.000000 1 -3.000000
207 2 549.231000 -2854.700000 507.797000 1 1.000000 1 -3.000000
208 2 552.571000 -2863.960000 508.465000 1 1.000000 1 -3.000000
209 2 553.265000 -2873.900000 509.000000 1 1.000000 1 -3.000000
210 2 554.457000 -2883.730000 508.183000 1 1.000000 9 -3.000000
211 1 515.258000 -2895.270000 531.870000 1 1.000000 9 0.000000
212 3 511.939000 -2860.690000 526.821000 1 1.000000 9 0.000000
213 2 476.438000 -2884.480000 556.601000 1 1.000000 9 -3.000000
214 2 474.534000 -2876.420000 551.268000 1 1.000000 1 -3.000000
215 2 473.079000 -2866.520000 550.537000 1 1.000000 1 -3.000000
216 2 472.486000 -2856.630000 550.298000 1 1.000000 1 -3.000000
217 2 475.896000 -2847.640000 552.365000 1 1.000000 1 -3.000000
218 2 479.229000 -2838.640000 554.331000 1 1.000000 1 -3.000000
219 2 483.479000 -2829.700000 554.323000 1 1.000000 1 -3.000000
220 2 488.658000 -2821.240000 553.968000 1 1.000000 1 -3.000000
221 2 495.043000 -2813.740000 555.097000 1 1.000000 1 -3.000000
222 2 500.119000 -2805.570000 557.313000 1 1.000000 1 -3.000000
223 2 502.573000 -2796.020000 557.046000 1 1.000000 1 -3.000000
224 2 508.280000 -2788.040000 555.200000 1 1.000000 1 -3.000000
225 2 512.858000 -2779.210000 554.819000 1 1.000000 1 -3.000000
226 2 517.483000 -2770.560000 556.731000 1 1.000000 1 -3.000000
227 2 525.001000 -2765.850000 561.075000 1 1.000000 1 -3.000000
228 2 533.573000 -2764.280000 565.593000 1 1.000000 1 -3.000000
229 2 543.129000 -2764.380000 568.208000 1 1.000000 1 -3.000000
230 2 552.397000 -2765.530000 571.973000 1 1.000000 1 -3.000000
231 2 561.603000 -2764.700000 575.529000 1 1.000000 1 -3.000000
232 2 569.900000 -2766.720000 580.471000 1 1.000000 1 -3.000000
233 2 574.454000 -2772.480000 586.905000 1 1.000000 1 -3.000000
234 2 577.145000 -2776.340000 595.624000 1 1.000000 1 -3.000000
235 2 578.175000 -2780.400000 604.533000 1 1.000000 1 -3.000000
236 2 579.386000 -2786.780000 612.052000 1 1.000000 1 -3.000000
237 2 580.577000 -2794.200000 618.479000 1 1.000000 10 -3.000000
238 1 609.415000 -2765.010000 641.794000 1 1.000000 10 0.000000
239 3 604.120000 -2748.530000 611.379000 1 1.000000 10 0.000000
240 2 633.035000 -2724.470000 647.237000 1 1.000000 10 -3.000000
241 2 628.862000 -2718.760000 640.259000 1 1.000000 1 -3.000000
242 2 621.942000 -2714.950000 634.433000 1 1.000000 1 -3.000000
243 2 614.656000 -2710.120000 629.892000 1 1.000000 1 -3.000000
244 2 607.250000 -2704.640000 625.984000 1 1.000000 1 -3.000000
245 2 598.805000 -2702.370000 621.500000 1 1.000000 1 -3.000000
246 2 590.411000 -2704.130000 616.462000 1 1.000000 1 -3.000000
247 2 586.064000 -2708.720000 608.890000 1 1.000000 1 -3.000000
248 2 578.732000 -2709.160000 602.168000 1 1.000000 1 -3.000000
249 2 571.463000 -2711.170000 595.767000 1 1.000000 1 -3.000000
250 2 562.182000 -2709.830000 592.738000 1 1.000000 1 -3.000000
251 2 552.660000 -2707.550000 594.537000 1 1.000000 1 -3.000000
252 2 543.216000 -2706.750000 597.415000 1 1.000000 1 -3.000000
253 2 535.110000 -2708.050000 602.853000 1 1.000000 1 -3.000000
254 2 526.711000 -2709.050000 608.070000 1 1.000000 1 -3.000000
255 2 520.466000 -2712.870000 614.699000 1 1.000000 1 -3.000000
256 2 513.758000 -2718.900000 618.796000 1 1.000000 1 -3.000000
257 2 509.017000 -2726.410000 623.323000 1 1.000000 1 -3.000000
258 2 510.000000 -2734.190000 629.345000 1 1.000000 1 -3.000000
259 2 511.800000 -2741.960000 635.348000 1 1.000000 1 -3.000000
260 2 516.512000 -2749.090000 640.502000 1 1.000000 1 -3.000000
261 2 521.533000 -2756.450000 644.741000 1 1.000000 1 -3.000000
262 2 527.947000 -2763.520000 647.304000 1 1.000000 1 -3.000000
263 2 533.713000 -2771.420000 648.986000 1 1.000000 1 -3.000000
264 2 538.563000 -2780.020000 650.784000 1 1.000000 11 -3.000000
265 1 534.158000 -2778.600000 697.815000 1 1.000000 11 0.000000
266 3 512.052000 -2753.630000 686.899000 1 1.000000 11 0.000000
267 2 520.712000 -2757.750000 738.053000 1 1.000000 11 -3.000000
268 2 511.965000 -2753.900000 735.961000 1 1.000000 1 -3.000000
269 2 504.528000 -2752.260000 729.687000 1 1.000000 1 -3.000000
270 2 498.810000 -2746.640000 724.056000 1 1.000000 1 -3.000000
271 2 493.128000 -2739.880000 719.554000 1 1.000000 1 -3.000000
272 2 487.612000 -2734.000000 713.690000 1 1.000000 1 -3.000000
273 2 481.264000 -2728.650000 708.431000 1 1.000000 1 -3.000000
274 2 477.519000 -2721.010000 703.400000 1 1.000000 1 -3.000000
275 2 473.775000 -2713.260000 698.463000 1 1.000000 1 -3.000000
276 2 471.519000 -2704.510000 694.302000 1 1.000000 1 -3.000000
277 2 468.834000 -2696.630000 688.879000 1 1.000000 1 -3.000000
278 2 467.669000 -2687.940000 684.374000 1 1.000000 1 -3.000000
279 2 465.001000 -2678.450000 683.438000 1 1.000000 1 -3.000000
280 2 460.821000 -2669.470000 683.402000 1 1.000000 1 -3.000000
281 2 457.923000 -2660.250000 685.759000 1 1.000000 1 -3.000000
282 2 453.326000 -2651.980000 688.754000 1 1.000000 1 -3.000000
283 2 451.494000 -2644.050000 694.254000 1 1.000000 1 -3.000000
284 2 447.887000 -2637.870000 701.058000 1 1.000000 1 -3.000000
285 2 443.938000 -2633.820000 709.225000 1 1.000000 1 -3.000000
286 2 439.533000 -2631.540000 717.769000 1 1.000000 1 -3.000000
287 2 433.274000 -2631.130000 725.471000 1 1.000000 1 -3.000000
288 2 425.863000 -2629.610000 731.586000 1 1.000000 1 -3.000000
289 2 417.975000 -2625.370000 735.877000 1 1.000000 1 -3.000000
290 2 411.681000 -2620.040000 741.360000 1 1.000000 1 -3.000000
291 2 403.879000 -2614.640000 744.217000 1 1.000000 12 -3.000000
292 1 372.435000 -2625.140000 710.550000 1 1.000000 12 0.000000
293 3 401.688000 -2640.940000 699.468000 1 1.000000 12 0.000000
294 2 359.833000 -2642.550000 668.654000 1 1.000000 12 -3.000000
295 2 367.520000 -2648.480000 666.366000 1 1.000000 1 -3.000000
296 2 373.256000 -2653.700000 660.244000 1 1.000000 1 -3.000000
297 2 379.950000 -2657.250000 653.967000 1 1.000000 1 -3.000000
298 2 386.209000 -2661.880000 647.913000 1 1.000000 1 -3.000000
299 2 391.259000 -2665.580000 640.320000 1 1.000000 1 -3.000000
300 2 394.678000 -2669.280000 631.668000 1 1.000000 1 -3.000000
301 2 397.647000 -2672.380000 622.791000 1 1.000000 1 -3.000000
302 2 399.937000 -2673.220000 613.234000 1 1.000000 1 -3.000000
303 2 398.910000 -2674.020000 603.540000 1 1.000000 1 -3.000000
304 2 395.178000 -2673.630000 594.377000 1 1.000000 1 -3.000000
305 2 388.260000 -2670.490000 587.965000 1 1.000000 1 -3.000000
306 2 381.546000 -2666.720000 581.915000 1 1.000000 1 -3.000000
307 2 375.416000 -2664.910000 574.379000 1 1.000000 1 -3.000000
308 2 372.032000 -2663.900000 565.256000 1 1.000000 1 -3.000000
309 2 368.690000 -2659.660000 557.065000 1 1.000000 1 -3.000000
310 2 366.936000 -2653.310000 549.668000 1 1.000000 1 -3.000000
311 2 365.446000 -2648.530000 541.142000 1 1.000000 1 -3.000000
312 2 364.770000 -2646.610000 531.397000 1 1.000000 1 -3.000000
313 2 365.981000 -2644.950000 521.751000 1 1.000000 1 -3.000000
314 2 366.247000 -2646.250000 511.951000 1 1.000000 1 -3.000000
315 2 363.872000 -2646.000000 502.407000 1 1.000000 1 -3.000000
316 2 361.924000 -2645.160000 492.722000 1 1.000000 1 -3.000000
317 2 358.224000 -2644.710000 483.550000 1 1.000000 1 -3.000000
318 2 355.196000 -2646.970000 474.477000 1 1.000000 13 -3.000000
319 1 391.438000 -2668.600000 453.499000 1 1.000000 13 0.000000
320 3 399.108000 -2671.170000 487.532000 1 1.000000 13 0.000000
321 2 431.802000 -2693.160000 453.537000 1 1.000000 13 -3.000000
322 2 433.159000 -2696.050000 462.930000 1 1.000000 1 -3.000000
323 2 432.799000 -2698.210000 472.609000 1 1.000000 1 -3.000000
324 2 432.254000 -2700.670000 482.221000 1 1.000000 1 -3.000000
325 2 432.144000 -2701.410000 492.163000 1 1.000000 1 -3.000000
326 2 433.103000 -2701.330000 502.029000 1 1.000000 1 -3.000000
327 2 438.248000 -2699.770000 510.302000 1 1.000000 1 -3.000000
328 2 444.044000 -2698.350000 518.206000 1 1.000000 1 -3.000000
329 2 451.991000 -2695.890000 523.414000 1 1.000000 1 -3.000000
330 2 460.072000 -2691.160000 526.737000 1 1.000000 1 -3.000000
331 2 468.524000 -2686.300000 528.620000 1 1.000000 1 -3.000000
332 2 476.682000 -2681.410000 531.141000 1 1.000000 1 -3.000000
333 2 482.945000 -2674.310000 534.308000 1 1.000000 1 -3.000000
334 2 489.410000 -2667.870000 538.164000 1 1.000000 1 -3.000000
335 2 496.695000 -2661.320000 539.734000 1 1.000000 1 -3.000000
336 2 503.993000 -2654.880000 541.421000 1 1.000000 1 -3.000000
337 2 512.469000 -2649.800000 543.195000 1 1.000000 1 -3.000000
338 2 520.196000 -2643.940000 544.946000 1 1.000000 1 -3.000000
339 2 527.457000 -2638.740000 549.079000 1 1.000000 1 -3.000000
340 2 533.532000 -2632.980000 554.361000 1 1.000000 1 -3.000000
341 2 540.634000 -2628.230000 559.541000 1 1.000000 1 -3.000000
342 2 548.529000 -2622.410000 561.258000 1 1.000000 1 -3.000000
343 2 554.361000 -2615.420000 565.010000 1 1.000000 1 -3.000000
344 2 559.610000 -2610.330000 571.732000 1 1.000000 1 -3.000000
345 2 566.515000 -2604.300000 575.768000 1 1.000000 14 -3.000000
346 1 594.703000 -2635.610000 596.990000 1 1.000000 14 0.000000
347 3 597.994000 -2643.770000 563.257000 1 1.000000 14 0.000000
348 2 622.758000 -2673.440000 597.859000 1 1.000000 14 -3.000000
349 2 625.566000 -2671.590000 588.564000 1 1.000000 1 -3.000000
350 2 630.264000 -2669.210000 580.172000 1 1.000000 1 -3.000000
351 2 634.616000 -2665.580000 571.998000 1 1.000000 1 -3.000000
352 2 637.280000 -2662.550000 562.910000 1 1.000000 1 -3.000000
353 2 635.545000 -2660.470000 553.461000 1 1.000000 1 -3.000000
354 2 633.953000 -2659.380000 543.703000 1 1.000000 1 -3.000000
355 2 630.183000 -2659.080000 534.537000 1 1.000000 1 -3.000000
356 2 626.797000 -2662.020000 525.717000 1 1.000000 1 -3.000000
357 2 624.461000 -2666.160000 517.110000 1 1.000000 1 -3.000000
358 2 622.043000 -2670.800000 508.770000 1 1.000000 1 -3.000000
359 2 619.040000 -2672.270000 499.536000 1 1.000000 1 -3.000000
360 2 617.706000 -2676.300000 490.552000 1 1.000000 1 -3.000000
361 2 616.010000 -2680.260000 481.636000 1 1.000000 1 -3.000000
362 2 614.813000 -2686.810000 474.226000 1 1.000000 1 -3.000000
363 2 610.287000 -2692.690000 467.644000 1 1.000000 1 -3.000000
364 2 610.348000 -2698.830000 459.943000 1 1.000000 1 -3.000000
365 2 611.101000 -2705.700000 452.877000 1 1.000000 1 -3.000000
366 2 613.486000 -2711.840000 445.555000 1 1.000000 1 -3.000000
367 2 616.458000 -2719.240000 439.617000 1 1.000000 1 -3.000000
368 2 614.369000 -2727.920000 435.521000 1 1.000000 1 -3.000000
369 2 611.892000 -2736.220000 430.784000 1 1.000000 1 -3.000000
370 2 610.062000 -2745.880000 430.243000 1 1.000000 1 -3.000000
371 2 607.694000 -2755.390000 431.559000 1 1.000000 1 -3.000000
372 2 607.363000 -2765.290000 431.808000 1 1.000000 15 -3.000000
373 1 565.846000 -2764.540000 454.189000 1 1.000000 15 0.000000
374 3 573.505000 -2730.590000 450.353000 1 1.000000 15 0.000000
375 2 530.566000 -2742.620000 476.732000 1 1.000000 15 -3.000000
376 2 530.889000 -2733.000000 475.176000 1 1.000000 1 -3.000000
377 2 530.691000 -2723.270000 472.994000 1 1.000000 1 -3.000000
378 2 535.974000 -2714.860000 471.953000 1 1.000000 1 -3.000000
379 2 541.533000 -2706.560000 471.726000 1 1.000000 1 -3.000000
380 2 547.642000 -2700.000000 467.447000 1 1.000000 1 -3.000000
381 2 553.117000 -2694.160000 461.585000 1 1.000000 1 -3.000000
382 2 557.711000 -2688.210000 455.137000 1 1.000000 1 -3.000000
383 2 558.827000 -2681.540000 447.963000 1 1.000000 1 -3.000000
384 2 562.265000 -2675.320000 440.999000 1 1.000000 1 -3.000000
385 2 565.275000 -2671.080000 432.598000 1 1.000000 1 -3.000000
386 2 568.767000 -2666.020000 424.884000 1 1.000000 1 -3.000000
387 2 571.436000 -2661.940000 416.209000 1 1.000000 1 -3.000000
388 2 572.929000 -2655.410000 408.907000 1 1.000000 1 -3.000000
389 2 579.123000 -2649.810000 403.399000 1 1.000000 1 -3.000000
390 2 586.002000 -2646.900000 396.956000 1 1.000000 1 -3.000000
391 2 592.132000 -2645.860000 389.297000 1 1.000000 1 -3.000000
392 2 599.636000 -2647.430000 382.959000 1 1.000000 1 -3.000000
393 2 604.608000 -2652.550000 375.998000 1 1.000000 1 -3.000000
394 2 608.935000 -2657.600000 368.620000 1 1.000000 1 -3.000000
395 2 613.901000 -2660.500000 360.519000 1 1.000000 1 -3.000000
396 2 618.203000 -2662.830000 351.925000 1 1.000000 1 -3.000000
397 2 621.712000 -2665.090000 343.004000 1 1.000000 1 -3.000000
398 2 622.798000 -2669.330000 334.173000 1 1.000000 1 -3.000000
399 2 622.902000 -2675.590000 326.513000 1 1.000000 16 -3.000000
400 1 585.024000 -2661.580000 302.245000 1 1.000000 16 0.000000
401 3 580.125000 -2647.190000 333.709000 1 1.000000 16 0.000000
402 2 543.337000 -2639.900000 297.858000 1 1.000000 16 -3.000000
403 2 547.990000 -2634.680000 305.029000 1 1.000000 1 -3.000000
404 2 552.070000 -2630.610000 313.055000 1 1.000000 1 -3.000000
405 2 550.890000 -2622.570000 318.501000 1 1.000000 1 -3.000000
406 2 548.402000 -2615.830000 325.256000 1 1.000000 1 -3.000000
407 2 549.596000 -2606.130000 326.921000 1 1.000000 1 -3.000000
408 2 551.969000 -2596.630000 325.606000 1 1.000000 1 -3.000000
409 2 556.934000 -2588.070000 326.771000 1 1.000000 1 -3.000000
410 2 562.138000 -2579.850000 328.094000 1 1.000000 1 -3.000000
411 2 566.244000 -2570.910000 328.628000 1 1.000000 1 -3.000000
412 2 569.755000 -2561.730000 326.701000 1 1.000000 1 -3.000000
413 2 573.532000 -2552.770000 324.249000 1 1.000000 1 -3.000000
414 2 579.932000 -2545.240000 323.517000 1 1.000000 1 -3.000000
415 2 588.502000 -2540.780000 321.168000 1 1.000000 1 -3.000000
416 2 597.203000 -2537.000000 318.352000 1 1.000000 1 -3.000000
417 2 605.053000 -2533.930000 313.309000 1 1.000000 1 -3.000000
418 2 611.997000 -2531.630000 306.596000 1 1.000000 1 -3.000000
419 2 618.014000 -2532.020000 298.787000 1 1.000000 1 -3.000000
420 2 625.346000 -2531.660000 292.037000 1 1.000000 1 -3.000000
421 2 631.243000 -2531.850000 284.180000 1 1.000000 1 -3.000000
422 2 636.622000 -2528.530000 276.493000 1 1.000000 1 -3.000000
423 2 642.004000 -2525.220000 268.758000 1 1.000000 1 -3.000000
424 2 647.272000 -2521.140000 261.455000 1 1.000000 1 -3.000000
425 2 651.771000 -2520.170000 252.816000 1 1.000000 1 -3.000000
426 2 659.273000 -2523.670000 247.427000 1 1.000000 17 -3.000000
427 1 683.962000 -2488.400000 266.871000 1 1.000000 17 0.000000
428 3 653.362000 -2487.030000 283.669000 1 1.000000 17 0.000000
429 2 690.339000 -2453.390000 297.798000 1 1.000000 17 -3.000000
430 2 683.466000 -2457.580000 303.617000 1 1.000000 1 -3.000000
431 2 679.157000 -2462.780000 310.857000 1 1.000000 1 -3.000000
432 2 672.577000 -2465.400000 317.687000 1 1.000000 1 -3.000000
433 2 665.208000 -2470.490000 322.041000 1 1.000000 1 -3.000000
434 2 657.535000 -2474.650000 326.739000 1 1.000000 1 -3.000000
435 2 648.960000 -2476.580000 331.097000 1 1.000000 1 -3.000000
436 2 642.083000 -2480.500000 337.102000 1 1.000000 1 -3.000000
437 2 635.009000 -2484.060000 342.949000 1 1.000000 1 -3.000000
438 2 626.501000 -2488.850000 344.935000 1 1.000000 1 -3.000000
439 2 617.148000 -2491.700000 346.425000 1 1.000000 1 -3.000000
440 2 607.399000 -2492.980000 345.664000 1 1.000000 1 -3.000000
441 2 597.479000 -2492.750000 346.160000 1 1.000000 1 -3.000000
442 2 587.945000 -2492.660000 343.370000 1 1.000000 1 -3.000000
443 2 578.823000 -2495.140000 340.471000 1 1.000000 1 -3.000000
444 2 569.602000 -2498.060000 338.133000 1 1.000000 1 -3.000000
445 2 559.793000 -2499.440000 336.803000 1 1.000000 1 -3.000000
446 2 550.695000 -2503.210000 335.855000 1 1.000000 1 -3.000000
447 2 542.317000 -2507.770000 334.191000 1 1.000000 1 -3.000000
448 2 533.668000 -2511.030000 330.588000 1 1.000000 1 -3.000000
449 2 525.814000 -2516.890000 328.441000 1 1.000000 1 -3.000000
450 2 517.075000 -2521.430000 327.456000 1 1.000000 1 -3.000000
451 2 509.268000 -2527.250000 325.726000 1 1.000000 1 -3.000000
452 2 501.826000 -2533.700000 325.804000 1 1.000000 1 -3.000000
453 2 495.191000 -2541.050000 325.255000 1 1.000000 18 -3.000000
454 1 457.324000 -2527.570000 349.848000 1 1.000000 18 0.000000
455 3 477.235000 -2498.720000 349.215000 1 1.000000 18 0.000000
456 2 431.178000 -2496.110000 373.402000 1 1.000000 18 -3.000000
457 2 436.432000 -2488.160000 370.501000 1 1.000000 1 -3.000000
458 2 441.588000 -2480.390000 367.224000 1 1.000000 1 -3.000000
459 2 445.367000 -2471.270000 366.289000 1 1.000000 1 -3.000000
460 2 450.227000 -2463.400000 362.917000 1 1.000000 1 -3.000000
461 2 453.837000 -2454.630000 360.202000 1 1.000000 1 -3.000000
462 2 454.381000 -2445.170000 357.113000 1 1.000000 1 -3.000000
463 2 455.459000 -2437.540000 351.083000 1 1.000000 1 -3.000000
464 2 457.416000 -2429.020000 346.510000 1 1.000000 1 -3.000000
465 2 457.837000 -2419.660000 343.424000 1 1.000000 1 -3.000000