LAMMPS data file

4067 atoms
4067 ellipsoids
4516 bonds
8882 angles
0 dihedrals

3 atom types
5 bond types
12 angle types
0 dihedral types

-4631.092947 4670.465898 xlo xhi
-4631.092947 4670.465898 ylo yhi
-4631.092947 4670.465898 zlo zhi

Masses

1 196016.000000
2 1950.000000
3 19500.000000

Atoms

1 2 358.999000 -2961.790000 491.095000 1 1.000000 1 -3.000000
2 2 361.471000 -2969.200000 497.171000 1 1.000000 1 -3.000000
3 2 362.669000 -2977.280000 502.727000 1 1.000000 1 -3.000000
4 2 368.331000 -2983.790000 507.551000 1 1.000000 1 -3.000000
5 2 375.340000 -2986.570000 514.000000 1 1.000000 1 -3.000000
6 2 384.748000 -2987.800000 516.444000 1 1.000000 1 -3.000000
7 2 394.111000 -2988.160000 519.917000 1 1.000000 1 -3.000000
8 2 401.799000 -2987.430000 526.013000 1 1.000000 1 -3.000000
9 2 407.954000 -2987.830000 533.691000 1 1.000000 1 -3.000000
10 2 412.924000 -2986.870000 542.131000 1 1.000000 1 -3.000000
11 2 416.217000 -2981.970000 550.122000 1 1.000000 1 -3.000000
12 2 421.784000 -2979.180000 557.954000 1 1.000000 1 -3.000000
13 2 423.951000 -2976.270000 567.197000 1 1.000000 1 -3.000000
14 2 426.189000 -2974.890000 576.767000 1 1.000000 1 -3.000000
15 2 427.374000 -2973.320000 586.523000 1 1.000000 1 -3.000000
16 2 428.309000 -2970.190000 595.810000 1 1.000000 1 -3.000000
17 2 428.260000 -2966.880000 604.949000 1 1.000000 1 -3.000000
18 2 427.301000 -2962.860000 614.007000 1 1.000000 1 -3.000000
19 2 425.023000 -2961.270000 623.435000 1 1.000000 1 -3.000000
20 2 424.718000 -2956.410000 632.047000 1 1.000000 1 -3.000000
21 2 423.150000 -2950.820000 640.074000 1 1.000000 2 -3.000000
22 1 458.407000 -2978.320000 655.070000 1 1.000000 2 0.000000
23 3 451.384000 -2990.980000 623.047000 1 1.000000 2 0.000000
24 2 488.712000 -3014.260000 650.737000 1 1.000000 2 -3.000000
25 2 487.853000 -3016.380000 641.266000 1 1.000000 1 -3.000000
26 2 488.189000 -3018.070000 631.489000 1 1.000000 1 -3.000000
27 2 485.157000 -3018.240000 622.117000 1 1.000000 1 -3.000000
28 2 483.271000 -3017.310000 612.436000 1 1.000000 1 -3.000000
29 2 482.188000 -3016.650000 602.706000 1 1.000000 1 -3.000000
30 2 477.628000 -3017.630000 593.953000 1 1.000000 1 -3.000000
31 2 473.240000 -3018.810000 585.073000 1 1.000000 1 -3.000000
32 2 471.408000 -3018.780000 575.475000 1 1.000000 1 -3.000000
33 2 467.944000 -3020.090000 566.261000 1 1.000000 1 -3.000000
34 2 467.285000 -3023.070000 556.906000 1 1.000000 1 -3.000000
35 2 468.720000 -3025.650000 547.565000 1 1.000000 1 -3.000000
36 2 468.799000 -3029.880000 538.546000 1 1.000000 1 -3.000000
37 2 470.131000 -3036.380000 531.124000 1 1.000000 1 -3.000000
38 2 471.954000 -3042.050000 523.250000 1 1.000000 1 -3.000000
39 2 472.654000 -3047.040000 514.757000 1 1.000000 1 -3.000000
40 2 472.527000 -3048.980000 504.964000 1 1.000000 1 -3.000000
41 2 471.357000 -3054.200000 496.643000 1 1.000000 1 -3.000000
42 2 472.035000 -3058.160000 487.601000 1 1.000000 1 -3.000000
43 2 470.908000 -3063.780000 479.361000 1 1.000000 1 -3.000000
44 2 469.320000 -3065.460000 469.851000 1 1.000000 1 -3.000000
45 2 468.163000 -3068.260000 460.398000 1 1.000000 1 -3.000000
46 2 466.605000 -3073.170000 452.042000 1 1.000000 1 -3.000000
47 2 468.483000 -3077.670000 443.524000 1 1.000000 1 -3.000000
48 2 465.769000 -3079.850000 434.270000 1 1.000000 3 -3.000000
49 1 500.216000 -3056.310000 412.350000 1 1.000000 3 0.000000
50 3 506.937000 -3050.690000 446.259000 1 1.000000 3 0.000000
51 2 536.931000 -3026.700000 411.242000 1 1.000000 3 -3.000000
52 2 540.665000 -3028.110000 420.259000 1 1.000000 1 -3.000000
53 2 542.939000 -3029.080000 429.790000 1 1.000000 1 -3.000000
54 2 545.527000 -3030.770000 439.209000 1 1.000000 1 -3.000000
55 2 547.547000 -3035.990000 447.389000 1 1.000000 1 -3.000000
56 2 549.390000 -3041.780000 455.256000 1 1.000000 1 -3.000000
57 2 548.814000 -3045.950000 464.144000 1 1.000000 1 -3.000000
58 2 550.976000 -3048.400000 473.444000 1 1.000000 1 -3.000000
59 2 554.335000 -3046.430000 482.453000 1 1.000000 1 -3.000000
60 2 560.337000 -3046.280000 490.224000 1 1.000000 1 -3.000000
61 2 566.063000 -3046.820000 498.257000 1 1.000000 1 -3.000000
62 2 571.089000 -3046.680000 506.837000 1 1.000000 1 -3.000000
63 2 573.257000 -3048.870000 516.225000 1 1.000000 1 -3.000000
64 2 577.750000 -3049.000000 524.959000 1 1.000000 1 -3.000000
65 2 583.195000 -3048.140000 533.174000 1 1.000000 1 -3.000000
66 2 587.911000 -3050.520000 541.561000 1 1.000000 1 -3.000000
67 2 592.958000 -3051.940000 549.994000 1 1.000000 1 -3.000000
68 2 597.862000 -3055.150000 558.009000 1 1.000000 1 -3.000000
69 2 604.458000 -3056.260000 565.297000 1 1.000000 1 -3.000000
70 2 610.677000 -3054.530000 572.888000 1 1.000000 1 -3.000000
71 2 618.981000 -3050.130000 576.087000 1 1.000000 1 -3.000000
72 2 627.962000 -3046.140000 575.035000 1 1.000000 1 -3.000000
73 2 636.591000 -3041.310000 574.824000 1 1.000000 1 -3.000000
74 2 643.212000 -3033.920000 574.893000 1 1.000000 1 -3.000000
75 2 649.480000 -3026.630000 576.955000 1 1.000000 4 -3.000000
76 1 687.915000 -3053.920000 576.106000 1 1.000000 4 0.000000
77 3 664.786000 -3071.990000 556.975000 1 1.000000 4 0.000000
78 2 712.550000 -3091.620000 562.108000 1 1.000000 4 -3.000000
79 2 707.606000 -3093.420000 553.824000 1 1.000000 1 -3.000000
80 2 702.143000 -3095.050000 545.771000 1 1.000000 1 -3.000000
81 2 697.434000 -3094.650000 537.108000 1 1.000000 1 -3.000000
82 2 692.214000 -3094.650000 528.701000 1 1.000000 1 -3.000000
83 2 689.515000 -3093.200000 519.412000 1 1.000000 1 -3.000000
84 2 688.384000 -3087.290000 511.368000 1 1.000000 1 -3.000000
85 2 690.975000 -3080.690000 504.428000 1 1.000000 1 -3.000000
86 2 694.010000 -3073.620000 497.928000 1 1.000000 1 -3.000000
87 2 694.566000 -3065.150000 492.911000 1 1.000000 1 -3.000000
88 2 693.737000 -3055.340000 491.275000 1 1.000000 1 -3.000000
89 2 691.856000 -3045.790000 489.023000 1 1.000000 1 -3.000000
90 2 694.038000 -3036.280000 490.270000 1 1.000000 1 -3.000000
91 2 698.239000 -3027.340000 490.544000 1 1.000000 1 -3.000000
92 2 702.371000 -3018.420000 490.157000 1 1.000000 1 -3.000000
93 2 707.331000 -3009.860000 490.697000 1 1.000000 1 -3.000000
94 2 713.821000 -3002.460000 492.170000 1 1.000000 1 -3.000000
95 2 718.644000 -2994.090000 493.739000 1 1.000000 1 -3.000000
96 2 723.856000 -2986.270000 496.864000 1 1.000000 1 -3.000000
97 2 728.817000 -2977.570000 497.322000 1 1.000000 1 -3.000000
98 2 734.434000 -2970.830000 502.085000 1 1.000000 1 -3.000000
99 2 740.731000 -2965.550000 507.654000 1 1.000000 1 -3.000000
100 2 749.404000 -2963.500000 512.237000 1 1.000000 1 -3.000000
101 2 757.657000 -2961.950000 517.399000 1 1.000000 1 -3.000000
102 2 766.766000 -2960.400000 521.293000 1 1.000000 5 -3.000000
103 1 758.951000 -2914.690000 529.824000 1 1.000000 5 0.000000
104 3 727.261000 -2926.650000 520.716000 1 1.000000 5 0.000000
105 2 731.933000 -2876.150000 532.706000 1 1.000000 5 -3.000000
106 2 723.544000 -2880.860000 535.217000 1 1.000000 1 -3.000000
107 2 715.798000 -2886.700000 537.174000 1 1.000000 1 -3.000000
108 2 708.481000 -2892.750000 540.069000 1 1.000000 1 -3.000000
109 2 700.267000 -2897.870000 542.225000 1 1.000000 1 -3.000000
110 2 693.418000 -2904.810000 543.724000 1 1.000000 1 -3.000000
111 2 689.605000 -2913.530000 540.791000 1 1.000000 1 -3.000000
112 2 684.394000 -2919.290000 534.759000 1 1.000000 1 -3.000000
113 2 680.689000 -2925.500000 528.009000 1 1.000000 1 -3.000000
114 2 678.174000 -2934.190000 523.997000 1 1.000000 1 -3.000000
115 2 675.697000 -2941.280000 517.718000 1 1.000000 1 -3.000000
116 2 669.532000 -2946.280000 511.821000 1 1.000000 1 -3.000000
117 2 661.481000 -2949.690000 507.054000 1 1.000000 1 -3.000000
118 2 654.136000 -2952.600000 501.089000 1 1.000000 1 -3.000000
119 2 647.815000 -2956.040000 494.306000 1 1.000000 1 -3.000000
120 2 642.897000 -2960.590000 487.053000 1 1.000000 1 -3.000000
121 2 639.362000 -2965.730000 479.424000 1 1.000000 1 -3.000000
122 2 639.204000 -2971.370000 471.303000 1 1.000000 1 -3.000000
123 2 637.180000 -2974.560000 462.158000 1 1.000000 1 -3.000000
124 2 634.235000 -2975.700000 452.798000 1 1.000000 1 -3.000000
125 2 632.309000 -2973.860000 443.182000 1 1.000000 1 -3.000000
126 2 630.134000 -2977.050000 434.037000 1 1.000000 1 -3.000000
127 2 623.552000 -2980.590000 427.646000 1 1.000000 1 -3.000000
128 2 616.744000 -2981.680000 420.524000 1 1.000000 1 -3.000000
129 2 610.418000 -2986.220000 414.404000 1 1.000000 6 -3.000000
130 1 571.787000 -2978.020000 440.233000 1 1.000000 6 0.000000
131 3 594.761000 -2955.000000 453.160000 1 1.000000 6 0.000000
132 2 546.405000 -2953.830000 471.826000 1 1.000000 6 -3.000000
133 2 551.176000 -2945.190000 471.684000 1 1.000000 1 -3.000000
134 2 558.701000 -2939.200000 474.271000 1 1.000000 1 -3.000000
135 2 566.328000 -2933.930000 477.579000 1 1.000000 1 -3.000000
136 2 573.392000 -2927.520000 480.443000 1 1.000000 1 -3.000000
137 2 581.846000 -2922.410000 479.884000 1 1.000000 1 -3.000000
138 2 589.018000 -2915.860000 477.831000 1 1.000000 1 -3.000000
139 2 592.516000 -2906.770000 476.304000 1 1.000000 1 -3.000000
140 2 597.677000 -2899.650000 471.675000 1 1.000000 1 -3.000000
141 2 599.286000 -2893.390000 464.243000 1 1.000000 1 -3.000000
142 2 599.487000 -2885.080000 459.027000 1 1.000000 1 -3.000000
143 2 599.416000 -2875.750000 455.727000 1 1.000000 1 -3.000000
144 2 600.792000 -2866.100000 454.250000 1 1.000000 1 -3.000000
145 2 603.365000 -2856.710000 453.510000 1 1.000000 1 -3.000000
146 2 606.903000 -2847.620000 454.799000 1 1.000000 1 -3.000000
147 2 606.843000 -2837.700000 454.442000 1 1.000000 1 -3.000000
148 2 609.375000 -2828.030000 453.269000 1 1.000000 1 -3.000000
149 2 608.132000 -2818.340000 452.612000 1 1.000000 1 -3.000000
150 2 606.245000 -2808.690000 451.708000 1 1.000000 1 -3.000000
151 2 603.712000 -2799.570000 454.761000 1 1.000000 1 -3.000000
152 2 599.857000 -2791.240000 458.825000 1 1.000000 1 -3.000000
153 2 593.873000 -2784.060000 461.976000 1 1.000000 1 -3.000000
154 2 587.209000 -2776.860000 463.541000 1 1.000000 1 -3.000000
155 2 580.672000 -2769.420000 463.177000 1 1.000000 1 -3.000000
156 2 574.176000 -2762.140000 464.559000 1 1.000000 7 -3.000000
157 1 592.612000 -2737.200000 428.885000 1 1.000000 7 0.000000
158 3 601.353000 -2770.220000 420.985000 1 1.000000 7 0.000000
159 2 618.809000 -2732.290000 389.968000 1 1.000000 7 -3.000000
160 2 616.659000 -2741.440000 386.636000 1 1.000000 1 -3.000000
161 2 615.234000 -2750.470000 382.749000 1 1.000000 1 -3.000000
162 2 610.282000 -2758.470000 379.718000 1 1.000000 1 -3.000000
163 2 605.349000 -2766.970000 379.350000 1 1.000000 1 -3.000000
164 2 601.059000 -2775.400000 376.485000 1 1.000000 1 -3.000000
165 2 594.374000 -2781.740000 372.722000 1 1.000000 1 -3.000000
166 2 589.101000 -2789.990000 371.355000 1 1.000000 1 -3.000000
167 2 586.426000 -2798.250000 366.679000 1 1.000000 1 -3.000000
168 2 584.516000 -2806.920000 362.091000 1 1.000000 1 -3.000000
169 2 582.317000 -2816.350000 360.505000 1 1.000000 1 -3.000000
170 2 578.110000 -2825.340000 361.279000 1 1.000000 1 -3.000000
171 2 577.665000 -2835.200000 361.029000 1 1.000000 1 -3.000000
172 2 574.463000 -2844.350000 362.975000 1 1.000000 1 -3.000000
173 2 571.200000 -2852.900000 366.440000 1 1.000000 1 -3.000000
174 2 566.613000 -2861.540000 368.146000 1 1.000000 1 -3.000000
175 2 562.482000 -2870.630000 368.306000 1 1.000000 1 -3.000000
176 2 558.591000 -2879.750000 369.579000 1 1.000000 1 -3.000000
177 2 556.685000 -2889.320000 371.580000 1 1.000000 1 -3.000000
178 2 553.497000 -2898.200000 374.395000 1 1.000000 1 -3.000000
179 2 545.859000 -2904.390000 375.829000 1 1.000000 1 -3.000000
180 2 536.986000 -2908.630000 376.027000 1 1.000000 1 -3.000000
181 2 528.417000 -2913.640000 376.007000 1 1.000000 1 -3.000000
182 2 518.595000 -2915.480000 376.148000 1 1.000000 1 -3.000000
183 2 509.017000 -2916.090000 378.532000 1 1.000000 8 -3.000000
184 1 486.772000 -2884.940000 350.986000 1 1.000000 8 0.000000
185 3 520.655000 -2878.090000 345.282000 1 1.000000 8 0.000000
186 2 485.460000 -2849.000000 320.394000 1 1.000000 8 -3.000000
187 2 494.622000 -2845.320000 320.497000 1 1.000000 1 -3.000000
188 2 504.003000 -2843.980000 317.495000 1 1.000000 1 -3.000000
189 2 513.099000 -2845.630000 314.293000 1 1.000000 1 -3.000000
190 2 522.373000 -2848.420000 312.442000 1 1.000000 1 -3.000000
191 2 531.005000 -2847.290000 307.841000 1 1.000000 1 -3.000000
192 2 539.207000 -2842.290000 305.251000 1 1.000000 1 -3.000000
193 2 547.252000 -2837.870000 301.481000 1 1.000000 1 -3.000000
194 2 556.530000 -2834.310000 302.120000 1 1.000000 1 -3.000000
195 2 566.332000 -2834.030000 301.948000 1 1.000000 1 -3.000000
196 2 576.006000 -2835.010000 299.597000 1 1.000000 1 -3.000000
197 2 585.359000 -2833.120000 296.965000 1 1.000000 1 -3.000000
198 2 592.487000 -2827.950000 292.302000 1 1.000000 1 -3.000000
199 2 600.719000 -2823.600000 289.312000 1 1.000000 1 -3.000000
200 2 606.168000 -2816.390000 285.264000 1 1.000000 1 -3.000000
201 2 610.595000 -2808.650000 280.965000 1 1.000000 1 -3.000000
202 2 614.135000 -2802.640000 273.913000 1 1.000000 1 -3.000000
203 2 618.176000 -2798.580000 265.887000 1 1.000000 1 -3.000000
204 2 619.736000 -2794.240000 257.117000 1 1.000000 1 -3.000000
205 2 622.251000 -2791.180000 248.014000 1 1.000000 1 -3.000000
206 2 625.518000 -2790.240000 238.831000 1 1.000000 1 -3.000000
207 2 628.982000 -2789.800000 229.541000 1 1.000000 1 -3.000000
208 2 634.194000 -2786.750000 221.779000 1 1.000000 1 -3.000000
209 2 637.635000 -2784.800000 212.937000 1 1.000000 1 -3.000000
210 2 640.057000 -2785.260000 203.445000 1 1.000000 9 -3.000000
211 1 598.475000 -2770.440000 186.608000 1 1.000000 9 0.000000
212 3 598.315000 -2759.010000 219.747000 1 1.000000 9 0.000000
213 2 558.366000 -2745.700000 189.330000 1 1.000000 9 -3.000000
214 2 562.851000 -2742.480000 197.544000 1 1.000000 1 -3.000000
215 2 566.066000 -2739.710000 206.545000 1 1.000000 1 -3.000000
216 2 570.954000 -2734.260000 213.145000 1 1.000000 1 -3.000000
217 2 573.942000 -2727.470000 219.680000 1 1.000000 1 -3.000000
218 2 576.905000 -2719.440000 224.707000 1 1.000000 1 -3.000000
219 2 580.102000 -2710.400000 227.473000 1 1.000000 1 -3.000000
220 2 582.255000 -2702.380000 232.804000 1 1.000000 1 -3.000000
221 2 586.615000 -2694.580000 236.871000 1 1.000000 1 -3.000000
222 2 590.134000 -2689.100000 244.236000 1 1.000000 1 -3.000000
223 2 593.761000 -2684.880000 252.319000 1 1.000000 1 -3.000000
224 2 596.463000 -2679.610000 260.233000 1 1.000000 1 -3.000000
225 2 600.617000 -2675.230000 268.154000 1 1.000000 1 -3.000000
226 2 605.961000 -2673.330000 276.157000 1 1.000000 1 -3.000000
227 2 611.227000 -2674.410000 284.317000 1 1.000000 1 -3.000000
228 2 618.986000 -2674.670000 290.493000 1 1.000000 1 -3.000000
229 2 627.801000 -2675.580000 294.824000 1 1.000000 1 -3.000000
230 2 636.261000 -2676.490000 300.023000 1 1.000000 1 -3.000000
231 2 643.244000 -2675.960000 307.013000 1 1.000000 1 -3.000000
232 2 649.984000 -2678.860000 313.611000 1 1.000000 1 -3.000000
233 2 656.194000 -2686.210000 315.796000 1 1.000000 1 -3.000000
234 2 661.389000 -2693.640000 320.034000 1 1.000000 1 -3.000000
235 2 665.974000 -2701.730000 323.491000 1 1.000000 1 -3.000000
236 2 669.252000 -2708.530000 329.730000 1 1.000000 1 -3.000000
237 2 673.282000 -2713.490000 337.381000 1 1.000000 10 -3.000000
238 1 636.022000 -2742.420000 335.864000 1 1.000000 10 0.000000
239 3 630.729000 -2721.160000 308.602000 1 1.000000 10 0.000000
240 2 595.550000 -2758.180000 317.452000 1 1.000000 10 -3.000000
241 2 588.796000 -2751.020000 315.361000 1 1.000000 1 -3.000000
242 2 582.866000 -2743.990000 311.989000 1 1.000000 1 -3.000000
243 2 576.439000 -2739.830000 305.747000 1 1.000000 1 -3.000000
244 2 570.493000 -2733.280000 301.123000 1 1.000000 1 -3.000000
245 2 564.117000 -2726.820000 297.270000 1 1.000000 1 -3.000000
246 2 559.708000 -2719.770000 292.005000 1 1.000000 1 -3.000000
247 2 552.348000 -2715.450000 287.084000 1 1.000000 1 -3.000000
248 2 546.286000 -2711.640000 280.076000 1 1.000000 1 -3.000000
249 2 543.995000 -2705.840000 272.390000 1 1.000000 1 -3.000000
250 2 540.005000 -2700.480000 265.041000 1 1.000000 1 -3.000000
251 2 536.925000 -2694.840000 257.714000 1 1.000000 1 -3.000000
252 2 533.240000 -2687.240000 252.383000 1 1.000000 1 -3.000000
253 2 527.288000 -2682.100000 246.315000 1 1.000000 1 -3.000000
254 2 520.630000 -2677.040000 241.009000 1 1.000000 1 -3.000000
255 2 513.552000 -2671.130000 237.236000 1 1.000000 1 -3.000000
256 2 506.136000 -2667.010000 232.133000 1 1.000000 1 -3.000000
257 2 500.218000 -2659.730000 228.890000 1 1.000000 1 -3.000000
258 2 494.824000 -2653.110000 223.745000 1 1.000000 1 -3.000000
259 2 492.249000 -2645.490000 218.045000 1 1.000000 1 -3.000000
260 2 489.675000 -2637.800000 212.415000 1 1.000000 1 -3.000000
261 2 490.011000 -2628.170000 210.282000 1 1.000000 1 -3.000000
262 2 487.152000 -2619.520000 206.518000 1 1.000000 1 -3.000000
263 2 485.096000 -2610.570000 202.718000 1 1.000000 1 -3.000000
264 2 485.657000 -2601.670000 198.374000 1 1.000000 11 -3.000000
265 1 445.419000 -2594.490000 221.985000 1 1.000000 11 0.000000
266 3 459.913000 -2621.530000 238.824000 1 1.000000 11 0.000000
267 2 413.383000 -2605.050000 254.932000 1 1.000000 11 -3.000000
268 2 421.045000 -2606.930000 260.831000 1 1.000000 1 -3.000000
269 2 427.595000 -2610.300000 267.453000 1 1.000000 1 -3.000000
270 2 435.112000 -2611.150000 273.943000 1 1.000000 1 -3.000000
271 2 442.870000 -2612.040000 279.896000 1 1.000000 1 -3.000000
272 2 450.185000 -2616.020000 285.342000 1 1.000000 1 -3.000000
273 2 459.610000 -2618.420000 286.901000 1 1.000000 1 -3.000000
274 2 469.378000 -2620.190000 286.676000 1 1.000000 1 -3.000000
275 2 479.183000 -2620.200000 286.322000 1 1.000000 1 -3.000000
276 2 489.028000 -2621.610000 285.460000 1 1.000000 1 -3.000000
277 2 498.733000 -2620.240000 285.831000 1 1.000000 1 -3.000000
278 2 508.018000 -2622.340000 288.090000 1 1.000000 1 -3.000000
279 2 516.854000 -2624.720000 291.952000 1 1.000000 1 -3.000000
280 2 525.917000 -2626.660000 295.333000 1 1.000000 1 -3.000000
281 2 535.656000 -2628.130000 296.413000 1 1.000000 1 -3.000000
282 2 544.113000 -2630.330000 301.002000 1 1.000000 1 -3.000000
283 2 552.305000 -2632.530000 305.956000 1 1.000000 1 -3.000000
284 2 561.806000 -2633.680000 308.265000 1 1.000000 1 -3.000000
285 2 571.159000 -2636.690000 309.230000 1 1.000000 1 -3.000000
286 2 580.355000 -2639.940000 310.850000 1 1.000000 1 -3.000000
287 2 589.368000 -2642.580000 313.941000 1 1.000000 1 -3.000000
288 2 595.958000 -2646.060000 320.233000 1 1.000000 1 -3.000000
289 2 601.992000 -2650.610000 326.521000 1 1.000000 1 -3.000000
290 2 605.740000 -2657.070000 333.029000 1 1.000000 1 -3.000000
291 2 609.825000 -2664.600000 337.931000 1 1.000000 12 -3.000000
292 1 588.008000 -2654.150000 378.470000 1 1.000000 12 0.000000
293 3 568.208000 -2638.170000 354.353000 1 1.000000 12 0.000000
294 2 555.040000 -2632.200000 404.177000 1 1.000000 12 -3.000000
295 2 548.049000 -2630.650000 397.409000 1 1.000000 1 -3.000000
296 2 542.168000 -2627.300000 390.137000 1 1.000000 1 -3.000000
297 2 536.139000 -2626.980000 382.306000 1 1.000000 1 -3.000000
298 2 530.832000 -2626.710000 373.885000 1 1.000000 1 -3.000000
299 2 526.193000 -2624.490000 365.412000 1 1.000000 1 -3.000000
300 2 522.711000 -2626.320000 356.503000 1 1.000000 1 -3.000000
301 2 517.793000 -2629.450000 348.448000 1 1.000000 1 -3.000000
302 2 513.622000 -2634.410000 341.065000 1 1.000000 1 -3.000000
303 2 507.930000 -2638.900000 334.193000 1 1.000000 1 -3.000000
304 2 501.748000 -2642.350000 327.443000 1 1.000000 1 -3.000000
305 2 493.528000 -2644.310000 322.290000 1 1.000000 1 -3.000000
306 2 484.911000 -2646.340000 318.008000 1 1.000000 1 -3.000000
307 2 476.242000 -2650.090000 315.159000 1 1.000000 1 -3.000000
308 2 468.234000 -2655.010000 312.068000 1 1.000000 1 -3.000000
309 2 460.601000 -2659.450000 307.501000 1 1.000000 1 -3.000000
310 2 455.546000 -2664.780000 300.737000 1 1.000000 1 -3.000000
311 2 449.337000 -2668.720000 294.264000 1 1.000000 1 -3.000000
312 2 444.722000 -2672.630000 286.460000 1 1.000000 1 -3.000000
313 2 440.160000 -2678.060000 279.482000 1 1.000000 1 -3.000000
314 2 435.447000 -2684.770000 273.929000 1 1.000000 1 -3.000000
315 2 428.208000 -2690.650000 270.095000 1 1.000000 1 -3.000000
316 2 423.933000 -2697.900000 264.885000 1 1.000000 1 -3.000000
317 2 420.153000 -2706.960000 262.741000 1 1.000000 1 -3.000000
318 2 418.813000 -2716.560000 260.796000 1 1.000000 13 -3.000000
319 1 402.522000 -2732.450000 302.211000 1 1.000000 13 0.000000
320 3 421.296000 -2704.340000 311.078000 1 1.000000 13 0.000000
321 2 395.100000 -2728.880000 348.712000 1 1.000000 13 -3.000000
322 2 401.109000 -2721.870000 352.077000 1 1.000000 1 -3.000000
323 2 405.332000 -2713.620000 355.424000 1 1.000000 1 -3.000000
324 2 408.577000 -2704.240000 355.606000 1 1.000000 1 -3.000000
325 2 412.285000 -2695.410000 353.115000 1 1.000000 1 -3.000000
326 2 414.762000 -2686.270000 350.474000 1 1.000000 1 -3.000000
327 2 418.311000 -2677.550000 347.531000 1 1.000000 1 -3.000000
328 2 418.281000 -2667.850000 345.643000 1 1.000000 1 -3.000000
329 2 417.496000 -2658.050000 344.651000 1 1.000000 1 -3.000000
330 2 417.217000 -2648.180000 344.640000 1 1.000000 1 -3.000000
331 2 423.632000 -2640.650000 345.880000 1 1.000000 1 -3.000000
332 2 428.091000 -2633.990000 351.758000 1 1.000000 1 -3.000000
333 2 432.624000 -2628.000000 358.253000 1 1.000000 1 -3.000000
334 2 440.147000 -2622.810000 362.137000 1 1.000000 1 -3.000000
335 2 447.740000 -2616.910000 364.317000 1 1.000000 1 -3.000000
336 2 453.527000 -2609.340000 367.068000 1 1.000000 1 -3.000000
337 2 460.299000 -2602.360000 368.860000 1 1.000000 1 -3.000000
338 2 467.755000 -2596.950000 372.323000 1 1.000000 1 -3.000000
339 2 474.720000 -2591.380000 376.517000 1 1.000000 1 -3.000000
340 2 481.693000 -2588.730000 383.000000 1 1.000000 1 -3.000000
341 2 489.471000 -2587.800000 389.128000 1 1.000000 1 -3.000000
342 2 496.563000 -2586.510000 395.793000 1 1.000000 1 -3.000000
343 2 501.737000 -2586.650000 404.239000 1 1.000000 1 -3.000000
344 2 507.188000 -2586.510000 412.649000 1 1.000000 1 -3.000000
345 2 509.321000 -2590.200000 421.617000 1 1.000000 14 -3.000000
346 1 498.063000 -2546.620000 435.738000 1 1.000000 14 0.000000
347 3 492.515000 -2545.360000 401.268000 1 1.000000 14 0.000000
348 2 483.427000 -2502.370000 428.813000 1 1.000000 14 -3.000000
349 2 482.425000 -2504.250000 419.033000 1 1.000000 1 -3.000000
350 2 482.372000 -2505.800000 409.142000 1 1.000000 1 -3.000000
351 2 479.496000 -2506.420000 399.671000 1 1.000000 1 -3.000000
352 2 474.603000 -2510.290000 392.022000 1 1.000000 1 -3.000000
353 2 470.773000 -2514.630000 383.993000 1 1.000000 1 -3.000000
354 2 464.639000 -2516.360000 376.386000 1 1.000000 1 -3.000000
355 2 458.096000 -2517.430000 369.033000 1 1.000000 1 -3.000000
356 2 449.945000 -2517.350000 363.246000 1 1.000000 1 -3.000000
357 2 443.626000 -2516.550000 355.675000 1 1.000000 1 -3.000000
358 2 437.413000 -2516.200000 347.959000 1 1.000000 1 -3.000000
359 2 434.868000 -2519.210000 338.772000 1 1.000000 1 -3.000000
360 2 431.863000 -2520.940000 329.537000 1 1.000000 1 -3.000000
361 2 429.219000 -2526.210000 321.623000 1 1.000000 1 -3.000000
362 2 427.779000 -2532.110000 313.920000 1 1.000000 1 -3.000000
363 2 423.402000 -2539.890000 309.364000 1 1.000000 1 -3.000000
364 2 417.863000 -2547.550000 306.775000 1 1.000000 1 -3.000000
365 2 410.811000 -2554.310000 305.249000 1 1.000000 1 -3.000000
366 2 403.541000 -2560.810000 303.895000 1 1.000000 1 -3.000000
367 2 396.092000 -2566.740000 300.923000 1 1.000000 1 -3.000000
368 2 390.491000 -2572.920000 295.704000 1 1.000000 1 -3.000000
369 2 386.591000 -2580.780000 290.990000 1 1.000000 1 -3.000000
370 2 383.501000 -2587.430000 284.530000 1 1.000000 1 -3.000000
371 2 377.808000 -2591.490000 277.453000 1 1.000000 1 -3.000000
372 2 371.135000 -2595.540000 271.434000 1 1.000000 15 -3.000000
373 1 355.080000 -2556.890000 249.615000 1 1.000000 15 0.000000
374 3 383.854000 -2545.610000 265.791000 1 1.000000 15 0.000000
375 2 356.336000 -2511.070000 238.620000 1 1.000000 15 -3.000000
376 2 365.620000 -2510.630000 241.759000 1 1.000000 1 -3.000000
377 2 374.651000 -2508.140000 244.778000 1 1.000000 1 -3.000000
378 2 384.417000 -2506.580000 245.112000 1 1.000000 1 -3.000000
379 2 393.433000 -2509.560000 247.987000 1 1.000000 1 -3.000000
380 2 402.929000 -2512.000000 249.247000 1 1.000000 1 -3.000000
381 2 412.070000 -2512.180000 253.241000 1 1.000000 1 -3.000000
382 2 421.982000 -2513.110000 254.651000 1 1.000000 1 -3.000000
383 2 431.189000 -2516.560000 253.538000 1 1.000000 1 -3.000000
384 2 440.998000 -2517.730000 252.761000 1 1.000000 1 -3.000000
385 2 450.259000 -2515.670000 255.507000 1 1.000000 1 -3.000000
386 2 458.864000 -2512.390000 259.409000 1 1.000000 1 -3.000000
387 2 467.550000 -2508.880000 262.656000 1 1.000000 1 -3.000000
388 2 476.013000 -2504.430000 265.362000 1 1.000000 1 -3.000000
389 2 483.001000 -2498.090000 268.211000 1 1.000000 1 -3.000000
390 2 491.428000 -2492.810000 269.008000 1 1.000000 1 -3.000000
391 2 500.365000 -2489.710000 266.311000 1 1.000000 1 -3.000000
392 2 508.804000 -2490.060000 261.150000 1 1.000000 1 -3.000000
393 2 515.232000 -2495.780000 256.514000 1 1.000000 1 -3.000000
394 2 518.938000 -2504.380000 253.232000 1 1.000000 1 -3.000000
395 2 522.136000 -2513.080000 249.978000 1 1.000000 1 -3.000000
396 2 525.193000 -2522.450000 249.221000 1 1.000000 1 -3.000000
397 2 528.735000 -2531.540000 247.498000 1 1.000000 1 -3.000000
398 2 533.600000 -2540.070000 247.150000 1 1.000000 1 -3.000000
399 2 539.552000 -2547.790000 245.624000 1 1.000000 16 -3.000000
400 1 518.779000 -2553.120000 203.598000 1 1.000000 16 0.000000
401 3 524.622000 -2518.720000 205.374000 1 1.000000 16 0.000000
402 2 504.934000 -2537.720000 161.213000 1 1.000000 16 -3.000000
403 2 508.210000 -2528.680000 163.609000 1 1.000000 1 -3.000000
404 2 510.403000 -2519.390000 166.823000 1 1.000000 1 -3.000000
405 2 509.016000 -2509.880000 169.441000 1 1.000000 1 -3.000000
406 2 510.292000 -2500.330000 171.637000 1 1.000000 1 -3.000000
407 2 508.496000 -2490.680000 170.530000 1 1.000000 1 -3.000000
408 2 507.080000 -2481.070000 168.849000 1 1.000000 1 -3.000000
409 2 503.525000 -2472.010000 167.020000 1 1.000000 1 -3.000000
410 2 503.226000 -2462.780000 163.419000 1 1.000000 1 -3.000000
411 2 502.457000 -2455.140000 157.104000 1 1.000000 1 -3.000000
412 2 502.461000 -2446.660000 151.985000 1 1.000000 1 -3.000000
413 2 504.362000 -2436.900000 151.684000 1 1.000000 1 -3.000000
414 2 506.253000 -2427.140000 151.854000 1 1.000000 1 -3.000000
415 2 508.674000 -2417.720000 154.022000 1 1.000000 1 -3.000000
416 2 511.922000 -2408.640000 155.934000 1 1.000000 1 -3.000000
417 2 518.694000 -2402.020000 158.653000 1 1.000000 1 -3.000000
418 2 525.524000 -2395.130000 160.077000 1 1.000000 1 -3.000000
419 2 533.388000 -2389.150000 160.524000 1 1.000000 1 -3.000000
420 2 541.485000 -2383.770000 160.827000 1 1.000000 1 -3.000000
421 2 548.134000 -2377.020000 163.401000 1 1.000000 1 -3.000000
422 2 555.426000 -2371.410000 167.137000 1 1.000000 1 -3.000000
423 2 563.868000 -2366.310000 168.259000 1 1.000000 1 -3.000000
424 2 572.729000 -2362.060000 169.325000 1 1.000000 1 -3.000000
425 2 581.577000 -2358.720000 166.397000 1 1.000000 1 -3.000000
426 2 589.449000 -2355.280000 161.520000 1 1.000000 17 -3.000000
427 1 614.672000 -2385.670000 187.272000 1 1.000000 17 0.000000
428 3 582.506000 -2399.240000 188.011000 1 1.000000 17 0.000000
429 2 620.249000 -2424.630000 213.237000 1 1.000000 17 -3.000000
430 2 610.992000 -2425.110000 216.720000 1 1.000000 1 -3.000000
431 2 601.659000 -2427.340000 219.067000 1 1.000000 1 -3.000000
432 2 592.817000 -2431.050000 216.789000 1 1.000000 1 -3.000000
433 2 583.564000 -2434.530000 215.954000 1 1.000000 1 -3.000000
434 2 573.946000 -2436.010000 214.321000 1 1.000000 1 -3.000000
435 2 564.304000 -2433.890000 213.220000 1 1.000000 1 -3.000000
436 2 555.859000 -2429.540000 210.319000 1 1.000000 1 -3.000000
437 2 550.161000 -2421.840000 207.578000 1 1.000000 1 -3.000000
438 2 544.744000 -2413.860000 206.037000 1 1.000000 1 -3.000000
439 2 540.243000 -2405.050000 206.111000 1 1.000000 1 -3.000000
440 2 537.715000 -2395.480000 206.698000 1 1.000000 1 -3.000000
441 2 535.469000 -2385.940000 207.694000 1 1.000000 1 -3.000000
442 2 531.670000 -2376.850000 207.828000 1 1.000000 1 -3.000000
443 2 525.729000 -2369.450000 204.719000 1 1.000000 1 -3.000000
444 2 522.633000 -2362.000000 198.892000 1 1.000000 1 -3.000000
445 2 517.450000 -2356.050000 192.875000 1 1.000000 1 -3.000000
446 2 514.043000 -2350.480000 185.450000 1 1.000000 1 -3.000000
447 2 507.456000 -2345.070000 180.494000 1 1.000000 1 -3.000000
448 2 500.974000 -2340.220000 174.880000 1 1.000000 1 -3.000000
449 2 496.499000 -2332.370000 170.801000 1 1.000000 1 -3.000000
450 2 492.114000 -2324.760000 166.367000 1 1.000000 1 -3.000000
451 2 488.177000 -2320.530000 158.261000 1 1.000000 1 -3.000000
452 2 484.868000 -2317.700000 149.306000 1 1.000000 1 -3.000000
453 2 481.213000 -2316.460000 140.198000 1 1.000000 18 -3.000000
454 1 453.292000 -2285.020000 161.591000 1 1.000000 18 0.000000
455 3 467.399000 -2302.880000 188.147000 1 1.000000 18 0.000000
456 2 434.198000 -2264.570000 199.521000 1 1.000000 18 -3.000000
457 2 440.255000 -2269.780000 205.578000 1 1.000000 1 -3.000000
458 2 447.946000 -2272.290000 211.095000 1 1.000000 1 -3.000000
459 2 456.942000 -2273.750000 214.941000 1 1.000000 1 -3.000000
460 2 466.150000 -2276.500000 217.354000 1 1.000000 1 -3.000000
461 2 472.546000 -2279.320000 224.381000 1 1.000000 1 -3.000000
462 2 479.068000 -2281.940000 231.329000 1 1.000000 1 -3.000000
463 2 483.647000 -2285.000000 239.559000 1 1.000000 1 -3.000000
464 2 488.638000 -2290.360000 246.268000 1 1.000000 1 -3.000000
465 2 493.447000 -2297.530000 251.116000 1 1.000000 1 -3.000000