LAMMPS data file

4067 atoms
4067 ellipsoids
4516 bonds
8882 angles
0 dihedrals

3 atom types
5 bond types
12 angle types
0 dihedral types

-4631.092947 4670.465898 xlo xhi
-4631.092947 4670.465898 ylo yhi
-4631.092947 4670.465898 zlo zhi

Masses

1 196016.000000
2 1950.000000
3 19500.000000

Atoms

1 2 461.022000 -2990.380000 453.041000 1 1.000000 1 -3.000000
2 2 460.239000 -2987.650000 462.519000 1 1.000000 1 -3.000000
3 2 459.750000 -2985.540000 472.113000 1 1.000000 1 -3.000000
4 2 459.599000 -2984.470000 481.968000 1 1.000000 1 -3.000000
5 2 457.924000 -2982.920000 491.731000 1 1.000000 1 -3.000000
6 2 455.009000 -2982.680000 501.210000 1 1.000000 1 -3.000000
7 2 452.215000 -2981.620000 510.689000 1 1.000000 1 -3.000000
8 2 449.337000 -2979.380000 519.872000 1 1.000000 1 -3.000000
9 2 453.598000 -2976.930000 528.461000 1 1.000000 1 -3.000000
10 2 457.366000 -2977.670000 537.592000 1 1.000000 1 -3.000000
11 2 458.376000 -2980.330000 547.145000 1 1.000000 1 -3.000000
12 2 459.288000 -2984.040000 556.253000 1 1.000000 1 -3.000000
13 2 461.608000 -2986.920000 565.336000 1 1.000000 1 -3.000000
14 2 464.851000 -2987.940000 574.554000 1 1.000000 1 -3.000000
15 2 464.218000 -2989.200000 584.448000 1 1.000000 1 -3.000000
16 2 462.561000 -2990.030000 594.181000 1 1.000000 1 -3.000000
17 2 458.383000 -2991.260000 603.032000 1 1.000000 1 -3.000000
18 2 456.032000 -2994.260000 612.204000 1 1.000000 1 -3.000000
19 2 452.012000 -2997.480000 620.833000 1 1.000000 1 -3.000000
20 2 448.117000 -2996.770000 629.856000 1 1.000000 1 -3.000000
21 2 443.586000 -2996.450000 638.591000 1 1.000000 2 -3.000000
22 1 400.993000 -3013.360000 627.048000 1 1.000000 2 0.000000
23 3 417.636000 -3011.320000 596.336000 1 1.000000 2 0.000000
24 2 369.382000 -3030.840000 596.650000 1 1.000000 2 -3.000000
25 2 374.162000 -3028.780000 588.226000 1 1.000000 1 -3.000000
26 2 378.038000 -3029.550000 579.157000 1 1.000000 1 -3.000000
27 2 383.583000 -3027.530000 571.244000 1 1.000000 1 -3.000000
28 2 390.613000 -3025.200000 564.420000 1 1.000000 1 -3.000000
29 2 399.000000 -3024.330000 559.029000 1 1.000000 1 -3.000000
30 2 408.350000 -3024.810000 555.465000 1 1.000000 1 -3.000000
31 2 417.242000 -3025.670000 551.269000 1 1.000000 1 -3.000000
32 2 426.400000 -3027.870000 548.087000 1 1.000000 1 -3.000000
33 2 434.786000 -3028.960000 542.735000 1 1.000000 1 -3.000000
34 2 442.827000 -3030.250000 537.022000 1 1.000000 1 -3.000000
35 2 450.837000 -3033.430000 532.105000 1 1.000000 1 -3.000000
36 2 456.862000 -3039.590000 527.067000 1 1.000000 1 -3.000000
37 2 459.199000 -3048.870000 524.047000 1 1.000000 1 -3.000000
38 2 459.070000 -3058.700000 522.526000 1 1.000000 1 -3.000000
39 2 459.310000 -3068.300000 520.259000 1 1.000000 1 -3.000000
40 2 456.669000 -3077.870000 520.737000 1 1.000000 1 -3.000000
41 2 455.676000 -3087.670000 519.856000 1 1.000000 1 -3.000000
42 2 453.411000 -3097.240000 520.357000 1 1.000000 1 -3.000000
43 2 451.685000 -3106.370000 523.631000 1 1.000000 1 -3.000000
44 2 450.740000 -3115.450000 527.226000 1 1.000000 1 -3.000000
45 2 450.590000 -3123.920000 532.233000 1 1.000000 1 -3.000000
46 2 448.347000 -3132.390000 536.879000 1 1.000000 1 -3.000000
47 2 446.310000 -3141.250000 540.912000 1 1.000000 1 -3.000000
48 2 448.250000 -3148.930000 546.825000 1 1.000000 3 -3.000000
49 1 452.028000 -3178.840000 510.489000 1 1.000000 3 0.000000
50 3 453.044000 -3147.390000 495.201000 1 1.000000 3 0.000000
51 2 459.894000 -3189.080000 465.028000 1 1.000000 3 -3.000000
52 2 464.238000 -3180.430000 463.056000 1 1.000000 1 -3.000000
53 2 466.126000 -3170.790000 461.745000 1 1.000000 1 -3.000000
54 2 469.576000 -3161.690000 459.771000 1 1.000000 1 -3.000000
55 2 469.265000 -3151.830000 459.842000 1 1.000000 1 -3.000000
56 2 471.647000 -3142.510000 457.899000 1 1.000000 1 -3.000000
57 2 475.784000 -3133.850000 456.458000 1 1.000000 1 -3.000000
58 2 482.401000 -3126.410000 455.738000 1 1.000000 1 -3.000000
59 2 489.513000 -3119.480000 455.148000 1 1.000000 1 -3.000000
60 2 494.919000 -3112.310000 450.963000 1 1.000000 1 -3.000000
61 2 501.008000 -3105.760000 446.649000 1 1.000000 1 -3.000000
62 2 503.072000 -3099.120000 439.574000 1 1.000000 1 -3.000000
63 2 505.081000 -3095.140000 430.683000 1 1.000000 1 -3.000000
64 2 505.264000 -3093.850000 420.969000 1 1.000000 1 -3.000000
65 2 507.616000 -3095.830000 411.621000 1 1.000000 1 -3.000000
66 2 508.966000 -3099.060000 402.357000 1 1.000000 1 -3.000000
67 2 507.839000 -3103.980000 393.900000 1 1.000000 1 -3.000000
68 2 505.974000 -3109.820000 385.942000 1 1.000000 1 -3.000000
69 2 502.876000 -3115.260000 378.272000 1 1.000000 1 -3.000000
70 2 501.488000 -3123.540000 373.145000 1 1.000000 1 -3.000000
71 2 500.943000 -3131.770000 367.635000 1 1.000000 1 -3.000000
72 2 496.695000 -3137.860000 361.182000 1 1.000000 1 -3.000000
73 2 493.263000 -3143.500000 353.812000 1 1.000000 1 -3.000000
74 2 490.471000 -3148.640000 345.792000 1 1.000000 1 -3.000000
75 2 489.016000 -3153.150000 337.018000 1 1.000000 4 -3.000000
76 1 533.456000 -3157.650000 321.863000 1 1.000000 4 0.000000
77 3 537.304000 -3143.400000 353.603000 1 1.000000 4 0.000000
78 2 579.895000 -3149.450000 324.573000 1 1.000000 4 -3.000000
79 2 579.706000 -3147.170000 334.224000 1 1.000000 1 -3.000000
80 2 578.849000 -3145.300000 343.963000 1 1.000000 1 -3.000000
81 2 578.647000 -3147.040000 353.793000 1 1.000000 1 -3.000000
82 2 578.881000 -3148.510000 363.546000 1 1.000000 1 -3.000000
83 2 576.264000 -3146.550000 372.835000 1 1.000000 1 -3.000000
84 2 571.934000 -3142.290000 380.670000 1 1.000000 1 -3.000000
85 2 567.949000 -3139.040000 389.086000 1 1.000000 1 -3.000000
86 2 565.496000 -3137.400000 398.449000 1 1.000000 1 -3.000000
87 2 564.387000 -3136.060000 408.246000 1 1.000000 1 -3.000000
88 2 564.288000 -3131.340000 416.756000 1 1.000000 1 -3.000000
89 2 561.898000 -3128.770000 426.133000 1 1.000000 1 -3.000000
90 2 560.216000 -3123.800000 434.562000 1 1.000000 1 -3.000000
91 2 560.014000 -3120.950000 443.942000 1 1.000000 1 -3.000000
92 2 558.329000 -3116.960000 452.916000 1 1.000000 1 -3.000000
93 2 555.945000 -3110.950000 460.439000 1 1.000000 1 -3.000000
94 2 554.985000 -3105.670000 468.681000 1 1.000000 1 -3.000000
95 2 555.909000 -3099.640000 476.412000 1 1.000000 1 -3.000000
96 2 557.861000 -3092.570000 483.166000 1 1.000000 1 -3.000000
97 2 555.689000 -3087.030000 491.168000 1 1.000000 1 -3.000000
98 2 555.350000 -3081.660000 499.378000 1 1.000000 1 -3.000000
99 2 552.741000 -3076.520000 507.360000 1 1.000000 1 -3.000000
100 2 549.102000 -3073.780000 516.209000 1 1.000000 1 -3.000000
101 2 548.477000 -3073.400000 526.203000 1 1.000000 1 -3.000000
102 2 547.975000 -3072.890000 536.028000 1 1.000000 5 -3.000000
103 1 528.161000 -3115.110000 542.938000 1 1.000000 5 0.000000
104 3 539.987000 -3117.250000 510.100000 1 1.000000 5 0.000000
105 2 517.303000 -3159.230000 530.291000 1 1.000000 5 -3.000000
106 2 522.743000 -3156.470000 522.394000 1 1.000000 1 -3.000000
107 2 529.053000 -3157.260000 514.726000 1 1.000000 1 -3.000000
108 2 537.249000 -3157.270000 509.400000 1 1.000000 1 -3.000000
109 2 545.662000 -3158.730000 504.237000 1 1.000000 1 -3.000000
110 2 551.899000 -3162.880000 497.743000 1 1.000000 1 -3.000000
111 2 558.570000 -3167.680000 492.049000 1 1.000000 1 -3.000000
112 2 565.647000 -3171.860000 486.803000 1 1.000000 1 -3.000000
113 2 572.902000 -3172.990000 480.146000 1 1.000000 1 -3.000000
114 2 581.468000 -3174.020000 475.134000 1 1.000000 1 -3.000000
115 2 588.750000 -3175.230000 468.473000 1 1.000000 1 -3.000000
116 2 596.903000 -3172.990000 463.489000 1 1.000000 1 -3.000000
117 2 606.239000 -3170.300000 460.719000 1 1.000000 1 -3.000000
118 2 615.143000 -3168.450000 456.879000 1 1.000000 1 -3.000000
119 2 624.006000 -3166.840000 452.662000 1 1.000000 1 -3.000000
120 2 632.999000 -3164.680000 449.420000 1 1.000000 1 -3.000000
121 2 642.429000 -3162.750000 446.708000 1 1.000000 1 -3.000000
122 2 651.365000 -3162.820000 442.521000 1 1.000000 1 -3.000000
123 2 659.349000 -3165.930000 437.677000 1 1.000000 1 -3.000000
124 2 667.120000 -3167.440000 431.658000 1 1.000000 1 -3.000000
125 2 675.372000 -3165.710000 426.496000 1 1.000000 1 -3.000000
126 2 682.793000 -3166.750000 419.874000 1 1.000000 1 -3.000000
127 2 690.425000 -3170.920000 415.192000 1 1.000000 1 -3.000000
128 2 696.957000 -3176.060000 409.890000 1 1.000000 1 -3.000000
129 2 705.174000 -3180.390000 406.125000 1 1.000000 6 -3.000000
130 1 701.647000 -3153.740000 367.323000 1 1.000000 6 0.000000
131 3 690.292000 -3132.320000 392.676000 1 1.000000 6 0.000000
132 2 688.405000 -3115.140000 343.672000 1 1.000000 6 -3.000000
133 2 689.672000 -3109.390000 351.635000 1 1.000000 1 -3.000000
134 2 687.194000 -3103.120000 358.914000 1 1.000000 1 -3.000000
135 2 687.304000 -3096.020000 365.895000 1 1.000000 1 -3.000000
136 2 687.319000 -3090.380000 374.210000 1 1.000000 1 -3.000000
137 2 688.021000 -3089.850000 384.077000 1 1.000000 1 -3.000000
138 2 691.757000 -3089.250000 393.233000 1 1.000000 1 -3.000000
139 2 692.302000 -3088.620000 403.065000 1 1.000000 1 -3.000000
140 2 692.211000 -3090.730000 412.834000 1 1.000000 1 -3.000000
141 2 691.955000 -3092.790000 422.596000 1 1.000000 1 -3.000000
142 2 691.506000 -3097.280000 431.403000 1 1.000000 1 -3.000000
143 2 694.437000 -3102.740000 439.251000 1 1.000000 1 -3.000000
144 2 700.657000 -3105.530000 446.312000 1 1.000000 1 -3.000000
145 2 708.132000 -3106.940000 452.534000 1 1.000000 1 -3.000000
146 2 716.332000 -3105.980000 458.033000 1 1.000000 1 -3.000000
147 2 723.857000 -3102.770000 463.418000 1 1.000000 1 -3.000000
148 2 732.676000 -3099.030000 465.842000 1 1.000000 1 -3.000000
149 2 740.482000 -3092.860000 466.358000 1 1.000000 1 -3.000000
150 2 748.896000 -3088.010000 465.501000 1 1.000000 1 -3.000000
151 2 758.629000 -3085.980000 464.671000 1 1.000000 1 -3.000000
152 2 767.953000 -3082.970000 463.899000 1 1.000000 1 -3.000000
153 2 777.649000 -3083.800000 462.244000 1 1.000000 1 -3.000000
154 2 787.423000 -3084.960000 461.680000 1 1.000000 1 -3.000000
155 2 796.822000 -3081.940000 459.993000 1 1.000000 1 -3.000000
156 2 806.379000 -3079.300000 460.996000 1 1.000000 7 -3.000000
157 1 803.428000 -3059.750000 418.075000 1 1.000000 7 0.000000
158 3 772.137000 -3074.800000 422.155000 1 1.000000 7 0.000000
159 2 780.741000 -3048.780000 378.181000 1 1.000000 7 -3.000000
160 2 772.323000 -3052.040000 382.227000 1 1.000000 1 -3.000000
161 2 763.417000 -3053.630000 386.288000 1 1.000000 1 -3.000000
162 2 755.236000 -3054.830000 391.558000 1 1.000000 1 -3.000000
163 2 746.732000 -3053.700000 396.667000 1 1.000000 1 -3.000000
164 2 737.607000 -3050.800000 399.076000 1 1.000000 1 -3.000000
165 2 730.906000 -3047.670000 405.761000 1 1.000000 1 -3.000000
166 2 726.953000 -3041.290000 412.326000 1 1.000000 1 -3.000000
167 2 726.764000 -3034.000000 419.010000 1 1.000000 1 -3.000000
168 2 727.106000 -3027.760000 426.599000 1 1.000000 1 -3.000000
169 2 722.334000 -3021.840000 432.764000 1 1.000000 1 -3.000000
170 2 717.427000 -3018.820000 440.688000 1 1.000000 1 -3.000000
171 2 713.501000 -3013.560000 447.988000 1 1.000000 1 -3.000000
172 2 708.838000 -3008.840000 455.206000 1 1.000000 1 -3.000000
173 2 702.719000 -3003.930000 461.243000 1 1.000000 1 -3.000000
174 2 698.158000 -2998.830000 468.400000 1 1.000000 1 -3.000000
175 2 695.517000 -2992.840000 475.781000 1 1.000000 1 -3.000000
176 2 691.495000 -2984.910000 480.127000 1 1.000000 1 -3.000000
177 2 689.011000 -2977.280000 485.919000 1 1.000000 1 -3.000000
178 2 687.384000 -2968.670000 490.692000 1 1.000000 1 -3.000000
179 2 689.425000 -2962.270000 498.200000 1 1.000000 1 -3.000000
180 2 689.705000 -2955.780000 505.642000 1 1.000000 1 -3.000000
181 2 687.437000 -2948.370000 511.770000 1 1.000000 1 -3.000000
182 2 688.729000 -2941.800000 519.154000 1 1.000000 1 -3.000000
183 2 690.766000 -2933.750000 524.646000 1 1.000000 8 -3.000000
184 1 645.691000 -2920.050000 521.306000 1 1.000000 8 0.000000
185 3 645.852000 -2951.390000 505.546000 1 1.000000 8 0.000000
186 2 600.385000 -2926.600000 509.752000 1 1.000000 8 -3.000000
187 2 601.320000 -2936.370000 511.703000 1 1.000000 1 -3.000000
188 2 605.287000 -2943.620000 517.095000 1 1.000000 1 -3.000000
189 2 610.853000 -2950.780000 520.832000 1 1.000000 1 -3.000000
190 2 617.914000 -2955.230000 526.175000 1 1.000000 1 -3.000000
191 2 625.708000 -2957.730000 531.610000 1 1.000000 1 -3.000000
192 2 633.243000 -2958.400000 537.916000 1 1.000000 1 -3.000000
193 2 641.983000 -2962.460000 540.521000 1 1.000000 1 -3.000000
194 2 651.769000 -2962.920000 542.398000 1 1.000000 1 -3.000000
195 2 661.582000 -2962.000000 543.137000 1 1.000000 1 -3.000000
196 2 668.488000 -2956.510000 547.670000 1 1.000000 1 -3.000000
197 2 673.984000 -2953.260000 555.212000 1 1.000000 1 -3.000000
198 2 678.686000 -2947.310000 561.656000 1 1.000000 1 -3.000000
199 2 682.885000 -2938.850000 564.693000 1 1.000000 1 -3.000000
200 2 689.046000 -2931.900000 568.205000 1 1.000000 1 -3.000000
201 2 695.966000 -2924.790000 569.141000 1 1.000000 1 -3.000000
202 2 703.401000 -2918.630000 571.188000 1 1.000000 1 -3.000000
203 2 709.005000 -2910.690000 572.806000 1 1.000000 1 -3.000000
204 2 712.921000 -2901.790000 574.330000 1 1.000000 1 -3.000000
205 2 717.145000 -2893.250000 576.865000 1 1.000000 1 -3.000000
206 2 721.009000 -2886.080000 582.518000 1 1.000000 1 -3.000000
207 2 727.104000 -2885.460000 590.290000 1 1.000000 1 -3.000000
208 2 730.960000 -2883.380000 599.172000 1 1.000000 1 -3.000000
209 2 736.133000 -2882.390000 607.518000 1 1.000000 1 -3.000000
210 2 744.202000 -2880.010000 612.751000 1 1.000000 9 -3.000000
211 1 727.605000 -2840.490000 593.035000 1 1.000000 9 0.000000
212 3 698.861000 -2855.830000 605.713000 1 1.000000 9 0.000000
213 2 693.255000 -2810.100000 581.872000 1 1.000000 9 -3.000000
214 2 686.090000 -2812.720000 588.185000 1 1.000000 1 -3.000000
215 2 677.652000 -2815.220000 592.702000 1 1.000000 1 -3.000000
216 2 671.750000 -2821.200000 598.102000 1 1.000000 1 -3.000000
217 2 665.720000 -2826.490000 603.879000 1 1.000000 1 -3.000000
218 2 661.352000 -2832.100000 610.650000 1 1.000000 1 -3.000000
219 2 658.944000 -2840.300000 615.647000 1 1.000000 1 -3.000000
220 2 656.928000 -2848.030000 621.326000 1 1.000000 1 -3.000000
221 2 658.430000 -2854.770000 628.154000 1 1.000000 1 -3.000000
222 2 658.804000 -2858.110000 637.456000 1 1.000000 1 -3.000000
223 2 658.925000 -2861.870000 646.584000 1 1.000000 1 -3.000000
224 2 660.049000 -2864.860000 655.871000 1 1.000000 1 -3.000000
225 2 663.490000 -2865.080000 665.063000 1 1.000000 1 -3.000000
226 2 664.835000 -2862.260000 674.328000 1 1.000000 1 -3.000000
227 2 666.747000 -2857.590000 682.935000 1 1.000000 1 -3.000000
228 2 666.687000 -2856.940000 692.708000 1 1.000000 1 -3.000000
229 2 662.765000 -2858.310000 701.661000 1 1.000000 1 -3.000000
230 2 658.396000 -2860.030000 710.375000 1 1.000000 1 -3.000000
231 2 652.281000 -2861.450000 717.961000 1 1.000000 1 -3.000000
232 2 647.307000 -2864.330000 725.903000 1 1.000000 1 -3.000000
233 2 644.037000 -2860.190000 734.302000 1 1.000000 1 -3.000000
234 2 640.637000 -2855.540000 742.339000 1 1.000000 1 -3.000000
235 2 639.097000 -2851.530000 751.364000 1 1.000000 1 -3.000000
236 2 640.935000 -2849.070000 760.755000 1 1.000000 1 -3.000000
237 2 642.847000 -2847.050000 770.177000 1 1.000000 10 -3.000000
238 1 669.139000 -2808.400000 763.776000 1 1.000000 10 0.000000
239 3 662.435000 -2819.090000 731.098000 1 1.000000 10 0.000000
240 2 690.511000 -2775.870000 737.190000 1 1.000000 10 -3.000000
241 2 683.221000 -2776.000000 730.273000 1 1.000000 1 -3.000000
242 2 677.306000 -2776.920000 722.327000 1 1.000000 1 -3.000000
243 2 671.141000 -2779.190000 714.858000 1 1.000000 1 -3.000000
244 2 668.336000 -2783.680000 706.393000 1 1.000000 1 -3.000000
245 2 664.916000 -2786.970000 697.728000 1 1.000000 1 -3.000000
246 2 662.387000 -2790.620000 688.837000 1 1.000000 1 -3.000000
247 2 658.088000 -2795.580000 681.343000 1 1.000000 1 -3.000000
248 2 651.706000 -2799.130000 674.594000 1 1.000000 1 -3.000000
249 2 643.096000 -2801.990000 671.020000 1 1.000000 1 -3.000000
250 2 633.572000 -2801.900000 667.965000 1 1.000000 1 -3.000000
251 2 626.504000 -2799.190000 661.687000 1 1.000000 1 -3.000000
252 2 618.730000 -2799.640000 655.645000 1 1.000000 1 -3.000000
253 2 610.849000 -2801.560000 649.822000 1 1.000000 1 -3.000000
254 2 602.856000 -2805.180000 645.466000 1 1.000000 1 -3.000000
255 2 595.502000 -2810.920000 642.081000 1 1.000000 1 -3.000000
256 2 588.348000 -2817.690000 643.037000 1 1.000000 1 -3.000000
257 2 581.868000 -2824.780000 645.523000 1 1.000000 1 -3.000000
258 2 572.706000 -2827.170000 648.393000 1 1.000000 1 -3.000000
259 2 564.729000 -2830.620000 653.291000 1 1.000000 1 -3.000000
260 2 556.352000 -2830.530000 658.442000 1 1.000000 1 -3.000000
261 2 547.438000 -2832.870000 661.870000 1 1.000000 1 -3.000000
262 2 538.698000 -2834.720000 666.155000 1 1.000000 1 -3.000000
263 2 529.566000 -2836.020000 669.825000 1 1.000000 1 -3.000000
264 2 522.095000 -2839.400000 675.504000 1 1.000000 11 -3.000000
265 1 542.370000 -2827.750000 716.462000 1 1.000000 11 0.000000
266 3 563.621000 -2813.250000 692.850000 1 1.000000 11 0.000000
267 2 575.874000 -2807.690000 742.949000 1 1.000000 11 -3.000000
268 2 582.392000 -2806.430000 735.610000 1 1.000000 1 -3.000000
269 2 587.425000 -2802.150000 728.215000 1 1.000000 1 -3.000000
270 2 591.591000 -2796.490000 721.348000 1 1.000000 1 -3.000000
271 2 595.998000 -2789.960000 715.309000 1 1.000000 1 -3.000000
272 2 594.878000 -2784.330000 707.399000 1 1.000000 1 -3.000000
273 2 595.486000 -2780.980000 698.159000 1 1.000000 1 -3.000000
274 2 600.351000 -2776.430000 690.802000 1 1.000000 1 -3.000000
275 2 605.350000 -2772.880000 682.908000 1 1.000000 1 -3.000000
276 2 609.358000 -2769.530000 674.373000 1 1.000000 1 -3.000000
277 2 611.492000 -2763.390000 666.886000 1 1.000000 1 -3.000000
278 2 616.641000 -2756.210000 662.606000 1 1.000000 1 -3.000000
279 2 621.777000 -2747.900000 661.271000 1 1.000000 1 -3.000000
280 2 626.816000 -2739.850000 663.946000 1 1.000000 1 -3.000000
281 2 629.826000 -2730.500000 665.101000 1 1.000000 1 -3.000000
282 2 631.301000 -2720.770000 666.936000 1 1.000000 1 -3.000000
283 2 632.312000 -2711.200000 669.356000 1 1.000000 1 -3.000000
284 2 632.591000 -2701.440000 670.803000 1 1.000000 1 -3.000000
285 2 630.262000 -2691.760000 671.865000 1 1.000000 1 -3.000000
286 2 632.054000 -2682.120000 673.312000 1 1.000000 1 -3.000000
287 2 628.955000 -2673.830000 677.670000 1 1.000000 1 -3.000000
288 2 624.535000 -2667.510000 683.849000 1 1.000000 1 -3.000000
289 2 620.486000 -2661.360000 690.662000 1 1.000000 1 -3.000000
290 2 619.974000 -2654.680000 697.949000 1 1.000000 1 -3.000000
291 2 619.770000 -2647.360000 704.542000 1 1.000000 12 -3.000000
292 1 615.965000 -2613.840000 671.610000 1 1.000000 12 0.000000
293 3 625.628000 -2641.880000 653.157000 1 1.000000 12 0.000000
294 2 617.831000 -2597.570000 627.365000 1 1.000000 12 -3.000000
295 2 615.330000 -2606.680000 624.278000 1 1.000000 1 -3.000000
296 2 611.410000 -2615.660000 622.293000 1 1.000000 1 -3.000000
297 2 611.307000 -2623.430000 616.168000 1 1.000000 1 -3.000000
298 2 615.682000 -2630.200000 610.464000 1 1.000000 1 -3.000000
299 2 622.216000 -2637.300000 607.705000 1 1.000000 1 -3.000000
300 2 627.773000 -2645.440000 607.641000 1 1.000000 1 -3.000000
301 2 635.756000 -2650.940000 609.709000 1 1.000000 1 -3.000000
302 2 644.648000 -2655.270000 609.647000 1 1.000000 1 -3.000000
303 2 653.491000 -2659.510000 609.794000 1 1.000000 1 -3.000000
304 2 662.920000 -2661.510000 612.009000 1 1.000000 1 -3.000000
305 2 671.873000 -2664.790000 614.699000 1 1.000000 1 -3.000000
306 2 679.764000 -2668.270000 619.460000 1 1.000000 1 -3.000000
307 2 688.904000 -2671.720000 621.183000 1 1.000000 1 -3.000000
308 2 695.974000 -2673.730000 627.813000 1 1.000000 1 -3.000000
309 2 704.939000 -2675.200000 631.871000 1 1.000000 1 -3.000000
310 2 712.737000 -2673.120000 637.534000 1 1.000000 1 -3.000000
311 2 720.098000 -2669.760000 643.325000 1 1.000000 1 -3.000000
312 2 728.333000 -2664.870000 646.106000 1 1.000000 1 -3.000000
313 2 738.064000 -2662.940000 647.016000 1 1.000000 1 -3.000000
314 2 747.618000 -2660.860000 647.910000 1 1.000000 1 -3.000000
315 2 756.150000 -2657.370000 651.204000 1 1.000000 1 -3.000000
316 2 765.317000 -2653.450000 651.887000 1 1.000000 1 -3.000000
317 2 774.473000 -2649.940000 652.942000 1 1.000000 1 -3.000000
318 2 783.555000 -2646.970000 650.764000 1 1.000000 13 -3.000000
319 1 770.986000 -2614.400000 619.066000 1 1.000000 13 0.000000
320 3 742.038000 -2618.550000 638.479000 1 1.000000 13 0.000000
321 2 739.653000 -2586.010000 597.920000 1 1.000000 13 -3.000000
322 2 732.745000 -2583.340000 604.409000 1 1.000000 1 -3.000000
323 2 727.514000 -2581.240000 612.447000 1 1.000000 1 -3.000000
324 2 723.279000 -2583.420000 621.194000 1 1.000000 1 -3.000000
325 2 718.626000 -2584.730000 629.917000 1 1.000000 1 -3.000000
326 2 713.485000 -2584.930000 638.321000 1 1.000000 1 -3.000000
327 2 708.349000 -2584.760000 646.782000 1 1.000000 1 -3.000000
328 2 701.077000 -2583.920000 653.522000 1 1.000000 1 -3.000000
329 2 693.294000 -2582.460000 659.447000 1 1.000000 1 -3.000000
330 2 684.344000 -2581.380000 663.675000 1 1.000000 1 -3.000000
331 2 675.000000 -2583.030000 666.144000 1 1.000000 1 -3.000000
332 2 665.566000 -2583.620000 669.152000 1 1.000000 1 -3.000000
333 2 656.910000 -2585.650000 673.481000 1 1.000000 1 -3.000000
334 2 647.705000 -2587.830000 676.567000 1 1.000000 1 -3.000000
335 2 638.990000 -2587.110000 681.312000 1 1.000000 1 -3.000000
336 2 630.564000 -2585.390000 686.103000 1 1.000000 1 -3.000000
337 2 624.078000 -2585.390000 693.738000 1 1.000000 1 -3.000000
338 2 616.924000 -2582.890000 699.922000 1 1.000000 1 -3.000000
339 2 607.856000 -2581.340000 703.503000 1 1.000000 1 -3.000000
340 2 598.856000 -2579.480000 707.114000 1 1.000000 1 -3.000000
341 2 592.199000 -2572.530000 709.120000 1 1.000000 1 -3.000000
342 2 587.360000 -2567.090000 715.842000 1 1.000000 1 -3.000000
343 2 583.543000 -2560.720000 722.430000 1 1.000000 1 -3.000000
344 2 581.251000 -2554.450000 729.671000 1 1.000000 1 -3.000000
345 2 578.687000 -2546.750000 735.335000 1 1.000000 14 -3.000000
346 1 620.091000 -2529.050000 749.263000 1 1.000000 14 0.000000
347 3 628.492000 -2547.680000 720.843000 1 1.000000 14 0.000000
348 2 666.874000 -2523.730000 746.476000 1 1.000000 14 -3.000000
349 2 665.719000 -2525.430000 736.812000 1 1.000000 1 -3.000000
350 2 664.359000 -2526.730000 727.112000 1 1.000000 1 -3.000000
351 2 662.426000 -2525.040000 717.540000 1 1.000000 1 -3.000000
352 2 659.856000 -2522.860000 708.285000 1 1.000000 1 -3.000000
353 2 655.815000 -2521.300000 699.406000 1 1.000000 1 -3.000000
354 2 651.847000 -2521.520000 690.423000 1 1.000000 1 -3.000000
355 2 646.679000 -2521.010000 681.975000 1 1.000000 1 -3.000000
356 2 642.878000 -2520.630000 672.826000 1 1.000000 1 -3.000000
357 2 638.903000 -2519.580000 663.810000 1 1.000000 1 -3.000000
358 2 633.595000 -2517.180000 655.725000 1 1.000000 1 -3.000000
359 2 626.995000 -2514.350000 648.883000 1 1.000000 1 -3.000000
360 2 620.905000 -2514.280000 641.085000 1 1.000000 1 -3.000000
361 2 614.574000 -2512.340000 633.756000 1 1.000000 1 -3.000000
362 2 611.477000 -2512.030000 624.376000 1 1.000000 1 -3.000000
363 2 607.996000 -2516.130000 616.060000 1 1.000000 1 -3.000000
364 2 605.496000 -2519.470000 606.969000 1 1.000000 1 -3.000000
365 2 601.555000 -2523.230000 598.585000 1 1.000000 1 -3.000000
366 2 602.391000 -2526.100000 588.982000 1 1.000000 1 -3.000000
367 2 599.271000 -2529.850000 580.378000 1 1.000000 1 -3.000000
368 2 594.730000 -2535.810000 573.869000 1 1.000000 1 -3.000000
369 2 587.292000 -2541.900000 572.014000 1 1.000000 1 -3.000000
370 2 581.570000 -2548.100000 566.788000 1 1.000000 1 -3.000000
371 2 578.587000 -2555.260000 560.613000 1 1.000000 1 -3.000000
372 2 576.693000 -2563.760000 555.925000 1 1.000000 15 -3.000000
373 1 534.943000 -2558.540000 577.228000 1 1.000000 15 0.000000
374 3 554.422000 -2533.220000 591.460000 1 1.000000 15 0.000000
375 2 505.586000 -2538.670000 608.304000 1 1.000000 15 -3.000000
376 2 509.501000 -2529.440000 608.606000 1 1.000000 1 -3.000000
377 2 512.290000 -2520.080000 609.868000 1 1.000000 1 -3.000000
378 2 519.341000 -2513.100000 610.027000 1 1.000000 1 -3.000000
379 2 527.851000 -2508.310000 610.639000 1 1.000000 1 -3.000000
380 2 536.190000 -2502.890000 610.105000 1 1.000000 1 -3.000000
381 2 543.946000 -2498.910000 605.283000 1 1.000000 1 -3.000000
382 2 548.998000 -2494.730000 597.896000 1 1.000000 1 -3.000000
383 2 553.440000 -2489.590000 590.742000 1 1.000000 1 -3.000000
384 2 557.353000 -2487.060000 582.042000 1 1.000000 1 -3.000000
385 2 558.308000 -2484.310000 572.535000 1 1.000000 1 -3.000000
386 2 562.295000 -2483.920000 563.454000 1 1.000000 1 -3.000000
387 2 568.980000 -2486.500000 556.735000 1 1.000000 1 -3.000000
388 2 575.429000 -2489.960000 549.928000 1 1.000000 1 -3.000000
389 2 583.143000 -2495.290000 546.897000 1 1.000000 1 -3.000000
390 2 588.828000 -2501.690000 542.228000 1 1.000000 1 -3.000000
391 2 594.115000 -2509.460000 539.143000 1 1.000000 1 -3.000000
392 2 598.124000 -2517.960000 536.073000 1 1.000000 1 -3.000000
393 2 602.819000 -2526.180000 533.041000 1 1.000000 1 -3.000000
394 2 607.545000 -2533.850000 528.884000 1 1.000000 1 -3.000000
395 2 609.666000 -2542.480000 524.600000 1 1.000000 1 -3.000000
396 2 610.445000 -2551.950000 521.579000 1 1.000000 1 -3.000000
397 2 606.414000 -2560.490000 518.535000 1 1.000000 1 -3.000000
398 2 600.774000 -2568.500000 516.761000 1 1.000000 1 -3.000000
399 2 594.121000 -2575.670000 515.358000 1 1.000000 16 -3.000000
400 1 571.597000 -2551.220000 481.878000 1 1.000000 16 0.000000
401 3 605.293000 -2544.690000 475.458000 1 1.000000 16 0.000000
402 2 569.809000 -2520.920000 445.766000 1 1.000000 16 -3.000000
403 2 579.650000 -2520.400000 445.189000 1 1.000000 1 -3.000000
404 2 587.894000 -2515.230000 445.467000 1 1.000000 1 -3.000000
405 2 595.448000 -2509.110000 447.284000 1 1.000000 1 -3.000000
406 2 603.353000 -2504.410000 450.619000 1 1.000000 1 -3.000000
407 2 610.677000 -2498.130000 448.389000 1 1.000000 1 -3.000000
408 2 619.160000 -2493.750000 445.406000 1 1.000000 1 -3.000000
409 2 627.928000 -2490.510000 442.083000 1 1.000000 1 -3.000000
410 2 636.552000 -2487.830000 437.970000 1 1.000000 1 -3.000000
411 2 645.303000 -2483.720000 435.550000 1 1.000000 1 -3.000000
412 2 654.404000 -2480.320000 435.728000 1 1.000000 1 -3.000000
413 2 663.747000 -2477.480000 437.274000 1 1.000000 1 -3.000000
414 2 673.255000 -2476.360000 439.681000 1 1.000000 1 -3.000000
415 2 681.678000 -2475.760000 444.901000 1 1.000000 1 -3.000000
416 2 687.993000 -2470.130000 450.009000 1 1.000000 1 -3.000000
417 2 693.002000 -2462.890000 454.532000 1 1.000000 1 -3.000000
418 2 696.898000 -2456.860000 461.423000 1 1.000000 1 -3.000000
419 2 700.636000 -2450.170000 467.854000 1 1.000000 1 -3.000000
420 2 704.408000 -2443.190000 473.877000 1 1.000000 1 -3.000000
421 2 708.382000 -2435.740000 479.231000 1 1.000000 1 -3.000000
422 2 713.035000 -2428.140000 483.293000 1 1.000000 1 -3.000000
423 2 715.690000 -2419.320000 487.115000 1 1.000000 1 -3.000000
424 2 717.812000 -2411.480000 492.659000 1 1.000000 1 -3.000000
425 2 719.153000 -2404.140000 498.962000 1 1.000000 1 -3.000000
426 2 720.804000 -2397.210000 505.756000 1 1.000000 17 -3.000000
427 1 748.344000 -2385.000000 469.406000 1 1.000000 17 0.000000
428 3 730.980000 -2412.850000 457.237000 1 1.000000 17 0.000000
429 2 766.605000 -2391.220000 426.375000 1 1.000000 17 -3.000000
430 2 756.905000 -2390.240000 425.012000 1 1.000000 1 -3.000000
431 2 748.209000 -2385.970000 423.208000 1 1.000000 1 -3.000000
432 2 738.851000 -2382.560000 422.757000 1 1.000000 1 -3.000000
433 2 729.212000 -2380.120000 423.006000 1 1.000000 1 -3.000000
434 2 719.697000 -2378.990000 420.652000 1 1.000000 1 -3.000000
435 2 712.590000 -2380.950000 413.985000 1 1.000000 1 -3.000000
436 2 705.706000 -2383.570000 407.259000 1 1.000000 1 -3.000000
437 2 698.540000 -2387.370000 401.558000 1 1.000000 1 -3.000000
438 2 692.347000 -2390.020000 394.198000 1 1.000000 1 -3.000000
439 2 687.895000 -2394.820000 386.756000 1 1.000000 1 -3.000000
440 2 681.607000 -2399.050000 380.425000 1 1.000000 1 -3.000000
441 2 674.582000 -2404.280000 375.934000 1 1.000000 1 -3.000000
442 2 665.589000 -2407.450000 373.471000 1 1.000000 1 -3.000000
443 2 655.907000 -2409.290000 372.945000 1 1.000000 1 -3.000000
444 2 646.719000 -2412.180000 370.353000 1 1.000000 1 -3.000000
445 2 637.742000 -2412.100000 366.168000 1 1.000000 1 -3.000000
446 2 629.899000 -2409.730000 360.573000 1 1.000000 1 -3.000000
447 2 623.847000 -2411.190000 352.917000 1 1.000000 1 -3.000000
448 2 618.643000 -2415.820000 345.812000 1 1.000000 1 -3.000000
449 2 612.825000 -2420.940000 339.605000 1 1.000000 1 -3.000000
450 2 607.607000 -2427.560000 334.412000 1 1.000000 1 -3.000000
451 2 604.890000 -2432.520000 326.310000 1 1.000000 1 -3.000000
452 2 603.567000 -2436.410000 317.291000 1 1.000000 1 -3.000000
453 2 600.625000 -2438.880000 308.120000 1 1.000000 18 -3.000000
454 1 563.908000 -2441.750000 337.706000 1 1.000000 18 0.000000
455 3 584.914000 -2418.280000 353.024000 1 1.000000 18 0.000000
456 2 538.144000 -2426.630000 374.228000 1 1.000000 18 -3.000000
457 2 544.796000 -2419.450000 375.029000 1 1.000000 1 -3.000000
458 2 548.478000 -2410.390000 376.247000 1 1.000000 1 -3.000000
459 2 552.673000 -2402.010000 379.661000 1 1.000000 1 -3.000000
460 2 558.610000 -2394.100000 379.398000 1 1.000000 1 -3.000000
461 2 562.391000 -2384.990000 380.309000 1 1.000000 1 -3.000000
462 2 566.090000 -2376.050000 378.179000 1 1.000000 1 -3.000000
463 2 567.698000 -2366.400000 376.104000 1 1.000000 1 -3.000000
464 2 567.380000 -2356.610000 374.293000 1 1.000000 1 -3.000000
465 2 565.349000 -2346.970000 375.545000 1 1.000000 1 -3.000000