LAMMPS data file

4067 atoms
4067 ellipsoids
4516 bonds
8882 angles
0 dihedrals

3 atom types
5 bond types
12 angle types
0 dihedral types

-4631.092947 4670.465898 xlo xhi
-4631.092947 4670.465898 ylo yhi
-4631.092947 4670.465898 zlo zhi

Masses

1 196016.000000
2 1950.000000
3 19500.000000

Atoms

1 2 778.409000 -2973.090000 568.687000 1 1.000000 1 -3.000000
2 2 779.233000 -2971.480000 578.505000 1 1.000000 1 -3.000000
3 2 781.563000 -2966.490000 586.820000 1 1.000000 1 -3.000000
4 2 786.615000 -2962.440000 594.302000 1 1.000000 1 -3.000000
5 2 791.392000 -2955.520000 599.370000 1 1.000000 1 -3.000000
6 2 796.700000 -2949.120000 604.638000 1 1.000000 1 -3.000000
7 2 801.179000 -2941.190000 608.470000 1 1.000000 1 -3.000000
8 2 807.179000 -2933.440000 610.295000 1 1.000000 1 -3.000000
9 2 812.073000 -2924.880000 611.206000 1 1.000000 1 -3.000000
10 2 819.325000 -2918.710000 614.026000 1 1.000000 1 -3.000000
11 2 828.771000 -2915.980000 614.473000 1 1.000000 1 -3.000000
12 2 838.215000 -2912.900000 615.128000 1 1.000000 1 -3.000000
13 2 847.844000 -2911.100000 615.858000 1 1.000000 1 -3.000000
14 2 857.478000 -2912.110000 614.030000 1 1.000000 1 -3.000000
15 2 866.258000 -2912.970000 609.667000 1 1.000000 1 -3.000000
16 2 875.412000 -2913.020000 605.911000 1 1.000000 1 -3.000000
17 2 884.396000 -2910.170000 603.046000 1 1.000000 1 -3.000000
18 2 891.703000 -2909.490000 596.689000 1 1.000000 1 -3.000000
19 2 896.392000 -2909.930000 587.994000 1 1.000000 1 -3.000000
20 2 904.047000 -2910.430000 581.703000 1 1.000000 1 -3.000000
21 2 912.116000 -2911.320000 575.996000 1 1.000000 2 -3.000000
22 1 926.157000 -2939.800000 610.883000 1 1.000000 2 0.000000
23 3 892.645000 -2932.910000 618.992000 1 1.000000 2 0.000000
24 2 918.333000 -2967.030000 648.694000 1 1.000000 2 -3.000000
25 2 908.389000 -2966.720000 648.661000 1 1.000000 1 -3.000000
26 2 898.864000 -2966.310000 651.696000 1 1.000000 1 -3.000000
27 2 889.645000 -2963.770000 653.911000 1 1.000000 1 -3.000000
28 2 880.847000 -2959.980000 656.584000 1 1.000000 1 -3.000000
29 2 871.212000 -2957.880000 657.294000 1 1.000000 1 -3.000000
30 2 861.532000 -2959.070000 658.298000 1 1.000000 1 -3.000000
31 2 851.589000 -2959.610000 658.268000 1 1.000000 1 -3.000000
32 2 841.875000 -2957.490000 657.520000 1 1.000000 1 -3.000000
33 2 832.061000 -2958.190000 657.643000 1 1.000000 1 -3.000000
34 2 822.139000 -2957.740000 657.760000 1 1.000000 1 -3.000000
35 2 812.435000 -2956.190000 657.787000 1 1.000000 1 -3.000000
36 2 803.208000 -2952.880000 657.455000 1 1.000000 1 -3.000000
37 2 794.617000 -2948.470000 659.161000 1 1.000000 1 -3.000000
38 2 786.047000 -2943.640000 659.314000 1 1.000000 1 -3.000000
39 2 777.105000 -2939.910000 661.931000 1 1.000000 1 -3.000000
40 2 771.653000 -2932.930000 666.356000 1 1.000000 1 -3.000000
41 2 764.738000 -2925.920000 668.245000 1 1.000000 1 -3.000000
42 2 759.358000 -2917.710000 668.722000 1 1.000000 1 -3.000000
43 2 753.584000 -2910.350000 672.169000 1 1.000000 1 -3.000000
44 2 750.596000 -2901.400000 675.217000 1 1.000000 1 -3.000000
45 2 747.638000 -2893.060000 679.630000 1 1.000000 1 -3.000000
46 2 743.062000 -2884.700000 682.591000 1 1.000000 1 -3.000000
47 2 740.109000 -2875.780000 686.094000 1 1.000000 1 -3.000000
48 2 740.586000 -2865.890000 687.521000 1 1.000000 3 -3.000000
49 1 787.003000 -2865.800000 696.159000 1 1.000000 3 0.000000
50 3 780.294000 -2899.470000 689.136000 1 1.000000 3 0.000000
51 2 829.697000 -2885.960000 696.512000 1 1.000000 3 -3.000000
52 2 821.841000 -2891.840000 695.533000 1 1.000000 1 -3.000000
53 2 814.808000 -2898.770000 695.716000 1 1.000000 1 -3.000000
54 2 810.182000 -2907.630000 696.698000 1 1.000000 1 -3.000000
55 2 806.049000 -2916.420000 694.718000 1 1.000000 1 -3.000000
56 2 804.260000 -2925.750000 692.085000 1 1.000000 1 -3.000000
57 2 803.581000 -2935.140000 689.118000 1 1.000000 1 -3.000000
58 2 802.549000 -2944.870000 690.852000 1 1.000000 1 -3.000000
59 2 800.134000 -2954.520000 691.729000 1 1.000000 1 -3.000000
60 2 801.199000 -2963.580000 687.755000 1 1.000000 1 -3.000000
61 2 804.702000 -2971.230000 682.380000 1 1.000000 1 -3.000000
62 2 808.880000 -2979.980000 680.316000 1 1.000000 1 -3.000000
63 2 808.397000 -2989.720000 679.135000 1 1.000000 1 -3.000000
64 2 807.145000 -2999.590000 680.509000 1 1.000000 1 -3.000000
65 2 807.388000 -3009.450000 680.384000 1 1.000000 1 -3.000000
66 2 806.593000 -3019.260000 680.850000 1 1.000000 1 -3.000000
67 2 808.289000 -3028.850000 682.941000 1 1.000000 1 -3.000000
68 2 810.038000 -3038.320000 685.174000 1 1.000000 1 -3.000000
69 2 808.646000 -3047.560000 688.504000 1 1.000000 1 -3.000000
70 2 803.866000 -3056.160000 689.826000 1 1.000000 1 -3.000000
71 2 797.138000 -3062.250000 693.818000 1 1.000000 1 -3.000000
72 2 790.933000 -3069.400000 696.550000 1 1.000000 1 -3.000000
73 2 786.026000 -3075.660000 702.334000 1 1.000000 1 -3.000000
74 2 781.877000 -3080.250000 710.050000 1 1.000000 1 -3.000000
75 2 776.205000 -3085.010000 716.420000 1 1.000000 4 -3.000000
76 1 759.002000 -3045.170000 734.984000 1 1.000000 4 0.000000
77 3 762.511000 -3037.290000 701.007000 1 1.000000 4 0.000000
78 2 741.098000 -3001.590000 731.970000 1 1.000000 4 -3.000000
79 2 746.805000 -2998.550000 724.341000 1 1.000000 1 -3.000000
80 2 749.632000 -2994.850000 715.589000 1 1.000000 1 -3.000000
81 2 754.644000 -2990.840000 708.186000 1 1.000000 1 -3.000000
82 2 755.975000 -2987.740000 698.847000 1 1.000000 1 -3.000000
83 2 754.571000 -2983.650000 689.950000 1 1.000000 1 -3.000000
84 2 752.955000 -2981.330000 680.459000 1 1.000000 1 -3.000000
85 2 752.153000 -2983.960000 671.016000 1 1.000000 1 -3.000000
86 2 750.216000 -2982.880000 661.413000 1 1.000000 1 -3.000000
87 2 747.126000 -2982.730000 651.981000 1 1.000000 1 -3.000000
88 2 744.233000 -2985.520000 642.927000 1 1.000000 1 -3.000000
89 2 741.739000 -2985.280000 633.313000 1 1.000000 1 -3.000000
90 2 739.060000 -2987.290000 623.991000 1 1.000000 1 -3.000000
91 2 734.750000 -2992.830000 616.842000 1 1.000000 1 -3.000000
92 2 733.369000 -2999.900000 610.155000 1 1.000000 1 -3.000000
93 2 733.375000 -3002.490000 600.546000 1 1.000000 1 -3.000000
94 2 732.379000 -3003.930000 590.823000 1 1.000000 1 -3.000000
95 2 730.581000 -3004.570000 581.181000 1 1.000000 1 -3.000000
96 2 731.031000 -3006.220000 571.605000 1 1.000000 1 -3.000000
97 2 731.035000 -3002.100000 562.679000 1 1.000000 1 -3.000000
98 2 733.584000 -3000.770000 553.140000 1 1.000000 1 -3.000000
99 2 737.577000 -2999.220000 544.275000 1 1.000000 1 -3.000000
100 2 740.274000 -2994.170000 536.298000 1 1.000000 1 -3.000000
101 2 743.065000 -2988.620000 528.687000 1 1.000000 1 -3.000000
102 2 747.066000 -2982.930000 521.606000 1 1.000000 5 -3.000000
103 1 713.614000 -2949.700000 519.296000 1 1.000000 5 0.000000
104 3 709.571000 -2962.990000 551.436000 1 1.000000 5 0.000000
105 2 675.656000 -2926.890000 535.760000 1 1.000000 5 -3.000000
106 2 675.818000 -2926.520000 545.562000 1 1.000000 1 -3.000000
107 2 679.263000 -2927.250000 554.772000 1 1.000000 1 -3.000000
108 2 681.653000 -2931.230000 563.550000 1 1.000000 1 -3.000000
109 2 682.299000 -2936.920000 571.639000 1 1.000000 1 -3.000000
110 2 682.323000 -2944.550000 577.915000 1 1.000000 1 -3.000000
111 2 682.864000 -2952.400000 584.210000 1 1.000000 1 -3.000000
112 2 681.096000 -2961.740000 587.012000 1 1.000000 1 -3.000000
113 2 676.846000 -2970.170000 589.861000 1 1.000000 1 -3.000000
114 2 668.806000 -2975.980000 588.976000 1 1.000000 1 -3.000000
115 2 662.015000 -2983.050000 590.397000 1 1.000000 1 -3.000000
116 2 655.144000 -2989.230000 586.472000 1 1.000000 1 -3.000000
117 2 646.890000 -2994.590000 585.320000 1 1.000000 1 -3.000000
118 2 637.664000 -2998.340000 585.633000 1 1.000000 1 -3.000000
119 2 628.781000 -3002.520000 584.686000 1 1.000000 1 -3.000000
120 2 619.885000 -3006.660000 584.687000 1 1.000000 1 -3.000000
121 2 610.058000 -3006.700000 584.133000 1 1.000000 1 -3.000000
122 2 600.734000 -3009.790000 585.710000 1 1.000000 1 -3.000000
123 2 591.485000 -3012.980000 585.414000 1 1.000000 1 -3.000000
124 2 581.760000 -3011.220000 585.181000 1 1.000000 1 -3.000000
125 2 573.625000 -3006.270000 583.162000 1 1.000000 1 -3.000000
126 2 565.330000 -3001.090000 584.028000 1 1.000000 1 -3.000000
127 2 557.005000 -2995.610000 583.490000 1 1.000000 1 -3.000000
128 2 548.949000 -2991.110000 579.920000 1 1.000000 1 -3.000000
129 2 540.367000 -2986.310000 581.803000 1 1.000000 6 -3.000000
130 1 553.779000 -2955.310000 614.722000 1 1.000000 6 0.000000
131 3 579.286000 -2953.100000 590.903000 1 1.000000 6 0.000000
132 2 584.451000 -2925.360000 634.511000 1 1.000000 6 -3.000000
133 2 591.578000 -2926.610000 627.950000 1 1.000000 1 -3.000000
134 2 599.854000 -2928.110000 622.819000 1 1.000000 1 -3.000000
135 2 606.758000 -2928.910000 615.780000 1 1.000000 1 -3.000000
136 2 610.188000 -2926.890000 606.741000 1 1.000000 1 -3.000000
137 2 611.254000 -2923.980000 597.365000 1 1.000000 1 -3.000000
138 2 610.724000 -2920.650000 588.076000 1 1.000000 1 -3.000000
139 2 615.018000 -2916.960000 579.907000 1 1.000000 1 -3.000000
140 2 618.549000 -2913.500000 571.264000 1 1.000000 1 -3.000000
141 2 618.536000 -2907.550000 563.401000 1 1.000000 1 -3.000000
142 2 619.598000 -2897.980000 561.129000 1 1.000000 1 -3.000000
143 2 621.812000 -2888.730000 558.828000 1 1.000000 1 -3.000000
144 2 628.996000 -2884.110000 553.794000 1 1.000000 1 -3.000000
145 2 635.149000 -2878.240000 549.080000 1 1.000000 1 -3.000000
146 2 640.693000 -2869.940000 548.495000 1 1.000000 1 -3.000000
147 2 645.852000 -2861.920000 545.627000 1 1.000000 1 -3.000000
148 2 651.999000 -2855.880000 540.973000 1 1.000000 1 -3.000000
149 2 658.340000 -2852.000000 534.336000 1 1.000000 1 -3.000000
150 2 665.235000 -2847.030000 529.191000 1 1.000000 1 -3.000000
151 2 671.560000 -2841.140000 524.414000 1 1.000000 1 -3.000000
152 2 677.770000 -2833.650000 522.285000 1 1.000000 1 -3.000000
153 2 685.567000 -2828.050000 524.637000 1 1.000000 1 -3.000000
154 2 694.525000 -2824.720000 527.205000 1 1.000000 1 -3.000000
155 2 702.193000 -2818.590000 528.074000 1 1.000000 1 -3.000000
156 2 711.178000 -2814.500000 528.285000 1 1.000000 7 -3.000000
157 1 716.165000 -2794.010000 486.075000 1 1.000000 7 0.000000
158 3 688.155000 -2814.660000 481.699000 1 1.000000 7 0.000000
159 2 704.141000 -2786.440000 441.114000 1 1.000000 7 -3.000000
160 2 694.646000 -2787.070000 443.926000 1 1.000000 1 -3.000000
161 2 686.280000 -2790.340000 448.146000 1 1.000000 1 -3.000000
162 2 678.001000 -2795.280000 450.504000 1 1.000000 1 -3.000000
163 2 669.300000 -2800.120000 450.212000 1 1.000000 1 -3.000000
164 2 661.134000 -2805.290000 447.742000 1 1.000000 1 -3.000000
165 2 654.201000 -2808.980000 441.670000 1 1.000000 1 -3.000000
166 2 646.071000 -2811.920000 436.919000 1 1.000000 1 -3.000000
167 2 636.312000 -2812.710000 435.132000 1 1.000000 1 -3.000000
168 2 627.032000 -2814.040000 431.926000 1 1.000000 1 -3.000000
169 2 617.820000 -2815.640000 428.745000 1 1.000000 1 -3.000000
170 2 608.452000 -2817.540000 430.778000 1 1.000000 1 -3.000000
171 2 598.845000 -2817.080000 432.852000 1 1.000000 1 -3.000000
172 2 589.391000 -2818.100000 435.715000 1 1.000000 1 -3.000000
173 2 579.630000 -2816.330000 435.801000 1 1.000000 1 -3.000000
174 2 569.964000 -2813.930000 435.482000 1 1.000000 1 -3.000000
175 2 560.482000 -2811.310000 434.722000 1 1.000000 1 -3.000000
176 2 551.714000 -2807.720000 432.197000 1 1.000000 1 -3.000000
177 2 543.225000 -2803.510000 435.317000 1 1.000000 1 -3.000000
178 2 534.173000 -2799.680000 435.188000 1 1.000000 1 -3.000000
179 2 524.996000 -2795.980000 435.661000 1 1.000000 1 -3.000000
180 2 518.095000 -2789.510000 438.198000 1 1.000000 1 -3.000000
181 2 513.347000 -2781.370000 441.264000 1 1.000000 1 -3.000000
182 2 505.898000 -2774.790000 441.908000 1 1.000000 1 -3.000000
183 2 497.273000 -2770.140000 442.642000 1 1.000000 8 -3.000000
184 1 526.520000 -2742.420000 467.049000 1 1.000000 8 0.000000
185 3 547.956000 -2760.090000 445.728000 1 1.000000 8 0.000000
186 2 569.204000 -2725.810000 478.682000 1 1.000000 8 -3.000000
187 2 574.964000 -2728.630000 471.168000 1 1.000000 1 -3.000000
188 2 580.159000 -2732.230000 463.554000 1 1.000000 1 -3.000000
189 2 582.388000 -2735.890000 454.694000 1 1.000000 1 -3.000000
190 2 587.352000 -2739.200000 446.888000 1 1.000000 1 -3.000000
191 2 591.811000 -2743.180000 439.237000 1 1.000000 1 -3.000000
192 2 596.753000 -2745.560000 431.054000 1 1.000000 1 -3.000000
193 2 599.882000 -2750.940000 423.381000 1 1.000000 1 -3.000000
194 2 603.297000 -2758.380000 417.925000 1 1.000000 1 -3.000000
195 2 606.623000 -2764.930000 411.357000 1 1.000000 1 -3.000000
196 2 611.481000 -2769.310000 404.072000 1 1.000000 1 -3.000000
197 2 615.631000 -2772.980000 395.894000 1 1.000000 1 -3.000000
198 2 622.838000 -2774.190000 389.146000 1 1.000000 1 -3.000000
199 2 627.802000 -2775.650000 380.655000 1 1.000000 1 -3.000000
200 2 634.214000 -2774.140000 373.282000 1 1.000000 1 -3.000000
201 2 640.984000 -2770.700000 366.970000 1 1.000000 1 -3.000000
202 2 648.871000 -2769.400000 361.175000 1 1.000000 1 -3.000000
203 2 653.549000 -2770.130000 352.404000 1 1.000000 1 -3.000000
204 2 660.379000 -2771.810000 345.302000 1 1.000000 1 -3.000000
205 2 664.394000 -2777.290000 338.080000 1 1.000000 1 -3.000000
206 2 669.328000 -2783.860000 332.484000 1 1.000000 1 -3.000000
207 2 673.559000 -2789.790000 325.761000 1 1.000000 1 -3.000000
208 2 679.338000 -2790.290000 317.756000 1 1.000000 1 -3.000000
209 2 682.925000 -2787.150000 309.103000 1 1.000000 1 -3.000000
210 2 686.430000 -2783.370000 300.672000 1 1.000000 9 -3.000000
211 1 702.886000 -2739.280000 297.546000 1 1.000000 9 0.000000
212 3 683.849000 -2738.660000 326.703000 1 1.000000 9 0.000000
213 2 709.299000 -2695.310000 313.333000 1 1.000000 9 -3.000000
214 2 706.543000 -2692.370000 322.382000 1 1.000000 1 -3.000000
215 2 703.206000 -2694.370000 331.528000 1 1.000000 1 -3.000000
216 2 698.077000 -2694.060000 339.928000 1 1.000000 1 -3.000000
217 2 694.364000 -2692.240000 349.069000 1 1.000000 1 -3.000000
218 2 689.350000 -2686.310000 355.222000 1 1.000000 1 -3.000000
219 2 684.801000 -2681.170000 362.241000 1 1.000000 1 -3.000000
220 2 683.413000 -2672.550000 366.823000 1 1.000000 1 -3.000000
221 2 685.262000 -2664.120000 371.834000 1 1.000000 1 -3.000000
222 2 686.500000 -2655.100000 376.138000 1 1.000000 1 -3.000000
223 2 688.734000 -2645.910000 379.357000 1 1.000000 1 -3.000000
224 2 690.893000 -2636.980000 382.864000 1 1.000000 1 -3.000000
225 2 689.483000 -2627.880000 386.683000 1 1.000000 1 -3.000000
226 2 687.927000 -2618.190000 387.599000 1 1.000000 1 -3.000000
227 2 691.667000 -2609.270000 385.593000 1 1.000000 1 -3.000000
228 2 690.970000 -2599.610000 383.723000 1 1.000000 1 -3.000000
229 2 692.387000 -2589.990000 381.960000 1 1.000000 1 -3.000000
230 2 691.884000 -2580.380000 379.715000 1 1.000000 1 -3.000000
231 2 692.226000 -2570.960000 376.740000 1 1.000000 1 -3.000000
232 2 695.554000 -2563.740000 370.846000 1 1.000000 1 -3.000000
233 2 697.885000 -2557.990000 363.085000 1 1.000000 1 -3.000000
234 2 699.685000 -2552.380000 355.190000 1 1.000000 1 -3.000000
235 2 702.985000 -2548.030000 346.842000 1 1.000000 1 -3.000000
236 2 709.580000 -2546.340000 339.574000 1 1.000000 1 -3.000000
237 2 717.326000 -2544.110000 333.985000 1 1.000000 10 -3.000000
238 1 701.248000 -2580.530000 308.753000 1 1.000000 10 0.000000
239 3 672.376000 -2568.180000 324.252000 1 1.000000 10 0.000000
240 2 667.649000 -2610.460000 294.399000 1 1.000000 10 -3.000000
241 2 661.459000 -2606.650000 301.050000 1 1.000000 1 -3.000000
242 2 654.049000 -2603.680000 306.613000 1 1.000000 1 -3.000000
243 2 646.239000 -2599.660000 311.147000 1 1.000000 1 -3.000000
244 2 637.721000 -2596.110000 314.825000 1 1.000000 1 -3.000000
245 2 630.669000 -2589.780000 318.042000 1 1.000000 1 -3.000000
246 2 621.995000 -2585.840000 320.753000 1 1.000000 1 -3.000000
247 2 613.066000 -2583.020000 324.038000 1 1.000000 1 -3.000000
248 2 604.121000 -2579.140000 326.062000 1 1.000000 1 -3.000000
249 2 595.505000 -2574.450000 327.410000 1 1.000000 1 -3.000000
250 2 586.308000 -2571.390000 329.272000 1 1.000000 1 -3.000000
251 2 577.740000 -2566.520000 327.600000 1 1.000000 1 -3.000000
252 2 568.513000 -2563.840000 325.694000 1 1.000000 1 -3.000000
253 2 560.201000 -2563.990000 320.620000 1 1.000000 1 -3.000000
254 2 552.031000 -2563.550000 314.945000 1 1.000000 1 -3.000000
255 2 544.254000 -2560.740000 309.494000 1 1.000000 1 -3.000000
256 2 536.474000 -2557.350000 304.358000 1 1.000000 1 -3.000000
257 2 526.928000 -2558.700000 302.620000 1 1.000000 1 -3.000000
258 2 517.295000 -2557.700000 304.141000 1 1.000000 1 -3.000000
259 2 507.830000 -2554.670000 302.928000 1 1.000000 1 -3.000000
260 2 498.504000 -2552.280000 300.602000 1 1.000000 1 -3.000000
261 2 488.694000 -2553.740000 299.160000 1 1.000000 1 -3.000000
262 2 479.346000 -2556.470000 296.894000 1 1.000000 1 -3.000000
263 2 469.594000 -2557.220000 295.175000 1 1.000000 1 -3.000000
264 2 459.726000 -2557.940000 294.223000 1 1.000000 11 -3.000000
265 1 447.896000 -2555.350000 339.813000 1 1.000000 11 0.000000
266 3 481.235000 -2544.790000 339.726000 1 1.000000 11 0.000000
267 2 455.310000 -2542.910000 384.726000 1 1.000000 11 -3.000000
268 2 464.760000 -2540.200000 384.020000 1 1.000000 1 -3.000000
269 2 474.515000 -2539.710000 384.640000 1 1.000000 1 -3.000000
270 2 483.940000 -2539.650000 381.455000 1 1.000000 1 -3.000000
271 2 493.259000 -2538.200000 378.380000 1 1.000000 1 -3.000000
272 2 502.707000 -2537.010000 375.216000 1 1.000000 1 -3.000000
273 2 511.769000 -2533.580000 373.105000 1 1.000000 1 -3.000000
274 2 519.594000 -2527.760000 371.104000 1 1.000000 1 -3.000000
275 2 526.545000 -2521.190000 368.819000 1 1.000000 1 -3.000000
276 2 535.232000 -2517.930000 365.292000 1 1.000000 1 -3.000000
277 2 543.607000 -2512.460000 364.576000 1 1.000000 1 -3.000000
278 2 550.788000 -2505.710000 364.140000 1 1.000000 1 -3.000000
279 2 557.402000 -2498.490000 366.172000 1 1.000000 1 -3.000000
280 2 564.928000 -2492.360000 368.160000 1 1.000000 1 -3.000000
281 2 572.561000 -2485.920000 369.613000 1 1.000000 1 -3.000000
282 2 578.871000 -2478.410000 370.350000 1 1.000000 1 -3.000000
283 2 586.411000 -2472.420000 367.767000 1 1.000000 1 -3.000000
284 2 594.906000 -2467.750000 365.798000 1 1.000000 1 -3.000000
285 2 600.139000 -2459.450000 364.165000 1 1.000000 1 -3.000000
286 2 607.411000 -2453.450000 366.951000 1 1.000000 1 -3.000000
287 2 614.238000 -2449.250000 372.964000 1 1.000000 1 -3.000000
288 2 621.007000 -2444.380000 378.201000 1 1.000000 1 -3.000000
289 2 627.471000 -2440.360000 384.470000 1 1.000000 1 -3.000000
290 2 634.067000 -2437.750000 391.426000 1 1.000000 1 -3.000000
291 2 640.216000 -2434.380000 398.498000 1 1.000000 12 -3.000000
292 1 666.982000 -2473.190000 397.597000 1 1.000000 12 0.000000
293 3 651.763000 -2473.360000 366.104000 1 1.000000 12 0.000000
294 2 683.371000 -2512.720000 377.448000 1 1.000000 12 -3.000000
295 2 679.718000 -2510.270000 368.484000 1 1.000000 1 -3.000000
296 2 677.332000 -2507.230000 359.349000 1 1.000000 1 -3.000000
297 2 678.546000 -2502.280000 350.911000 1 1.000000 1 -3.000000
298 2 673.053000 -2498.790000 343.387000 1 1.000000 1 -3.000000
299 2 666.575000 -2493.430000 337.932000 1 1.000000 1 -3.000000
300 2 659.016000 -2488.030000 334.366000 1 1.000000 1 -3.000000
301 2 652.111000 -2485.030000 327.749000 1 1.000000 1 -3.000000
302 2 645.682000 -2484.470000 320.236000 1 1.000000 1 -3.000000
303 2 639.831000 -2486.990000 312.729000 1 1.000000 1 -3.000000
304 2 631.702000 -2490.240000 308.092000 1 1.000000 1 -3.000000
305 2 623.213000 -2492.970000 303.552000 1 1.000000 1 -3.000000
306 2 616.634000 -2493.460000 296.242000 1 1.000000 1 -3.000000
307 2 608.182000 -2493.820000 291.072000 1 1.000000 1 -3.000000
308 2 600.510000 -2493.010000 284.839000 1 1.000000 1 -3.000000
309 2 592.830000 -2491.880000 278.662000 1 1.000000 1 -3.000000
310 2 585.159000 -2487.730000 274.245000 1 1.000000 1 -3.000000
311 2 576.446000 -2485.720000 270.025000 1 1.000000 1 -3.000000
312 2 570.005000 -2484.170000 262.689000 1 1.000000 1 -3.000000
313 2 564.752000 -2482.120000 254.557000 1 1.000000 1 -3.000000
314 2 558.940000 -2482.050000 246.571000 1 1.000000 1 -3.000000
315 2 550.375000 -2480.540000 241.845000 1 1.000000 1 -3.000000
316 2 542.125000 -2481.250000 236.462000 1 1.000000 1 -3.000000
317 2 534.259000 -2478.190000 231.119000 1 1.000000 1 -3.000000
318 2 527.941000 -2478.660000 223.547000 1 1.000000 13 -3.000000
319 1 496.734000 -2482.710000 258.646000 1 1.000000 13 0.000000
320 3 526.071000 -2473.040000 275.022000 1 1.000000 13 0.000000
321 2 483.577000 -2481.150000 303.956000 1 1.000000 13 -3.000000
322 2 492.001000 -2477.590000 308.031000 1 1.000000 1 -3.000000
323 2 499.036000 -2471.790000 311.901000 1 1.000000 1 -3.000000
324 2 507.035000 -2466.410000 314.576000 1 1.000000 1 -3.000000
325 2 512.719000 -2460.350000 320.189000 1 1.000000 1 -3.000000
326 2 518.477000 -2453.420000 324.138000 1 1.000000 1 -3.000000
327 2 527.161000 -2449.450000 326.524000 1 1.000000 1 -3.000000
328 2 535.783000 -2444.820000 327.823000 1 1.000000 1 -3.000000
329 2 544.775000 -2441.440000 330.302000 1 1.000000 1 -3.000000
330 2 554.352000 -2439.000000 331.116000 1 1.000000 1 -3.000000
331 2 563.478000 -2435.200000 329.846000 1 1.000000 1 -3.000000
332 2 573.301000 -2434.300000 328.655000 1 1.000000 1 -3.000000
333 2 582.440000 -2432.960000 325.300000 1 1.000000 1 -3.000000
334 2 591.529000 -2430.420000 322.614000 1 1.000000 1 -3.000000
335 2 599.378000 -2425.340000 319.648000 1 1.000000 1 -3.000000
336 2 609.072000 -2424.200000 318.381000 1 1.000000 1 -3.000000
337 2 618.427000 -2421.550000 320.014000 1 1.000000 1 -3.000000
338 2 628.252000 -2422.420000 320.176000 1 1.000000 1 -3.000000
339 2 636.963000 -2424.770000 315.981000 1 1.000000 1 -3.000000
340 2 643.727000 -2429.410000 310.561000 1 1.000000 1 -3.000000
341 2 653.336000 -2429.330000 308.047000 1 1.000000 1 -3.000000
342 2 662.813000 -2426.850000 306.694000 1 1.000000 1 -3.000000
343 2 672.485000 -2428.200000 304.375000 1 1.000000 1 -3.000000
344 2 681.254000 -2427.080000 299.990000 1 1.000000 1 -3.000000
345 2 690.114000 -2428.730000 295.867000 1 1.000000 14 -3.000000
346 1 688.886000 -2383.220000 283.326000 1 1.000000 14 0.000000
347 3 662.828000 -2385.940000 306.536000 1 1.000000 14 0.000000
348 2 672.459000 -2339.090000 286.391000 1 1.000000 14 -3.000000
349 2 666.802000 -2339.010000 294.594000 1 1.000000 1 -3.000000
350 2 663.362000 -2340.240000 303.702000 1 1.000000 1 -3.000000
351 2 656.990000 -2344.220000 310.195000 1 1.000000 1 -3.000000
352 2 648.582000 -2346.760000 314.758000 1 1.000000 1 -3.000000
353 2 641.775000 -2350.520000 320.948000 1 1.000000 1 -3.000000
354 2 635.301000 -2353.830000 327.711000 1 1.000000 1 -3.000000
355 2 630.191000 -2355.740000 335.909000 1 1.000000 1 -3.000000
356 2 624.839000 -2359.010000 343.690000 1 1.000000 1 -3.000000
357 2 620.617000 -2362.650000 351.883000 1 1.000000 1 -3.000000
358 2 620.813000 -2368.270000 360.059000 1 1.000000 1 -3.000000
359 2 621.912000 -2374.630000 367.458000 1 1.000000 1 -3.000000
360 2 620.290000 -2378.910000 376.404000 1 1.000000 1 -3.000000
361 2 617.688000 -2382.240000 385.444000 1 1.000000 1 -3.000000
362 2 616.053000 -2389.800000 391.513000 1 1.000000 1 -3.000000
363 2 612.437000 -2397.940000 395.784000 1 1.000000 1 -3.000000
364 2 609.297000 -2406.270000 400.375000 1 1.000000 1 -3.000000
365 2 607.258000 -2410.910000 408.887000 1 1.000000 1 -3.000000
366 2 602.767000 -2415.680000 416.411000 1 1.000000 1 -3.000000
367 2 596.727000 -2420.670000 422.599000 1 1.000000 1 -3.000000
368 2 588.033000 -2424.460000 425.703000 1 1.000000 1 -3.000000
369 2 581.247000 -2430.590000 429.245000 1 1.000000 1 -3.000000
370 2 574.475000 -2437.240000 431.912000 1 1.000000 1 -3.000000
371 2 566.734000 -2443.460000 432.656000 1 1.000000 1 -3.000000
372 2 559.587000 -2449.740000 435.369000 1 1.000000 15 -3.000000
373 1 587.041000 -2487.820000 430.796000 1 1.000000 15 0.000000
374 3 610.099000 -2461.560000 432.224000 1 1.000000 15 0.000000
375 2 628.672000 -2510.030000 430.760000 1 1.000000 15 -3.000000
376 2 635.312000 -2503.960000 435.082000 1 1.000000 1 -3.000000
377 2 641.597000 -2496.550000 437.047000 1 1.000000 1 -3.000000
378 2 646.152000 -2488.530000 440.406000 1 1.000000 1 -3.000000
379 2 647.837000 -2479.410000 444.025000 1 1.000000 1 -3.000000
380 2 651.018000 -2471.220000 448.544000 1 1.000000 1 -3.000000
381 2 651.481000 -2461.680000 451.065000 1 1.000000 1 -3.000000
382 2 651.983000 -2451.810000 452.202000 1 1.000000 1 -3.000000
383 2 652.636000 -2442.000000 450.919000 1 1.000000 1 -3.000000
384 2 655.184000 -2432.560000 449.449000 1 1.000000 1 -3.000000
385 2 661.640000 -2425.550000 452.125000 1 1.000000 1 -3.000000
386 2 669.281000 -2420.790000 456.276000 1 1.000000 1 -3.000000
387 2 674.195000 -2415.380000 462.902000 1 1.000000 1 -3.000000
388 2 679.794000 -2408.970000 467.793000 1 1.000000 1 -3.000000
389 2 685.887000 -2402.360000 471.947000 1 1.000000 1 -3.000000
390 2 693.910000 -2396.940000 473.183000 1 1.000000 1 -3.000000
391 2 699.184000 -2389.690000 469.063000 1 1.000000 1 -3.000000
392 2 703.423000 -2381.030000 466.712000 1 1.000000 1 -3.000000
393 2 708.766000 -2373.540000 463.043000 1 1.000000 1 -3.000000
394 2 716.939000 -2368.170000 463.383000 1 1.000000 1 -3.000000
395 2 725.609000 -2364.010000 465.961000 1 1.000000 1 -3.000000
396 2 735.059000 -2361.120000 466.076000 1 1.000000 1 -3.000000
397 2 744.165000 -2357.590000 464.051000 1 1.000000 1 -3.000000
398 2 752.959000 -2354.560000 460.304000 1 1.000000 1 -3.000000
399 2 760.449000 -2349.720000 455.923000 1 1.000000 16 -3.000000
400 1 760.546000 -2364.310000 411.069000 1 1.000000 16 0.000000
401 3 729.360000 -2375.150000 422.963000 1 1.000000 16 0.000000
402 2 740.692000 -2384.240000 373.144000 1 1.000000 16 -3.000000
403 2 733.670000 -2385.900000 379.823000 1 1.000000 1 -3.000000
404 2 727.291000 -2385.120000 387.234000 1 1.000000 1 -3.000000
405 2 719.147000 -2385.800000 392.967000 1 1.000000 1 -3.000000
406 2 712.089000 -2384.920000 399.775000 1 1.000000 1 -3.000000
407 2 703.937000 -2384.020000 405.396000 1 1.000000 1 -3.000000
408 2 694.983000 -2382.360000 409.253000 1 1.000000 1 -3.000000
409 2 685.865000 -2381.420000 413.179000 1 1.000000 1 -3.000000
410 2 677.110000 -2379.690000 417.383000 1 1.000000 1 -3.000000
411 2 667.758000 -2380.200000 420.253000 1 1.000000 1 -3.000000
412 2 657.951000 -2381.280000 421.698000 1 1.000000 1 -3.000000
413 2 648.334000 -2382.340000 423.794000 1 1.000000 1 -3.000000
414 2 638.670000 -2384.280000 424.709000 1 1.000000 1 -3.000000
415 2 629.393000 -2383.530000 428.103000 1 1.000000 1 -3.000000
416 2 621.163000 -2378.330000 429.810000 1 1.000000 1 -3.000000
417 2 612.358000 -2376.140000 433.740000 1 1.000000 1 -3.000000
418 2 602.946000 -2373.890000 434.892000 1 1.000000 1 -3.000000
419 2 593.197000 -2373.500000 437.048000 1 1.000000 1 -3.000000
420 2 584.569000 -2371.050000 441.159000 1 1.000000 1 -3.000000
421 2 576.126000 -2366.470000 443.366000 1 1.000000 1 -3.000000
422 2 566.523000 -2363.970000 443.772000 1 1.000000 1 -3.000000
423 2 557.446000 -2360.260000 445.217000 1 1.000000 1 -3.000000
424 2 549.937000 -2356.200000 450.166000 1 1.000000 1 -3.000000
425 2 541.558000 -2355.920000 455.290000 1 1.000000 1 -3.000000
426 2 532.784000 -2353.350000 458.990000 1 1.000000 17 -3.000000
427 1 545.203000 -2368.300000 501.971000 1 1.000000 17 0.000000
428 3 571.251000 -2346.870000 492.915000 1 1.000000 17 0.000000
429 2 574.239000 -2370.700000 539.124000 1 1.000000 17 -3.000000
430 2 580.418000 -2364.100000 534.928000 1 1.000000 1 -3.000000
431 2 585.992000 -2359.160000 528.458000 1 1.000000 1 -3.000000
432 2 588.178000 -2353.630000 520.477000 1 1.000000 1 -3.000000
433 2 591.109000 -2349.770000 511.805000 1 1.000000 1 -3.000000
434 2 594.853000 -2344.250000 504.416000 1 1.000000 1 -3.000000
435 2 596.862000 -2336.340000 498.690000 1 1.000000 1 -3.000000
436 2 599.013000 -2328.260000 493.245000 1 1.000000 1 -3.000000
437 2 604.686000 -2320.290000 492.402000 1 1.000000 1 -3.000000
438 2 610.087000 -2311.980000 492.160000 1 1.000000 1 -3.000000
439 2 614.024000 -2302.810000 492.047000 1 1.000000 1 -3.000000
440 2 618.483000 -2293.950000 491.989000 1 1.000000 1 -3.000000
441 2 623.128000 -2285.530000 489.418000 1 1.000000 1 -3.000000
442 2 628.204000 -2277.620000 486.424000 1 1.000000 1 -3.000000
443 2 633.004000 -2270.630000 481.452000 1 1.000000 1 -3.000000
444 2 638.072000 -2263.580000 476.744000 1 1.000000 1 -3.000000
445 2 646.631000 -2259.240000 474.004000 1 1.000000 1 -3.000000
446 2 654.434000 -2257.390000 468.040000 1 1.000000 1 -3.000000
447 2 662.400000 -2255.550000 462.390000 1 1.000000 1 -3.000000
448 2 670.879000 -2256.130000 457.344000 1 1.000000 1 -3.000000
449 2 680.307000 -2256.830000 454.344000 1 1.000000 1 -3.000000
450 2 689.858000 -2258.720000 452.868000 1 1.000000 1 -3.000000
451 2 699.508000 -2260.730000 451.405000 1 1.000000 1 -3.000000
452 2 709.362000 -2259.690000 451.434000 1 1.000000 1 -3.000000
453 2 718.176000 -2257.320000 455.204000 1 1.000000 18 -3.000000
454 1 712.557000 -2211.490000 445.384000 1 1.000000 18 0.000000
455 3 680.737000 -2224.620000 440.098000 1 1.000000 18 0.000000
456 2 687.417000 -2174.080000 431.487000 1 1.000000 18 -3.000000
457 2 681.414000 -2181.910000 432.346000 1 1.000000 1 -3.000000
458 2 673.477000 -2187.540000 434.315000 1 1.000000 1 -3.000000
459 2 665.882000 -2193.470000 436.260000 1 1.000000 1 -3.000000
460 2 662.338000 -2202.770000 435.681000 1 1.000000 1 -3.000000
461 2 657.515000 -2211.170000 433.443000 1 1.000000 1 -3.000000
462 2 650.943000 -2218.660000 432.600000 1 1.000000 1 -3.000000
463 2 644.064000 -2224.710000 428.977000 1 1.000000 1 -3.000000
464 2 637.493000 -2230.760000 424.838000 1 1.000000 1 -3.000000
465 2 630.150000 -2236.240000 421.115000 1 1.000000 1 -3.000000