LAMMPS data file

4067 atoms
4067 ellipsoids
4516 bonds
8882 angles
0 dihedrals

3 atom types
5 bond types
12 angle types
0 dihedral types

-4631.092947 4670.465898 xlo xhi
-4631.092947 4670.465898 ylo yhi
-4631.092947 4670.465898 zlo zhi

Masses

1 196016.000000
2 1950.000000
3 19500.000000

Atoms

1 2 766.729000 -3059.060000 892.204000 1 1.000000 1 -3.000000
2 2 762.802000 -3062.220000 883.533000 1 1.000000 1 -3.000000
3 2 757.089000 -3065.660000 876.288000 1 1.000000 1 -3.000000
4 2 750.974000 -3068.010000 868.937000 1 1.000000 1 -3.000000
5 2 747.824000 -3069.830000 859.737000 1 1.000000 1 -3.000000
6 2 746.033000 -3073.960000 850.908000 1 1.000000 1 -3.000000
7 2 743.544000 -3076.520000 841.850000 1 1.000000 1 -3.000000
8 2 741.354000 -3076.750000 832.090000 1 1.000000 1 -3.000000
9 2 740.834000 -3075.960000 822.330000 1 1.000000 1 -3.000000
10 2 738.592000 -3072.630000 813.151000 1 1.000000 1 -3.000000
11 2 734.793000 -3069.440000 804.508000 1 1.000000 1 -3.000000
12 2 733.668000 -3065.510000 795.458000 1 1.000000 1 -3.000000
13 2 734.814000 -3063.370000 785.815000 1 1.000000 1 -3.000000
14 2 735.303000 -3063.400000 775.924000 1 1.000000 1 -3.000000
15 2 735.717000 -3066.610000 766.582000 1 1.000000 1 -3.000000
16 2 735.047000 -3067.440000 756.801000 1 1.000000 1 -3.000000
17 2 738.495000 -3065.620000 747.720000 1 1.000000 1 -3.000000
18 2 741.144000 -3060.850000 739.581000 1 1.000000 1 -3.000000
19 2 744.266000 -3059.070000 730.368000 1 1.000000 1 -3.000000
20 2 749.242000 -3056.680000 722.157000 1 1.000000 1 -3.000000
21 2 752.083000 -3056.460000 712.723000 1 1.000000 2 -3.000000
22 1 710.979000 -3058.220000 689.729000 1 1.000000 2 0.000000
23 3 701.561000 -3063.330000 722.961000 1 1.000000 2 0.000000
24 2 664.111000 -3062.880000 687.023000 1 1.000000 2 -3.000000
25 2 662.585000 -3065.380000 696.485000 1 1.000000 1 -3.000000
26 2 660.985000 -3063.880000 706.012000 1 1.000000 1 -3.000000
27 2 658.848000 -3061.340000 715.352000 1 1.000000 1 -3.000000
28 2 658.474000 -3058.930000 724.954000 1 1.000000 1 -3.000000
29 2 658.955000 -3058.120000 734.825000 1 1.000000 1 -3.000000
30 2 661.114000 -3056.280000 744.329000 1 1.000000 1 -3.000000
31 2 666.892000 -3052.690000 751.635000 1 1.000000 1 -3.000000
32 2 672.375000 -3049.380000 759.236000 1 1.000000 1 -3.000000
33 2 678.129000 -3044.170000 765.154000 1 1.000000 1 -3.000000
34 2 684.668000 -3040.080000 771.515000 1 1.000000 1 -3.000000
35 2 691.132000 -3036.180000 777.858000 1 1.000000 1 -3.000000
36 2 695.321000 -3029.110000 783.427000 1 1.000000 1 -3.000000
37 2 702.230000 -3023.610000 787.943000 1 1.000000 1 -3.000000
38 2 708.000000 -3016.660000 792.042000 1 1.000000 1 -3.000000
39 2 714.404000 -3009.730000 795.236000 1 1.000000 1 -3.000000
40 2 720.102000 -3003.350000 800.394000 1 1.000000 1 -3.000000
41 2 726.947000 -2998.140000 805.054000 1 1.000000 1 -3.000000
42 2 735.588000 -2993.330000 806.016000 1 1.000000 1 -3.000000
43 2 744.479000 -2990.150000 809.215000 1 1.000000 1 -3.000000
44 2 750.809000 -2985.620000 815.371000 1 1.000000 1 -3.000000
45 2 756.864000 -2979.620000 820.282000 1 1.000000 1 -3.000000
46 2 764.357000 -2973.170000 821.790000 1 1.000000 1 -3.000000
47 2 772.419000 -2968.020000 823.680000 1 1.000000 1 -3.000000
48 2 781.365000 -2965.300000 826.791000 1 1.000000 3 -3.000000
49 1 788.995000 -2924.170000 804.851000 1 1.000000 3 0.000000
50 3 765.263000 -2939.850000 784.545000 1 1.000000 3 0.000000
51 2 781.837000 -2892.680000 770.494000 1 1.000000 3 -3.000000
52 2 772.229000 -2895.030000 769.700000 1 1.000000 1 -3.000000
53 2 762.650000 -2897.590000 769.072000 1 1.000000 1 -3.000000
54 2 753.302000 -2900.610000 768.115000 1 1.000000 1 -3.000000
55 2 744.029000 -2903.310000 766.624000 1 1.000000 1 -3.000000
56 2 734.877000 -2906.540000 767.263000 1 1.000000 1 -3.000000
57 2 725.102000 -2905.500000 768.848000 1 1.000000 1 -3.000000
58 2 717.243000 -2899.780000 768.683000 1 1.000000 1 -3.000000
59 2 709.267000 -2893.950000 769.104000 1 1.000000 1 -3.000000
60 2 704.474000 -2886.030000 765.389000 1 1.000000 1 -3.000000
61 2 702.338000 -2877.100000 761.321000 1 1.000000 1 -3.000000
62 2 698.065000 -2868.540000 759.040000 1 1.000000 1 -3.000000
63 2 690.513000 -2862.690000 756.283000 1 1.000000 1 -3.000000
64 2 683.763000 -2855.640000 756.520000 1 1.000000 1 -3.000000
65 2 676.345000 -2849.070000 757.483000 1 1.000000 1 -3.000000
66 2 670.617000 -2841.120000 758.615000 1 1.000000 1 -3.000000
67 2 665.905000 -2832.690000 760.467000 1 1.000000 1 -3.000000
68 2 659.458000 -2825.130000 761.117000 1 1.000000 1 -3.000000
69 2 652.483000 -2818.420000 762.909000 1 1.000000 1 -3.000000
70 2 646.905000 -2810.240000 763.846000 1 1.000000 1 -3.000000
71 2 638.735000 -2804.490000 764.372000 1 1.000000 1 -3.000000
72 2 629.186000 -2802.910000 767.007000 1 1.000000 1 -3.000000
73 2 619.312000 -2803.290000 765.659000 1 1.000000 1 -3.000000
74 2 610.207000 -2806.900000 766.941000 1 1.000000 1 -3.000000
75 2 600.747000 -2809.350000 768.875000 1 1.000000 4 -3.000000
76 1 580.762000 -2779.130000 799.055000 1 1.000000 4 0.000000
77 3 605.120000 -2759.450000 783.252000 1 1.000000 4 0.000000
78 2 574.807000 -2736.630000 818.620000 1 1.000000 4 -3.000000
79 2 579.132000 -2733.130000 810.449000 1 1.000000 1 -3.000000
80 2 581.734000 -2726.550000 803.675000 1 1.000000 1 -3.000000
81 2 585.906000 -2721.540000 796.189000 1 1.000000 1 -3.000000
82 2 590.296000 -2719.110000 787.609000 1 1.000000 1 -3.000000
83 2 596.295000 -2716.060000 780.162000 1 1.000000 1 -3.000000
84 2 599.898000 -2717.070000 771.046000 1 1.000000 1 -3.000000
85 2 605.503000 -2716.040000 762.988000 1 1.000000 1 -3.000000
86 2 610.296000 -2713.450000 754.684000 1 1.000000 1 -3.000000
87 2 611.575000 -2713.670000 744.850000 1 1.000000 1 -3.000000
88 2 613.537000 -2717.650000 736.073000 1 1.000000 1 -3.000000
89 2 611.562000 -2724.380000 729.152000 1 1.000000 1 -3.000000
90 2 611.018000 -2733.350000 725.081000 1 1.000000 1 -3.000000
91 2 611.366000 -2743.070000 724.057000 1 1.000000 1 -3.000000
92 2 609.443000 -2752.690000 721.853000 1 1.000000 1 -3.000000
93 2 609.550000 -2761.650000 717.404000 1 1.000000 1 -3.000000
94 2 609.010000 -2769.190000 710.885000 1 1.000000 1 -3.000000
95 2 609.113000 -2778.060000 706.382000 1 1.000000 1 -3.000000
96 2 605.497000 -2786.770000 703.189000 1 1.000000 1 -3.000000
97 2 600.934000 -2793.430000 697.534000 1 1.000000 1 -3.000000
98 2 597.441000 -2801.770000 693.568000 1 1.000000 1 -3.000000
99 2 593.688000 -2810.190000 689.619000 1 1.000000 1 -3.000000
100 2 585.681000 -2814.600000 685.498000 1 1.000000 1 -3.000000
101 2 576.319000 -2817.030000 683.331000 1 1.000000 1 -3.000000
102 2 566.441000 -2817.910000 683.020000 1 1.000000 5 -3.000000
103 1 536.527000 -2781.540000 683.261000 1 1.000000 5 0.000000
104 3 566.724000 -2766.900000 693.106000 1 1.000000 5 0.000000
105 2 524.825000 -2736.490000 690.902000 1 1.000000 5 -3.000000
106 2 534.569000 -2737.810000 691.691000 1 1.000000 1 -3.000000
107 2 544.326000 -2736.360000 692.425000 1 1.000000 1 -3.000000
108 2 553.475000 -2734.380000 695.992000 1 1.000000 1 -3.000000
109 2 562.883000 -2731.930000 697.976000 1 1.000000 1 -3.000000
110 2 571.550000 -2727.350000 696.864000 1 1.000000 1 -3.000000
111 2 579.659000 -2723.070000 693.495000 1 1.000000 1 -3.000000
112 2 587.738000 -2719.480000 689.045000 1 1.000000 1 -3.000000
113 2 595.476000 -2714.420000 686.010000 1 1.000000 1 -3.000000
114 2 603.143000 -2709.050000 682.640000 1 1.000000 1 -3.000000
115 2 609.987000 -2702.160000 680.493000 1 1.000000 1 -3.000000
116 2 617.211000 -2695.760000 678.270000 1 1.000000 1 -3.000000
117 2 624.828000 -2689.520000 679.313000 1 1.000000 1 -3.000000
118 2 632.712000 -2683.550000 680.938000 1 1.000000 1 -3.000000
119 2 640.722000 -2677.940000 682.515000 1 1.000000 1 -3.000000
120 2 649.226000 -2673.460000 684.853000 1 1.000000 1 -3.000000
121 2 657.121000 -2667.390000 685.016000 1 1.000000 1 -3.000000
122 2 663.604000 -2661.410000 689.375000 1 1.000000 1 -3.000000
123 2 670.076000 -2656.080000 694.708000 1 1.000000 1 -3.000000
124 2 675.702000 -2648.650000 698.278000 1 1.000000 1 -3.000000
125 2 681.948000 -2640.790000 699.039000 1 1.000000 1 -3.000000
126 2 689.936000 -2635.980000 702.299000 1 1.000000 1 -3.000000
127 2 698.793000 -2634.280000 706.276000 1 1.000000 1 -3.000000
128 2 707.514000 -2630.850000 709.494000 1 1.000000 1 -3.000000
129 2 715.260000 -2632.220000 715.631000 1 1.000000 6 -3.000000
130 1 739.618000 -2651.000000 679.825000 1 1.000000 6 0.000000
131 3 706.507000 -2651.760000 668.439000 1 1.000000 6 0.000000
132 2 743.538000 -2668.680000 636.236000 1 1.000000 6 -3.000000
133 2 736.959000 -2662.100000 633.032000 1 1.000000 1 -3.000000
134 2 729.084000 -2658.870000 628.025000 1 1.000000 1 -3.000000
135 2 721.550000 -2655.690000 622.773000 1 1.000000 1 -3.000000
136 2 718.621000 -2648.660000 616.310000 1 1.000000 1 -3.000000
137 2 712.398000 -2642.460000 611.875000 1 1.000000 1 -3.000000
138 2 704.348000 -2638.200000 608.208000 1 1.000000 1 -3.000000
139 2 696.859000 -2635.460000 602.402000 1 1.000000 1 -3.000000
140 2 689.375000 -2629.350000 600.167000 1 1.000000 1 -3.000000
141 2 681.812000 -2624.150000 596.522000 1 1.000000 1 -3.000000
142 2 673.730000 -2620.280000 592.255000 1 1.000000 1 -3.000000
143 2 667.302000 -2614.470000 587.495000 1 1.000000 1 -3.000000
144 2 663.940000 -2607.420000 581.443000 1 1.000000 1 -3.000000
145 2 659.936000 -2600.400000 575.725000 1 1.000000 1 -3.000000
146 2 656.746000 -2594.410000 568.508000 1 1.000000 1 -3.000000
147 2 654.054000 -2587.460000 562.182000 1 1.000000 1 -3.000000
148 2 652.062000 -2579.680000 556.365000 1 1.000000 1 -3.000000
149 2 647.761000 -2573.290000 550.143000 1 1.000000 1 -3.000000
150 2 643.969000 -2567.190000 543.349000 1 1.000000 1 -3.000000
151 2 641.987000 -2558.980000 538.039000 1 1.000000 1 -3.000000
152 2 640.666000 -2549.320000 538.207000 1 1.000000 1 -3.000000
153 2 641.086000 -2540.480000 533.908000 1 1.000000 1 -3.000000
154 2 643.122000 -2532.540000 528.381000 1 1.000000 1 -3.000000
155 2 645.295000 -2524.400000 523.233000 1 1.000000 1 -3.000000
156 2 648.526000 -2516.710000 517.927000 1 1.000000 7 -3.000000
157 1 678.817000 -2537.240000 488.004000 1 1.000000 7 0.000000
158 3 664.607000 -2564.240000 504.943000 1 1.000000 7 0.000000
159 2 702.365000 -2574.410000 470.901000 1 1.000000 7 -3.000000
160 2 697.800000 -2582.970000 472.839000 1 1.000000 1 -3.000000
161 2 694.252000 -2592.010000 474.529000 1 1.000000 1 -3.000000
162 2 689.481000 -2600.620000 474.463000 1 1.000000 1 -3.000000
163 2 685.439000 -2609.600000 475.006000 1 1.000000 1 -3.000000
164 2 681.325000 -2618.350000 472.758000 1 1.000000 1 -3.000000
165 2 675.966000 -2624.250000 467.048000 1 1.000000 1 -3.000000
166 2 670.363000 -2630.460000 461.833000 1 1.000000 1 -3.000000
167 2 662.721000 -2635.530000 457.994000 1 1.000000 1 -3.000000
168 2 653.465000 -2638.990000 459.726000 1 1.000000 1 -3.000000
169 2 644.574000 -2642.180000 462.700000 1 1.000000 1 -3.000000
170 2 634.875000 -2643.980000 463.923000 1 1.000000 1 -3.000000
171 2 625.906000 -2648.350000 464.143000 1 1.000000 1 -3.000000
172 2 617.776000 -2653.760000 462.875000 1 1.000000 1 -3.000000
173 2 611.112000 -2660.620000 465.325000 1 1.000000 1 -3.000000
174 2 602.629000 -2665.580000 465.988000 1 1.000000 1 -3.000000
175 2 593.558000 -2666.710000 462.315000 1 1.000000 1 -3.000000
176 2 583.646000 -2667.780000 460.926000 1 1.000000 1 -3.000000
177 2 574.240000 -2667.530000 457.935000 1 1.000000 1 -3.000000
178 2 565.077000 -2667.260000 453.885000 1 1.000000 1 -3.000000
179 2 555.555000 -2665.970000 451.768000 1 1.000000 1 -3.000000
180 2 548.236000 -2663.810000 445.655000 1 1.000000 1 -3.000000
181 2 540.858000 -2659.930000 440.228000 1 1.000000 1 -3.000000
182 2 532.950000 -2658.420000 434.487000 1 1.000000 1 -3.000000
183 2 524.171000 -2656.740000 430.103000 1 1.000000 8 -3.000000
184 1 550.595000 -2646.020000 392.473000 1 1.000000 8 0.000000
185 3 571.398000 -2637.990000 419.349000 1 1.000000 8 0.000000
186 2 590.440000 -2632.010000 371.439000 1 1.000000 8 -3.000000
187 2 596.582000 -2636.390000 377.961000 1 1.000000 1 -3.000000
188 2 601.277000 -2641.980000 384.666000 1 1.000000 1 -3.000000
189 2 605.996000 -2646.980000 391.776000 1 1.000000 1 -3.000000
190 2 612.573000 -2651.030000 398.199000 1 1.000000 1 -3.000000
191 2 617.934000 -2654.680000 405.647000 1 1.000000 1 -3.000000
192 2 625.195000 -2658.810000 410.927000 1 1.000000 1 -3.000000
193 2 634.210000 -2662.520000 412.752000 1 1.000000 1 -3.000000
194 2 642.897000 -2665.980000 416.205000 1 1.000000 1 -3.000000
195 2 651.126000 -2667.040000 421.626000 1 1.000000 1 -3.000000
196 2 658.052000 -2669.960000 428.155000 1 1.000000 1 -3.000000
197 2 666.298000 -2673.690000 432.425000 1 1.000000 1 -3.000000
198 2 673.565000 -2679.750000 435.259000 1 1.000000 1 -3.000000
199 2 680.379000 -2685.860000 439.071000 1 1.000000 1 -3.000000
200 2 687.419000 -2691.720000 442.556000 1 1.000000 1 -3.000000
201 2 694.826000 -2698.100000 444.096000 1 1.000000 1 -3.000000
202 2 701.054000 -2705.530000 445.187000 1 1.000000 1 -3.000000
203 2 705.503000 -2714.220000 446.852000 1 1.000000 1 -3.000000
204 2 707.446000 -2723.390000 449.908000 1 1.000000 1 -3.000000
205 2 710.473000 -2732.680000 451.007000 1 1.000000 1 -3.000000
206 2 708.827000 -2742.440000 450.791000 1 1.000000 1 -3.000000
207 2 708.831000 -2752.180000 452.317000 1 1.000000 1 -3.000000
208 2 706.441000 -2761.770000 451.466000 1 1.000000 1 -3.000000
209 2 702.091000 -2770.650000 451.676000 1 1.000000 1 -3.000000
210 2 698.241000 -2779.720000 451.216000 1 1.000000 9 -3.000000
211 1 694.787000 -2779.690000 404.147000 1 1.000000 9 0.000000
212 3 710.862000 -2749.330000 411.248000 1 1.000000 9 0.000000
213 2 697.463000 -2758.940000 361.843000 1 1.000000 9 -3.000000
214 2 704.942000 -2752.700000 362.703000 1 1.000000 1 -3.000000
215 2 711.313000 -2745.780000 365.664000 1 1.000000 1 -3.000000
216 2 716.265000 -2737.560000 368.184000 1 1.000000 1 -3.000000
217 2 721.448000 -2731.270000 373.724000 1 1.000000 1 -3.000000
218 2 728.221000 -2727.220000 379.919000 1 1.000000 1 -3.000000
219 2 736.660000 -2724.840000 384.397000 1 1.000000 1 -3.000000
220 2 745.170000 -2723.980000 389.427000 1 1.000000 1 -3.000000
221 2 753.504000 -2722.700000 394.482000 1 1.000000 1 -3.000000
222 2 761.837000 -2725.700000 399.041000 1 1.000000 1 -3.000000
223 2 771.477000 -2728.270000 400.441000 1 1.000000 1 -3.000000
224 2 781.076000 -2730.660000 400.882000 1 1.000000 1 -3.000000
225 2 790.284000 -2734.130000 400.006000 1 1.000000 1 -3.000000
226 2 799.506000 -2737.340000 398.157000 1 1.000000 1 -3.000000
227 2 807.045000 -2743.120000 395.372000 1 1.000000 1 -3.000000
228 2 811.974000 -2750.710000 390.873000 1 1.000000 1 -3.000000
229 2 816.227000 -2758.330000 386.285000 1 1.000000 1 -3.000000
230 2 821.167000 -2765.540000 381.408000 1 1.000000 1 -3.000000
231 2 825.428000 -2772.640000 376.076000 1 1.000000 1 -3.000000
232 2 828.769000 -2776.920000 367.831000 1 1.000000 1 -3.000000
233 2 829.057000 -2781.260000 358.966000 1 1.000000 1 -3.000000
234 2 825.499000 -2781.750000 349.867000 1 1.000000 1 -3.000000
235 2 824.086000 -2786.250000 341.323000 1 1.000000 1 -3.000000
236 2 824.334000 -2792.410000 333.695000 1 1.000000 1 -3.000000
237 2 825.102000 -2797.330000 325.069000 1 1.000000 10 -3.000000
238 1 790.481000 -2770.600000 307.538000 1 1.000000 10 0.000000
239 3 815.482000 -2747.300000 314.967000 1 1.000000 10 0.000000
240 2 770.689000 -2729.530000 295.375000 1 1.000000 10 -3.000000
241 2 777.668000 -2722.610000 295.926000 1 1.000000 1 -3.000000
242 2 784.733000 -2715.740000 295.509000 1 1.000000 1 -3.000000
243 2 789.859000 -2707.180000 294.815000 1 1.000000 1 -3.000000
244 2 795.072000 -2699.980000 290.484000 1 1.000000 1 -3.000000
245 2 801.374000 -2693.510000 286.723000 1 1.000000 1 -3.000000
246 2 808.379000 -2687.550000 283.157000 1 1.000000 1 -3.000000
247 2 814.338000 -2680.130000 280.596000 1 1.000000 1 -3.000000
248 2 821.395000 -2673.220000 279.054000 1 1.000000 1 -3.000000
249 2 829.143000 -2667.270000 280.831000 1 1.000000 1 -3.000000
250 2 833.534000 -2661.360000 287.469000 1 1.000000 1 -3.000000
251 2 837.329000 -2656.440000 295.100000 1 1.000000 1 -3.000000
252 2 842.586000 -2650.130000 300.816000 1 1.000000 1 -3.000000
253 2 845.398000 -2644.360000 308.142000 1 1.000000 1 -3.000000
254 2 849.533000 -2639.400000 315.590000 1 1.000000 1 -3.000000
255 2 849.856000 -2633.150000 323.274000 1 1.000000 1 -3.000000
256 2 853.424000 -2632.110000 332.476000 1 1.000000 1 -3.000000
257 2 860.699000 -2632.230000 339.186000 1 1.000000 1 -3.000000
258 2 869.074000 -2632.400000 344.366000 1 1.000000 1 -3.000000
259 2 878.415000 -2633.090000 347.551000 1 1.000000 1 -3.000000
260 2 887.244000 -2631.790000 351.902000 1 1.000000 1 -3.000000
261 2 896.873000 -2630.770000 354.328000 1 1.000000 1 -3.000000
262 2 906.222000 -2629.360000 357.251000 1 1.000000 1 -3.000000
263 2 914.518000 -2626.260000 361.474000 1 1.000000 1 -3.000000
264 2 923.852000 -2623.290000 362.894000 1 1.000000 11 -3.000000
265 1 919.119000 -2591.060000 397.070000 1 1.000000 11 0.000000
266 3 892.809000 -2583.850000 375.342000 1 1.000000 11 0.000000
267 2 898.264000 -2554.020000 417.590000 1 1.000000 11 -3.000000
268 2 889.151000 -2553.260000 413.968000 1 1.000000 1 -3.000000
269 2 880.467000 -2553.240000 408.954000 1 1.000000 1 -3.000000
270 2 872.416000 -2554.670000 403.339000 1 1.000000 1 -3.000000
271 2 866.308000 -2554.610000 395.637000 1 1.000000 1 -3.000000
272 2 859.823000 -2557.680000 388.847000 1 1.000000 1 -3.000000
273 2 852.769000 -2563.710000 385.602000 1 1.000000 1 -3.000000
274 2 846.362000 -2570.330000 381.929000 1 1.000000 1 -3.000000
275 2 840.646000 -2578.520000 381.588000 1 1.000000 1 -3.000000
276 2 834.059000 -2585.940000 380.498000 1 1.000000 1 -3.000000
277 2 827.294000 -2592.280000 376.999000 1 1.000000 1 -3.000000
278 2 820.482000 -2599.140000 374.658000 1 1.000000 1 -3.000000
279 2 813.500000 -2604.310000 370.064000 1 1.000000 1 -3.000000
280 2 806.724000 -2609.060000 364.666000 1 1.000000 1 -3.000000
281 2 799.955000 -2613.050000 358.573000 1 1.000000 1 -3.000000
282 2 793.654000 -2618.940000 353.764000 1 1.000000 1 -3.000000
283 2 787.555000 -2625.490000 349.468000 1 1.000000 1 -3.000000
284 2 782.127000 -2633.120000 346.358000 1 1.000000 1 -3.000000
285 2 776.876000 -2641.370000 346.319000 1 1.000000 1 -3.000000
286 2 770.160000 -2648.540000 346.718000 1 1.000000 1 -3.000000
287 2 762.558000 -2653.970000 343.599000 1 1.000000 1 -3.000000
288 2 753.499000 -2657.070000 341.043000 1 1.000000 1 -3.000000
289 2 746.182000 -2660.740000 335.437000 1 1.000000 1 -3.000000
290 2 738.682000 -2666.450000 332.516000 1 1.000000 1 -3.000000
291 2 731.674000 -2672.020000 328.417000 1 1.000000 12 -3.000000
292 1 705.426000 -2665.440000 289.782000 1 1.000000 12 0.000000
293 3 724.848000 -2636.300000 291.567000 1 1.000000 12 0.000000
294 2 690.381000 -2640.480000 252.629000 1 1.000000 12 -3.000000
295 2 698.920000 -2635.500000 251.249000 1 1.000000 1 -3.000000
296 2 706.747000 -2629.580000 249.658000 1 1.000000 1 -3.000000
297 2 715.351000 -2624.700000 248.312000 1 1.000000 1 -3.000000
298 2 724.873000 -2621.680000 248.647000 1 1.000000 1 -3.000000
299 2 731.858000 -2615.020000 250.802000 1 1.000000 1 -3.000000
300 2 737.013000 -2608.520000 256.080000 1 1.000000 1 -3.000000
301 2 740.619000 -2602.510000 263.011000 1 1.000000 1 -3.000000
302 2 743.445000 -2598.300000 271.536000 1 1.000000 1 -3.000000
303 2 747.135000 -2596.040000 280.537000 1 1.000000 1 -3.000000
304 2 753.700000 -2593.910000 287.692000 1 1.000000 1 -3.000000
305 2 758.540000 -2590.100000 295.545000 1 1.000000 1 -3.000000
306 2 764.439000 -2586.690000 302.717000 1 1.000000 1 -3.000000
307 2 771.658000 -2583.790000 308.761000 1 1.000000 1 -3.000000
308 2 775.646000 -2578.360000 316.050000 1 1.000000 1 -3.000000
309 2 780.308000 -2571.510000 321.515000 1 1.000000 1 -3.000000
310 2 788.138000 -2565.770000 323.621000 1 1.000000 1 -3.000000
311 2 797.822000 -2564.820000 322.035000 1 1.000000 1 -3.000000
312 2 807.159000 -2564.800000 318.465000 1 1.000000 1 -3.000000
313 2 816.530000 -2565.590000 315.443000 1 1.000000 1 -3.000000
314 2 825.835000 -2567.870000 313.165000 1 1.000000 1 -3.000000
315 2 833.961000 -2569.690000 307.840000 1 1.000000 1 -3.000000
316 2 841.187000 -2575.050000 303.487000 1 1.000000 1 -3.000000
317 2 846.761000 -2580.240000 297.199000 1 1.000000 1 -3.000000
318 2 853.177000 -2585.850000 292.058000 1 1.000000 13 -3.000000
319 1 887.229000 -2556.270000 305.977000 1 1.000000 13 0.000000
320 3 857.840000 -2538.420000 312.388000 1 1.000000 13 0.000000
321 2 903.324000 -2514.440000 320.380000 1 1.000000 13 -3.000000
322 2 894.908000 -2511.400000 324.949000 1 1.000000 1 -3.000000
323 2 886.172000 -2506.920000 325.539000 1 1.000000 1 -3.000000
324 2 877.174000 -2502.810000 326.526000 1 1.000000 1 -3.000000
325 2 867.920000 -2499.800000 324.933000 1 1.000000 1 -3.000000
326 2 858.857000 -2496.650000 327.401000 1 1.000000 1 -3.000000
327 2 849.359000 -2493.690000 328.493000 1 1.000000 1 -3.000000
328 2 842.364000 -2490.350000 334.463000 1 1.000000 1 -3.000000
329 2 833.869000 -2486.440000 337.795000 1 1.000000 1 -3.000000
330 2 825.394000 -2483.910000 342.197000 1 1.000000 1 -3.000000
331 2 816.516000 -2483.110000 346.489000 1 1.000000 1 -3.000000
332 2 808.148000 -2480.370000 351.433000 1 1.000000 1 -3.000000
333 2 799.190000 -2478.980000 355.354000 1 1.000000 1 -3.000000
334 2 790.006000 -2478.500000 358.710000 1 1.000000 1 -3.000000
335 2 780.601000 -2478.890000 361.573000 1 1.000000 1 -3.000000
336 2 770.752000 -2479.860000 361.854000 1 1.000000 1 -3.000000
337 2 760.959000 -2479.360000 363.061000 1 1.000000 1 -3.000000
338 2 751.352000 -2476.960000 363.352000 1 1.000000 1 -3.000000
339 2 741.575000 -2477.550000 364.809000 1 1.000000 1 -3.000000
340 2 732.296000 -2478.490000 368.122000 1 1.000000 1 -3.000000
341 2 725.354000 -2474.370000 373.870000 1 1.000000 1 -3.000000
342 2 717.739000 -2474.520000 380.205000 1 1.000000 1 -3.000000
343 2 708.817000 -2474.520000 384.431000 1 1.000000 1 -3.000000
344 2 699.147000 -2473.930000 385.595000 1 1.000000 1 -3.000000
345 2 689.283000 -2473.880000 386.174000 1 1.000000 14 -3.000000
346 1 690.396000 -2520.230000 394.455000 1 1.000000 14 0.000000
347 3 718.115000 -2508.360000 412.192000 1 1.000000 14 0.000000
348 2 707.664000 -2559.160000 414.704000 1 1.000000 14 -3.000000
349 2 717.167000 -2556.480000 415.037000 1 1.000000 1 -3.000000
350 2 726.509000 -2554.560000 417.554000 1 1.000000 1 -3.000000
351 2 734.046000 -2548.470000 420.324000 1 1.000000 1 -3.000000
352 2 740.227000 -2542.380000 425.034000 1 1.000000 1 -3.000000
353 2 742.270000 -2536.840000 432.967000 1 1.000000 1 -3.000000
354 2 743.475000 -2530.360000 440.348000 1 1.000000 1 -3.000000
355 2 743.059000 -2523.000000 446.830000 1 1.000000 1 -3.000000
356 2 741.664000 -2515.110000 452.740000 1 1.000000 1 -3.000000
357 2 739.892000 -2507.200000 458.329000 1 1.000000 1 -3.000000
358 2 735.552000 -2499.800000 463.117000 1 1.000000 1 -3.000000
359 2 730.352000 -2492.100000 466.358000 1 1.000000 1 -3.000000
360 2 724.821000 -2484.550000 469.542000 1 1.000000 1 -3.000000
361 2 717.587000 -2477.880000 470.319000 1 1.000000 1 -3.000000
362 2 709.830000 -2471.820000 471.113000 1 1.000000 1 -3.000000
363 2 702.262000 -2465.850000 473.216000 1 1.000000 1 -3.000000
364 2 694.186000 -2463.490000 478.377000 1 1.000000 1 -3.000000
365 2 685.820000 -2458.940000 481.534000 1 1.000000 1 -3.000000
366 2 678.141000 -2453.720000 484.827000 1 1.000000 1 -3.000000
367 2 669.018000 -2450.090000 484.678000 1 1.000000 1 -3.000000
368 2 659.726000 -2449.210000 487.870000 1 1.000000 1 -3.000000
369 2 651.425000 -2447.390000 492.857000 1 1.000000 1 -3.000000
370 2 643.887000 -2445.590000 498.955000 1 1.000000 1 -3.000000
371 2 638.759000 -2445.420000 507.481000 1 1.000000 1 -3.000000
372 2 634.134000 -2444.890000 516.205000 1 1.000000 15 -3.000000
373 1 673.359000 -2437.010000 541.105000 1 1.000000 15 0.000000
374 3 667.534000 -2406.340000 525.660000 1 1.000000 15 0.000000
375 2 708.049000 -2409.600000 557.696000 1 1.000000 15 -3.000000
376 2 702.003000 -2402.060000 555.535000 1 1.000000 1 -3.000000
377 2 697.542000 -2393.420000 553.612000 1 1.000000 1 -3.000000
378 2 693.063000 -2385.000000 551.521000 1 1.000000 1 -3.000000
379 2 690.747000 -2375.370000 551.218000 1 1.000000 1 -3.000000
380 2 689.407000 -2365.690000 552.457000 1 1.000000 1 -3.000000
381 2 688.590000 -2356.100000 555.024000 1 1.000000 1 -3.000000
382 2 688.083000 -2346.230000 553.934000 1 1.000000 1 -3.000000
383 2 688.471000 -2336.290000 553.947000 1 1.000000 1 -3.000000
384 2 683.719000 -2327.680000 554.667000 1 1.000000 1 -3.000000
385 2 679.669000 -2318.920000 556.823000 1 1.000000 1 -3.000000
386 2 674.878000 -2310.660000 559.576000 1 1.000000 1 -3.000000
387 2 670.878000 -2302.150000 562.637000 1 1.000000 1 -3.000000
388 2 667.263000 -2293.150000 564.125000 1 1.000000 1 -3.000000
389 2 661.492000 -2285.450000 566.531000 1 1.000000 1 -3.000000
390 2 657.311000 -2276.800000 569.217000 1 1.000000 1 -3.000000
391 2 650.197000 -2271.410000 573.579000 1 1.000000 1 -3.000000
392 2 642.538000 -2270.040000 579.716000 1 1.000000 1 -3.000000
393 2 635.986000 -2270.420000 587.234000 1 1.000000 1 -3.000000
394 2 627.209000 -2269.860000 591.752000 1 1.000000 1 -3.000000
395 2 618.137000 -2269.480000 595.490000 1 1.000000 1 -3.000000
396 2 611.171000 -2266.080000 601.640000 1 1.000000 1 -3.000000
397 2 603.961000 -2260.410000 605.362000 1 1.000000 1 -3.000000
398 2 597.640000 -2253.210000 607.891000 1 1.000000 1 -3.000000
399 2 588.952000 -2248.640000 608.543000 1 1.000000 16 -3.000000
400 1 564.965000 -2288.480000 616.220000 1 1.000000 16 0.000000
401 3 594.470000 -2293.420000 634.309000 1 1.000000 16 0.000000
402 2 559.655000 -2331.910000 633.811000 1 1.000000 16 -3.000000
403 2 568.105000 -2333.250000 628.931000 1 1.000000 1 -3.000000
404 2 577.119000 -2337.330000 628.440000 1 1.000000 1 -3.000000
405 2 584.876000 -2343.180000 626.284000 1 1.000000 1 -3.000000
406 2 593.114000 -2346.780000 622.263000 1 1.000000 1 -3.000000
407 2 600.171000 -2351.640000 617.462000 1 1.000000 1 -3.000000
408 2 607.140000 -2356.460000 612.356000 1 1.000000 1 -3.000000
409 2 613.571000 -2363.020000 608.731000 1 1.000000 1 -3.000000
410 2 618.336000 -2369.150000 602.768000 1 1.000000 1 -3.000000
411 2 625.067000 -2375.630000 599.294000 1 1.000000 1 -3.000000
412 2 629.877000 -2382.990000 594.631000 1 1.000000 1 -3.000000
413 2 635.080000 -2390.270000 590.233000 1 1.000000 1 -3.000000
414 2 638.828000 -2392.080000 581.283000 1 1.000000 1 -3.000000
415 2 641.582000 -2392.100000 571.924000 1 1.000000 1 -3.000000
416 2 642.876000 -2390.280000 562.364000 1 1.000000 1 -3.000000
417 2 642.208000 -2391.970000 552.719000 1 1.000000 1 -3.000000
418 2 641.618000 -2394.100000 542.970000 1 1.000000 1 -3.000000
419 2 637.322000 -2397.250000 534.568000 1 1.000000 1 -3.000000
420 2 633.669000 -2397.680000 525.418000 1 1.000000 1 -3.000000
421 2 631.769000 -2394.960000 516.018000 1 1.000000 1 -3.000000
422 2 627.729000 -2390.160000 508.334000 1 1.000000 1 -3.000000
423 2 625.924000 -2384.630000 500.359000 1 1.000000 1 -3.000000
424 2 629.506000 -2377.910000 494.012000 1 1.000000 1 -3.000000
425 2 632.024000 -2370.530000 487.893000 1 1.000000 1 -3.000000
426 2 634.151000 -2363.960000 480.910000 1 1.000000 17 -3.000000
427 1 621.366000 -2329.800000 510.836000 1 1.000000 17 0.000000
428 3 632.290000 -2355.340000 532.196000 1 1.000000 17 0.000000
429 2 617.621000 -2310.440000 553.718000 1 1.000000 17 -3.000000
430 2 616.168000 -2315.570000 562.076000 1 1.000000 1 -3.000000
431 2 614.872000 -2321.870000 569.694000 1 1.000000 1 -3.000000
432 2 616.545000 -2328.030000 577.278000 1 1.000000 1 -3.000000
433 2 620.053000 -2328.690000 586.565000 1 1.000000 1 -3.000000
434 2 623.824000 -2329.230000 595.628000 1 1.000000 1 -3.000000
435 2 629.798000 -2331.700000 603.112000 1 1.000000 1 -3.000000
436 2 634.332000 -2332.950000 611.875000 1 1.000000 1 -3.000000
437 2 638.321000 -2336.010000 620.357000 1 1.000000 1 -3.000000
438 2 645.621000 -2339.470000 626.036000 1 1.000000 1 -3.000000
439 2 653.107000 -2344.710000 629.978000 1 1.000000 1 -3.000000
440 2 660.349000 -2351.300000 630.503000 1 1.000000 1 -3.000000
441 2 669.582000 -2353.970000 633.070000 1 1.000000 1 -3.000000
442 2 677.445000 -2359.320000 636.098000 1 1.000000 1 -3.000000
443 2 681.699000 -2365.170000 642.820000 1 1.000000 1 -3.000000
444 2 685.603000 -2372.260000 648.675000 1 1.000000 1 -3.000000
445 2 687.756000 -2380.860000 653.072000 1 1.000000 1 -3.000000
446 2 689.936000 -2388.510000 658.906000 1 1.000000 1 -3.000000
447 2 689.404000 -2397.760000 662.445000 1 1.000000 1 -3.000000
448 2 686.555000 -2407.020000 664.327000 1 1.000000 1 -3.000000
449 2 681.898000 -2415.320000 666.980000 1 1.000000 1 -3.000000
450 2 678.666000 -2424.580000 666.167000 1 1.000000 1 -3.000000
451 2 675.688000 -2433.860000 664.696000 1 1.000000 1 -3.000000
452 2 670.602000 -2441.540000 661.344000 1 1.000000 1 -3.000000
453 2 663.843000 -2448.280000 658.925000 1 1.000000 18 -3.000000
454 1 689.310000 -2458.550000 620.595000 1 1.000000 18 0.000000
455 3 706.581000 -2431.450000 634.466000 1 1.000000 18 0.000000
456 2 726.001000 -2452.970000 591.463000 1 1.000000 18 -3.000000
457 2 728.064000 -2445.950000 598.270000 1 1.000000 1 -3.000000
458 2 734.134000 -2441.420000 604.660000 1 1.000000 1 -3.000000
459 2 739.288000 -2434.450000 609.576000 1 1.000000 1 -3.000000
460 2 744.502000 -2429.500000 616.378000 1 1.000000 1 -3.000000
461 2 748.444000 -2426.470000 625.130000 1 1.000000 1 -3.000000
462 2 749.956000 -2421.790000 633.608000 1 1.000000 1 -3.000000
463 2 751.256000 -2417.990000 642.761000 1 1.000000 1 -3.000000
464 2 753.816000 -2416.370000 652.255000 1 1.000000 1 -3.000000
465 2 754.752000 -2413.590000 661.779000 1 1.000000 1 -3.000000