LAMMPS data file

4067 atoms
4067 ellipsoids
4516 bonds
8882 angles
0 dihedrals

3 atom types
5 bond types
12 angle types
0 dihedral types

-4631.092947 4670.465898 xlo xhi
-4631.092947 4670.465898 ylo yhi
-4631.092947 4670.465898 zlo zhi

Masses

1 196016.000000
2 1950.000000
3 19500.000000

Atoms

1 2 717.570000 -2923.970000 577.936000 1 1.000000 1 -3.000000
2 2 719.957000 -2928.890000 586.025000 1 1.000000 1 -3.000000
3 2 720.174000 -2936.200000 592.763000 1 1.000000 1 -3.000000
4 2 718.272000 -2942.020000 600.568000 1 1.000000 1 -3.000000
5 2 714.066000 -2946.800000 608.179000 1 1.000000 1 -3.000000
6 2 710.043000 -2948.450000 617.092000 1 1.000000 1 -3.000000
7 2 707.464000 -2953.800000 625.116000 1 1.000000 1 -3.000000
8 2 704.778000 -2957.710000 633.749000 1 1.000000 1 -3.000000
9 2 702.217000 -2964.210000 640.659000 1 1.000000 1 -3.000000
10 2 703.997000 -2970.280000 648.252000 1 1.000000 1 -3.000000
11 2 703.884000 -2978.140000 654.333000 1 1.000000 1 -3.000000
12 2 704.459000 -2985.790000 660.464000 1 1.000000 1 -3.000000
13 2 705.499000 -2991.530000 668.383000 1 1.000000 1 -3.000000
14 2 706.461000 -2997.800000 676.014000 1 1.000000 1 -3.000000
15 2 708.136000 -3002.660000 684.507000 1 1.000000 1 -3.000000
16 2 709.614000 -3005.420000 693.899000 1 1.000000 1 -3.000000
17 2 714.217000 -3009.720000 701.425000 1 1.000000 1 -3.000000
18 2 720.213000 -3013.200000 708.520000 1 1.000000 1 -3.000000
19 2 726.717000 -3017.290000 714.802000 1 1.000000 1 -3.000000
20 2 733.995000 -3018.670000 721.445000 1 1.000000 1 -3.000000
21 2 739.463000 -3021.900000 728.989000 1 1.000000 2 -3.000000
22 1 777.792000 -3013.890000 702.703000 1 1.000000 2 0.000000
23 3 751.831000 -3001.710000 682.662000 1 1.000000 2 0.000000
24 2 799.852000 -2998.970000 663.748000 1 1.000000 2 -3.000000
25 2 792.796000 -2995.800000 657.600000 1 1.000000 1 -3.000000
26 2 785.546000 -2989.280000 655.726000 1 1.000000 1 -3.000000
27 2 778.749000 -2982.210000 655.753000 1 1.000000 1 -3.000000
28 2 772.511000 -2974.510000 655.580000 1 1.000000 1 -3.000000
29 2 766.593000 -2966.480000 655.314000 1 1.000000 1 -3.000000
30 2 764.113000 -2957.570000 651.967000 1 1.000000 1 -3.000000
31 2 760.742000 -2948.640000 649.416000 1 1.000000 1 -3.000000
32 2 757.590000 -2939.260000 649.416000 1 1.000000 1 -3.000000
33 2 755.536000 -2930.170000 646.219000 1 1.000000 1 -3.000000
34 2 756.010000 -2921.760000 641.203000 1 1.000000 1 -3.000000
35 2 755.684000 -2912.250000 638.854000 1 1.000000 1 -3.000000
36 2 754.209000 -2902.630000 636.424000 1 1.000000 1 -3.000000
37 2 753.578000 -2893.140000 633.786000 1 1.000000 1 -3.000000
38 2 752.109000 -2883.910000 630.668000 1 1.000000 1 -3.000000
39 2 750.699000 -2874.370000 628.795000 1 1.000000 1 -3.000000
40 2 749.899000 -2865.200000 625.283000 1 1.000000 1 -3.000000
41 2 749.487000 -2855.900000 622.058000 1 1.000000 1 -3.000000
42 2 751.127000 -2846.290000 620.553000 1 1.000000 1 -3.000000
43 2 756.336000 -2838.020000 619.762000 1 1.000000 1 -3.000000
44 2 762.173000 -2830.070000 620.322000 1 1.000000 1 -3.000000
45 2 769.956000 -2824.050000 619.657000 1 1.000000 1 -3.000000
46 2 777.486000 -2817.640000 620.638000 1 1.000000 1 -3.000000
47 2 786.085000 -2812.630000 620.683000 1 1.000000 1 -3.000000
48 2 794.065000 -2806.870000 621.567000 1 1.000000 3 -3.000000
49 1 826.073000 -2841.460000 619.846000 1 1.000000 3 0.000000
50 3 797.678000 -2855.950000 605.134000 1 1.000000 3 0.000000
51 2 841.431000 -2883.970000 606.427000 1 1.000000 3 -3.000000
52 2 835.015000 -2891.280000 604.210000 1 1.000000 1 -3.000000
53 2 826.403000 -2894.960000 600.797000 1 1.000000 1 -3.000000
54 2 818.418000 -2893.920000 595.203000 1 1.000000 1 -3.000000
55 2 811.761000 -2893.730000 587.845000 1 1.000000 1 -3.000000
56 2 802.907000 -2894.330000 583.385000 1 1.000000 1 -3.000000
57 2 794.771000 -2893.730000 577.841000 1 1.000000 1 -3.000000
58 2 788.547000 -2895.380000 570.428000 1 1.000000 1 -3.000000
59 2 782.046000 -2895.180000 563.117000 1 1.000000 1 -3.000000
60 2 774.321000 -2898.460000 557.941000 1 1.000000 1 -3.000000
61 2 766.891000 -2903.740000 553.936000 1 1.000000 1 -3.000000
62 2 760.745000 -2908.520000 547.903000 1 1.000000 1 -3.000000
63 2 753.632000 -2912.690000 542.541000 1 1.000000 1 -3.000000
64 2 745.850000 -2915.920000 537.344000 1 1.000000 1 -3.000000
65 2 736.370000 -2917.710000 534.661000 1 1.000000 1 -3.000000
66 2 727.005000 -2917.930000 531.360000 1 1.000000 1 -3.000000
67 2 717.588000 -2915.500000 529.385000 1 1.000000 1 -3.000000
68 2 707.866000 -2916.110000 526.959000 1 1.000000 1 -3.000000
69 2 698.135000 -2914.970000 528.444000 1 1.000000 1 -3.000000
70 2 688.533000 -2913.700000 530.546000 1 1.000000 1 -3.000000
71 2 679.361000 -2910.200000 531.838000 1 1.000000 1 -3.000000
72 2 673.397000 -2908.030000 539.591000 1 1.000000 1 -3.000000
73 2 666.566000 -2904.780000 545.968000 1 1.000000 1 -3.000000
74 2 658.812000 -2900.480000 550.431000 1 1.000000 1 -3.000000
75 2 652.619000 -2894.500000 555.436000 1 1.000000 4 -3.000000
76 1 650.263000 -2856.760000 527.216000 1 1.000000 4 0.000000
77 3 659.989000 -2882.290000 505.488000 1 1.000000 4 0.000000
78 2 651.453000 -2835.160000 485.327000 1 1.000000 4 -3.000000
79 2 652.561000 -2842.040000 478.256000 1 1.000000 1 -3.000000
80 2 652.729000 -2849.410000 471.709000 1 1.000000 1 -3.000000
81 2 652.850000 -2858.410000 467.442000 1 1.000000 1 -3.000000
82 2 652.522000 -2867.550000 463.786000 1 1.000000 1 -3.000000
83 2 652.780000 -2877.410000 462.554000 1 1.000000 1 -3.000000
84 2 652.819000 -2887.290000 461.163000 1 1.000000 1 -3.000000
85 2 656.278000 -2896.460000 459.687000 1 1.000000 1 -3.000000
86 2 656.965000 -2905.970000 456.911000 1 1.000000 1 -3.000000
87 2 658.751000 -2915.660000 456.375000 1 1.000000 1 -3.000000
88 2 661.397000 -2924.160000 452.042000 1 1.000000 1 -3.000000
89 2 667.070000 -2931.830000 450.280000 1 1.000000 1 -3.000000
90 2 674.057000 -2938.830000 449.615000 1 1.000000 1 -3.000000
91 2 681.926000 -2944.580000 448.435000 1 1.000000 1 -3.000000
92 2 689.271000 -2950.330000 445.440000 1 1.000000 1 -3.000000
93 2 695.753000 -2957.770000 444.686000 1 1.000000 1 -3.000000
94 2 701.384000 -2965.710000 443.894000 1 1.000000 1 -3.000000
95 2 708.326000 -2972.690000 443.263000 1 1.000000 1 -3.000000
96 2 714.165000 -2980.670000 442.611000 1 1.000000 1 -3.000000
97 2 721.039000 -2987.670000 441.452000 1 1.000000 1 -3.000000
98 2 729.903000 -2991.140000 439.242000 1 1.000000 1 -3.000000
99 2 738.422000 -2994.550000 435.354000 1 1.000000 1 -3.000000
100 2 747.377000 -2997.400000 432.146000 1 1.000000 1 -3.000000
101 2 756.541000 -2998.050000 428.383000 1 1.000000 1 -3.000000
102 2 764.815000 -2999.360000 423.170000 1 1.000000 5 -3.000000
103 1 786.980000 -3016.040000 461.432000 1 1.000000 5 0.000000
104 3 756.113000 -3005.420000 473.832000 1 1.000000 5 0.000000
105 2 790.975000 -3023.670000 507.733000 1 1.000000 5 -3.000000
106 2 782.045000 -3019.730000 505.474000 1 1.000000 1 -3.000000
107 2 772.986000 -3015.920000 506.014000 1 1.000000 1 -3.000000
108 2 763.708000 -3014.060000 503.401000 1 1.000000 1 -3.000000
109 2 756.263000 -3012.870000 496.996000 1 1.000000 1 -3.000000
110 2 749.441000 -3007.570000 492.199000 1 1.000000 1 -3.000000
111 2 742.540000 -3002.330000 487.457000 1 1.000000 1 -3.000000
112 2 733.720000 -2998.710000 484.812000 1 1.000000 1 -3.000000
113 2 724.330000 -2995.540000 484.830000 1 1.000000 1 -3.000000
114 2 715.829000 -2990.710000 486.009000 1 1.000000 1 -3.000000
115 2 706.030000 -2988.600000 486.292000 1 1.000000 1 -3.000000
116 2 696.869000 -2987.450000 490.116000 1 1.000000 1 -3.000000
117 2 688.953000 -2987.170000 495.891000 1 1.000000 1 -3.000000
118 2 682.539000 -2989.610000 503.010000 1 1.000000 1 -3.000000
119 2 677.819000 -2992.120000 511.455000 1 1.000000 1 -3.000000
120 2 673.401000 -2998.080000 518.069000 1 1.000000 1 -3.000000
121 2 672.370000 -3006.770000 522.762000 1 1.000000 1 -3.000000
122 2 673.467000 -3016.560000 523.151000 1 1.000000 1 -3.000000
123 2 677.398000 -3025.320000 521.088000 1 1.000000 1 -3.000000
124 2 682.151000 -3033.550000 518.165000 1 1.000000 1 -3.000000
125 2 686.372000 -3038.910000 511.091000 1 1.000000 1 -3.000000
126 2 693.598000 -3039.510000 504.357000 1 1.000000 1 -3.000000
127 2 697.182000 -3044.050000 496.382000 1 1.000000 1 -3.000000
128 2 702.899000 -3048.930000 489.781000 1 1.000000 1 -3.000000
129 2 708.863000 -3053.770000 483.620000 1 1.000000 6 -3.000000
130 1 692.023000 -3025.990000 449.350000 1 1.000000 6 0.000000
131 3 675.587000 -3014.460000 477.988000 1 1.000000 6 0.000000
132 2 661.863000 -2993.880000 432.243000 1 1.000000 6 -3.000000
133 2 657.964000 -2988.180000 439.482000 1 1.000000 1 -3.000000
134 2 654.210000 -2984.140000 447.720000 1 1.000000 1 -3.000000
135 2 650.704000 -2982.210000 456.795000 1 1.000000 1 -3.000000
136 2 645.697000 -2981.120000 465.357000 1 1.000000 1 -3.000000
137 2 640.079000 -2985.070000 472.450000 1 1.000000 1 -3.000000
138 2 632.535000 -2989.390000 477.095000 1 1.000000 1 -3.000000
139 2 623.754000 -2989.790000 481.820000 1 1.000000 1 -3.000000
140 2 616.972000 -2987.860000 488.957000 1 1.000000 1 -3.000000
141 2 610.547000 -2984.690000 495.903000 1 1.000000 1 -3.000000
142 2 602.413000 -2980.190000 498.987000 1 1.000000 1 -3.000000
143 2 595.522000 -2974.150000 502.756000 1 1.000000 1 -3.000000
144 2 587.526000 -2969.430000 506.290000 1 1.000000 1 -3.000000
145 2 579.701000 -2964.360000 509.776000 1 1.000000 1 -3.000000
146 2 571.956000 -2959.420000 513.408000 1 1.000000 1 -3.000000
147 2 563.198000 -2956.950000 517.167000 1 1.000000 1 -3.000000
148 2 553.832000 -2956.550000 520.020000 1 1.000000 1 -3.000000
149 2 545.713000 -2951.070000 520.696000 1 1.000000 1 -3.000000
150 2 537.280000 -2946.190000 518.916000 1 1.000000 1 -3.000000
151 2 530.416000 -2939.470000 516.790000 1 1.000000 1 -3.000000
152 2 524.715000 -2933.290000 511.378000 1 1.000000 1 -3.000000
153 2 517.677000 -2926.680000 509.562000 1 1.000000 1 -3.000000
154 2 510.712000 -2919.590000 509.213000 1 1.000000 1 -3.000000
155 2 504.345000 -2912.330000 506.909000 1 1.000000 1 -3.000000
156 2 499.318000 -2903.820000 506.666000 1 1.000000 7 -3.000000
157 1 468.635000 -2923.050000 536.748000 1 1.000000 7 0.000000
158 3 493.262000 -2947.760000 533.988000 1 1.000000 7 0.000000
159 2 453.374000 -2956.930000 565.845000 1 1.000000 7 -3.000000
160 2 462.281000 -2960.950000 564.559000 1 1.000000 1 -3.000000
161 2 471.296000 -2964.040000 562.028000 1 1.000000 1 -3.000000
162 2 478.160000 -2967.220000 555.847000 1 1.000000 1 -3.000000
163 2 481.773000 -2968.360000 546.813000 1 1.000000 1 -3.000000
164 2 483.506000 -2967.150000 537.127000 1 1.000000 1 -3.000000
165 2 482.796000 -2967.460000 527.367000 1 1.000000 1 -3.000000
166 2 481.154000 -2965.820000 517.834000 1 1.000000 1 -3.000000
167 2 479.949000 -2963.260000 508.261000 1 1.000000 1 -3.000000
168 2 477.656000 -2960.710000 498.954000 1 1.000000 1 -3.000000
169 2 474.527000 -2959.960000 489.663000 1 1.000000 1 -3.000000
170 2 469.776000 -2958.120000 481.185000 1 1.000000 1 -3.000000
171 2 465.282000 -2956.370000 472.479000 1 1.000000 1 -3.000000
172 2 462.416000 -2955.070000 463.065000 1 1.000000 1 -3.000000
173 2 457.442000 -2955.090000 454.559000 1 1.000000 1 -3.000000
174 2 454.073000 -2953.390000 445.468000 1 1.000000 1 -3.000000
175 2 450.653000 -2950.910000 436.596000 1 1.000000 1 -3.000000
176 2 446.145000 -2946.890000 428.783000 1 1.000000 1 -3.000000
177 2 439.195000 -2941.530000 424.351000 1 1.000000 1 -3.000000
178 2 435.121000 -2936.560000 416.782000 1 1.000000 1 -3.000000
179 2 429.909000 -2932.940000 409.162000 1 1.000000 1 -3.000000
180 2 426.126000 -2931.290000 400.169000 1 1.000000 1 -3.000000
181 2 422.144000 -2927.440000 391.979000 1 1.000000 1 -3.000000
182 2 418.899000 -2923.480000 383.621000 1 1.000000 1 -3.000000
183 2 414.699000 -2920.410000 375.149000 1 1.000000 8 -3.000000
184 1 440.707000 -2881.180000 371.019000 1 1.000000 8 0.000000
185 3 452.037000 -2895.140000 401.107000 1 1.000000 8 0.000000
186 2 471.903000 -2849.500000 386.432000 1 1.000000 8 -3.000000
187 2 469.965000 -2852.010000 395.861000 1 1.000000 1 -3.000000
188 2 467.142000 -2856.100000 404.411000 1 1.000000 1 -3.000000
189 2 465.165000 -2860.640000 413.057000 1 1.000000 1 -3.000000
190 2 461.462000 -2864.340000 421.426000 1 1.000000 1 -3.000000
191 2 460.109000 -2865.290000 431.180000 1 1.000000 1 -3.000000
192 2 459.450000 -2863.950000 440.973000 1 1.000000 1 -3.000000
193 2 461.115000 -2861.360000 450.397000 1 1.000000 1 -3.000000
194 2 457.699000 -2858.400000 459.323000 1 1.000000 1 -3.000000
195 2 454.176000 -2851.460000 465.400000 1 1.000000 1 -3.000000
196 2 447.772000 -2845.590000 470.032000 1 1.000000 1 -3.000000
197 2 443.316000 -2837.280000 472.887000 1 1.000000 1 -3.000000
198 2 440.338000 -2828.020000 473.302000 1 1.000000 1 -3.000000
199 2 437.742000 -2818.800000 475.793000 1 1.000000 1 -3.000000
200 2 437.732000 -2809.410000 479.277000 1 1.000000 1 -3.000000
201 2 438.014000 -2800.250000 482.863000 1 1.000000 1 -3.000000
202 2 437.855000 -2790.700000 485.771000 1 1.000000 1 -3.000000
203 2 436.238000 -2781.380000 488.746000 1 1.000000 1 -3.000000
204 2 434.633000 -2771.580000 489.224000 1 1.000000 1 -3.000000
205 2 432.695000 -2761.990000 490.475000 1 1.000000 1 -3.000000
206 2 434.262000 -2752.670000 492.939000 1 1.000000 1 -3.000000
207 2 438.619000 -2743.940000 494.719000 1 1.000000 1 -3.000000
208 2 443.828000 -2735.720000 492.667000 1 1.000000 1 -3.000000
209 2 448.024000 -2727.580000 488.884000 1 1.000000 1 -3.000000
210 2 452.852000 -2720.310000 483.982000 1 1.000000 9 -3.000000
211 1 431.472000 -2702.390000 445.943000 1 1.000000 9 0.000000
212 3 417.579000 -2734.480000 448.601000 1 1.000000 9 0.000000
213 2 401.639000 -2704.220000 409.477000 1 1.000000 9 -3.000000
214 2 395.135000 -2709.020000 415.062000 1 1.000000 1 -3.000000
215 2 387.833000 -2713.200000 420.398000 1 1.000000 1 -3.000000
216 2 383.158000 -2713.380000 429.050000 1 1.000000 1 -3.000000
217 2 377.621000 -2717.050000 436.314000 1 1.000000 1 -3.000000
218 2 369.472000 -2717.530000 442.026000 1 1.000000 1 -3.000000
219 2 361.644000 -2719.100000 447.757000 1 1.000000 1 -3.000000
220 2 354.468000 -2724.020000 452.305000 1 1.000000 1 -3.000000
221 2 347.530000 -2730.420000 455.064000 1 1.000000 1 -3.000000
222 2 340.085000 -2735.370000 459.508000 1 1.000000 1 -3.000000
223 2 331.207000 -2739.690000 460.794000 1 1.000000 1 -3.000000
224 2 322.278000 -2743.980000 461.171000 1 1.000000 1 -3.000000
225 2 313.442000 -2748.260000 460.203000 1 1.000000 1 -3.000000
226 2 304.181000 -2751.510000 459.106000 1 1.000000 1 -3.000000
227 2 295.453000 -2755.110000 456.242000 1 1.000000 1 -3.000000
228 2 287.406000 -2758.890000 451.676000 1 1.000000 1 -3.000000
229 2 281.684000 -2761.720000 444.111000 1 1.000000 1 -3.000000
230 2 277.664000 -2765.230000 435.771000 1 1.000000 1 -3.000000
231 2 273.838000 -2770.820000 428.612000 1 1.000000 1 -3.000000
232 2 268.944000 -2775.940000 421.698000 1 1.000000 1 -3.000000
233 2 264.801000 -2782.060000 414.911000 1 1.000000 1 -3.000000
234 2 256.714000 -2785.210000 410.061000 1 1.000000 1 -3.000000
235 2 249.416000 -2790.560000 405.929000 1 1.000000 1 -3.000000
236 2 243.855000 -2796.890000 400.715000 1 1.000000 1 -3.000000
237 2 237.564000 -2800.470000 394.008000 1 1.000000 10 -3.000000
238 1 263.213000 -2781.050000 359.540000 1 1.000000 10 0.000000
239 3 284.792000 -2780.150000 386.939000 1 1.000000 10 0.000000
240 2 303.140000 -2764.000000 341.079000 1 1.000000 10 -3.000000
241 2 307.689000 -2759.620000 348.823000 1 1.000000 1 -3.000000
242 2 313.562000 -2754.150000 354.817000 1 1.000000 1 -3.000000
243 2 316.609000 -2745.440000 358.303000 1 1.000000 1 -3.000000
244 2 319.305000 -2736.710000 361.892000 1 1.000000 1 -3.000000
245 2 319.988000 -2728.060000 366.537000 1 1.000000 1 -3.000000
246 2 319.925000 -2719.110000 370.527000 1 1.000000 1 -3.000000
247 2 320.787000 -2710.420000 375.286000 1 1.000000 1 -3.000000
248 2 319.910000 -2701.720000 379.911000 1 1.000000 1 -3.000000
249 2 322.058000 -2693.730000 385.297000 1 1.000000 1 -3.000000
250 2 322.187000 -2684.990000 390.037000 1 1.000000 1 -3.000000
251 2 319.528000 -2675.980000 393.246000 1 1.000000 1 -3.000000
252 2 316.693000 -2667.090000 396.651000 1 1.000000 1 -3.000000
253 2 313.970000 -2658.670000 401.148000 1 1.000000 1 -3.000000
254 2 308.401000 -2652.680000 406.791000 1 1.000000 1 -3.000000
255 2 303.374000 -2648.380000 414.215000 1 1.000000 1 -3.000000
256 2 298.709000 -2642.520000 420.521000 1 1.000000 1 -3.000000
257 2 295.958000 -2634.900000 426.015000 1 1.000000 1 -3.000000
258 2 291.493000 -2629.130000 432.754000 1 1.000000 1 -3.000000
259 2 286.938000 -2624.470000 440.227000 1 1.000000 1 -3.000000
260 2 285.535000 -2618.060000 447.621000 1 1.000000 1 -3.000000
261 2 284.002000 -2610.440000 453.906000 1 1.000000 1 -3.000000
262 2 283.313000 -2601.810000 458.681000 1 1.000000 1 -3.000000
263 2 283.580000 -2592.960000 462.852000 1 1.000000 1 -3.000000
264 2 283.261000 -2584.320000 467.578000 1 1.000000 11 -3.000000
265 1 294.135000 -2555.840000 431.601000 1 1.000000 11 0.000000
266 3 286.798000 -2586.200000 415.804000 1 1.000000 11 0.000000
267 2 301.293000 -2546.300000 385.943000 1 1.000000 11 -3.000000
268 2 296.658000 -2554.190000 382.130000 1 1.000000 1 -3.000000
269 2 291.848000 -2561.900000 378.128000 1 1.000000 1 -3.000000
270 2 288.709000 -2570.330000 373.855000 1 1.000000 1 -3.000000
271 2 285.908000 -2579.630000 371.853000 1 1.000000 1 -3.000000
272 2 286.118000 -2589.560000 372.324000 1 1.000000 1 -3.000000
273 2 288.443000 -2599.050000 372.355000 1 1.000000 1 -3.000000
274 2 293.328000 -2607.580000 372.495000 1 1.000000 1 -3.000000
275 2 299.972000 -2614.830000 371.268000 1 1.000000 1 -3.000000
276 2 307.139000 -2619.240000 366.245000 1 1.000000 1 -3.000000
277 2 314.758000 -2623.410000 361.359000 1 1.000000 1 -3.000000
278 2 323.567000 -2626.470000 358.155000 1 1.000000 1 -3.000000
279 2 331.660000 -2627.100000 352.447000 1 1.000000 1 -3.000000
280 2 340.710000 -2628.290000 348.632000 1 1.000000 1 -3.000000
281 2 349.649000 -2631.690000 346.253000 1 1.000000 1 -3.000000
282 2 358.806000 -2633.340000 342.940000 1 1.000000 1 -3.000000
283 2 367.627000 -2634.570000 338.706000 1 1.000000 1 -3.000000
284 2 375.905000 -2638.410000 334.654000 1 1.000000 1 -3.000000
285 2 383.088000 -2640.070000 328.071000 1 1.000000 1 -3.000000
286 2 390.408000 -2643.600000 322.339000 1 1.000000 1 -3.000000
287 2 396.070000 -2648.440000 315.982000 1 1.000000 1 -3.000000
288 2 401.052000 -2652.650000 308.504000 1 1.000000 1 -3.000000
289 2 410.131000 -2655.170000 305.421000 1 1.000000 1 -3.000000
290 2 420.062000 -2655.970000 306.217000 1 1.000000 1 -3.000000
291 2 429.221000 -2658.970000 303.880000 1 1.000000 12 -3.000000
292 1 454.102000 -2683.610000 335.501000 1 1.000000 12 0.000000
293 3 425.161000 -2674.990000 353.054000 1 1.000000 12 0.000000
294 2 460.549000 -2704.060000 377.509000 1 1.000000 12 -3.000000
295 2 456.459000 -2695.850000 381.201000 1 1.000000 1 -3.000000
296 2 452.882000 -2687.000000 383.702000 1 1.000000 1 -3.000000
297 2 449.003000 -2680.220000 389.698000 1 1.000000 1 -3.000000
298 2 445.474000 -2673.920000 396.470000 1 1.000000 1 -3.000000
299 2 442.696000 -2668.470000 404.262000 1 1.000000 1 -3.000000
300 2 440.540000 -2663.170000 412.344000 1 1.000000 1 -3.000000
301 2 441.409000 -2657.320000 420.367000 1 1.000000 1 -3.000000
302 2 442.750000 -2652.770000 429.094000 1 1.000000 1 -3.000000
303 2 444.471000 -2645.940000 435.993000 1 1.000000 1 -3.000000
304 2 445.983000 -2638.850000 442.720000 1 1.000000 1 -3.000000
305 2 449.002000 -2632.550000 449.551000 1 1.000000 1 -3.000000
306 2 453.459000 -2625.730000 455.291000 1 1.000000 1 -3.000000
307 2 456.395000 -2617.790000 460.379000 1 1.000000 1 -3.000000
308 2 461.335000 -2611.520000 466.460000 1 1.000000 1 -3.000000
309 2 468.028000 -2604.990000 469.441000 1 1.000000 1 -3.000000
310 2 474.628000 -2598.960000 473.533000 1 1.000000 1 -3.000000
311 2 479.619000 -2590.960000 477.121000 1 1.000000 1 -3.000000
312 2 485.629000 -2583.840000 480.658000 1 1.000000 1 -3.000000
313 2 492.177000 -2576.470000 481.502000 1 1.000000 1 -3.000000
314 2 497.983000 -2568.440000 481.431000 1 1.000000 1 -3.000000
315 2 503.469000 -2561.570000 477.023000 1 1.000000 1 -3.000000
316 2 508.342000 -2553.660000 473.444000 1 1.000000 1 -3.000000
317 2 511.014000 -2545.190000 469.255000 1 1.000000 1 -3.000000
318 2 514.867000 -2537.210000 464.528000 1 1.000000 13 -3.000000
319 1 529.177000 -2517.150000 504.770000 1 1.000000 13 0.000000
320 3 523.689000 -2550.490000 513.866000 1 1.000000 13 0.000000
321 2 537.250000 -2517.130000 551.266000 1 1.000000 13 -3.000000
322 2 540.228000 -2526.610000 551.504000 1 1.000000 1 -3.000000
323 2 544.656000 -2535.400000 551.170000 1 1.000000 1 -3.000000
324 2 545.681000 -2544.960000 553.799000 1 1.000000 1 -3.000000
325 2 546.476000 -2554.820000 552.862000 1 1.000000 1 -3.000000
326 2 546.697000 -2563.250000 547.734000 1 1.000000 1 -3.000000
327 2 546.730000 -2571.640000 542.499000 1 1.000000 1 -3.000000
328 2 543.309000 -2580.220000 538.694000 1 1.000000 1 -3.000000
329 2 538.841000 -2588.430000 535.586000 1 1.000000 1 -3.000000
330 2 539.445000 -2597.470000 531.697000 1 1.000000 1 -3.000000
331 2 540.106000 -2605.870000 526.819000 1 1.000000 1 -3.000000
332 2 539.872000 -2615.500000 525.389000 1 1.000000 1 -3.000000
333 2 540.805000 -2625.230000 527.567000 1 1.000000 1 -3.000000
334 2 540.009000 -2634.970000 529.114000 1 1.000000 1 -3.000000
335 2 539.034000 -2642.560000 535.372000 1 1.000000 1 -3.000000
336 2 538.447000 -2646.840000 544.171000 1 1.000000 1 -3.000000
337 2 536.523000 -2653.440000 551.196000 1 1.000000 1 -3.000000
338 2 536.080000 -2658.030000 559.857000 1 1.000000 1 -3.000000
339 2 534.618000 -2661.360000 569.008000 1 1.000000 1 -3.000000
340 2 531.172000 -2662.150000 578.206000 1 1.000000 1 -3.000000
341 2 525.279000 -2661.250000 586.021000 1 1.000000 1 -3.000000
342 2 518.298000 -2660.290000 592.941000 1 1.000000 1 -3.000000
343 2 514.506000 -2659.830000 602.034000 1 1.000000 1 -3.000000
344 2 510.875000 -2662.200000 610.891000 1 1.000000 1 -3.000000
345 2 509.391000 -2664.990000 620.276000 1 1.000000 14 -3.000000
346 1 549.644000 -2652.300000 641.193000 1 1.000000 14 0.000000
347 3 553.953000 -2641.290000 608.339000 1 1.000000 14 0.000000
348 2 593.735000 -2635.550000 641.245000 1 1.000000 14 -3.000000
349 2 592.407000 -2632.760000 631.819000 1 1.000000 1 -3.000000
350 2 590.203000 -2627.700000 623.622000 1 1.000000 1 -3.000000
351 2 590.769000 -2621.930000 615.542000 1 1.000000 1 -3.000000
352 2 592.914000 -2615.200000 608.524000 1 1.000000 1 -3.000000
353 2 593.975000 -2610.570000 599.876000 1 1.000000 1 -3.000000
354 2 594.484000 -2608.190000 590.389000 1 1.000000 1 -3.000000
355 2 594.113000 -2608.610000 580.474000 1 1.000000 1 -3.000000
356 2 594.237000 -2613.090000 571.552000 1 1.000000 1 -3.000000
357 2 595.488000 -2616.870000 562.597000 1 1.000000 1 -3.000000
358 2 600.509000 -2618.250000 554.237000 1 1.000000 1 -3.000000
359 2 607.703000 -2618.620000 547.208000 1 1.000000 1 -3.000000
360 2 615.500000 -2620.550000 541.508000 1 1.000000 1 -3.000000
361 2 622.104000 -2619.860000 534.333000 1 1.000000 1 -3.000000
362 2 629.647000 -2619.090000 527.672000 1 1.000000 1 -3.000000
363 2 637.673000 -2620.240000 521.838000 1 1.000000 1 -3.000000
364 2 642.306000 -2619.850000 512.989000 1 1.000000 1 -3.000000
365 2 643.796000 -2619.650000 503.121000 1 1.000000 1 -3.000000
366 2 644.792000 -2621.980000 493.523000 1 1.000000 1 -3.000000
367 2 645.620000 -2621.240000 483.697000 1 1.000000 1 -3.000000
368 2 648.557000 -2625.710000 475.337000 1 1.000000 1 -3.000000
369 2 650.329000 -2626.310000 465.611000 1 1.000000 1 -3.000000
370 2 652.352000 -2626.510000 455.937000 1 1.000000 1 -3.000000
371 2 654.801000 -2627.780000 446.338000 1 1.000000 1 -3.000000
372 2 657.378000 -2628.900000 436.762000 1 1.000000 15 -3.000000
373 1 689.970000 -2659.290000 452.458000 1 1.000000 15 0.000000
374 3 668.126000 -2656.130000 479.710000 1 1.000000 15 0.000000
375 2 706.261000 -2691.150000 483.374000 1 1.000000 15 -3.000000
376 2 697.978000 -2692.830000 488.584000 1 1.000000 1 -3.000000
377 2 689.960000 -2693.020000 494.708000 1 1.000000 1 -3.000000
378 2 681.572000 -2693.530000 499.911000 1 1.000000 1 -3.000000
379 2 674.043000 -2690.570000 505.541000 1 1.000000 1 -3.000000
380 2 665.487000 -2687.180000 509.337000 1 1.000000 1 -3.000000
381 2 655.866000 -2684.870000 510.061000 1 1.000000 1 -3.000000
382 2 647.185000 -2681.390000 506.632000 1 1.000000 1 -3.000000
383 2 639.744000 -2675.930000 503.014000 1 1.000000 1 -3.000000
384 2 633.933000 -2671.610000 496.215000 1 1.000000 1 -3.000000
385 2 627.590000 -2666.690000 490.294000 1 1.000000 1 -3.000000
386 2 618.796000 -2664.010000 486.529000 1 1.000000 1 -3.000000
387 2 613.002000 -2658.550000 480.555000 1 1.000000 1 -3.000000
388 2 608.733000 -2650.150000 477.475000 1 1.000000 1 -3.000000
389 2 601.937000 -2645.280000 472.315000 1 1.000000 1 -3.000000
390 2 596.048000 -2638.910000 467.386000 1 1.000000 1 -3.000000
391 2 591.459000 -2631.640000 462.471000 1 1.000000 1 -3.000000
392 2 588.700000 -2624.480000 456.258000 1 1.000000 1 -3.000000
393 2 585.223000 -2616.720000 451.178000 1 1.000000 1 -3.000000
394 2 582.226000 -2609.420000 445.162000 1 1.000000 1 -3.000000
395 2 582.975000 -2601.640000 439.064000 1 1.000000 1 -3.000000
396 2 581.646000 -2594.180000 432.889000 1 1.000000 1 -3.000000
397 2 579.225000 -2586.280000 427.683000 1 1.000000 1 -3.000000
398 2 577.186000 -2577.450000 423.871000 1 1.000000 1 -3.000000
399 2 578.065000 -2567.870000 421.671000 1 1.000000 16 -3.000000
400 1 618.279000 -2567.420000 396.947000 1 1.000000 16 0.000000
401 3 597.759000 -2588.400000 378.212000 1 1.000000 16 0.000000
402 2 646.329000 -2581.590000 361.834000 1 1.000000 16 -3.000000
403 2 639.219000 -2587.130000 357.569000 1 1.000000 1 -3.000000
404 2 633.341000 -2590.830000 350.731000 1 1.000000 1 -3.000000
405 2 625.759000 -2594.300000 345.205000 1 1.000000 1 -3.000000
406 2 619.064000 -2599.060000 339.667000 1 1.000000 1 -3.000000
407 2 611.224000 -2600.750000 333.970000 1 1.000000 1 -3.000000
408 2 605.534000 -2598.940000 325.993000 1 1.000000 1 -3.000000
409 2 599.862000 -2595.090000 318.921000 1 1.000000 1 -3.000000
410 2 592.444000 -2591.540000 313.341000 1 1.000000 1 -3.000000
411 2 585.093000 -2587.550000 308.333000 1 1.000000 1 -3.000000
412 2 577.758000 -2584.120000 302.570000 1 1.000000 1 -3.000000
413 2 574.598000 -2579.880000 294.271000 1 1.000000 1 -3.000000
414 2 569.404000 -2577.830000 286.135000 1 1.000000 1 -3.000000
415 2 562.717000 -2576.000000 279.210000 1 1.000000 1 -3.000000
416 2 559.398000 -2571.090000 271.167000 1 1.000000 1 -3.000000
417 2 552.399000 -2565.540000 266.944000 1 1.000000 1 -3.000000
418 2 543.659000 -2562.140000 263.930000 1 1.000000 1 -3.000000
419 2 535.064000 -2557.550000 262.419000 1 1.000000 1 -3.000000
420 2 528.095000 -2551.670000 258.633000 1 1.000000 1 -3.000000
421 2 519.218000 -2548.410000 255.832000 1 1.000000 1 -3.000000
422 2 509.449000 -2549.690000 255.069000 1 1.000000 1 -3.000000
423 2 499.712000 -2551.530000 255.955000 1 1.000000 1 -3.000000
424 2 491.186000 -2556.280000 257.907000 1 1.000000 1 -3.000000
425 2 483.865000 -2562.070000 261.193000 1 1.000000 1 -3.000000
426 2 476.182000 -2568.200000 262.543000 1 1.000000 17 -3.000000
427 1 493.896000 -2597.400000 295.128000 1 1.000000 17 0.000000
428 3 513.308000 -2568.490000 298.962000 1 1.000000 17 0.000000
429 2 524.983000 -2609.590000 328.448000 1 1.000000 17 -3.000000
430 2 529.722000 -2601.320000 331.030000 1 1.000000 1 -3.000000
431 2 532.892000 -2592.310000 333.450000 1 1.000000 1 -3.000000
432 2 538.032000 -2584.460000 330.212000 1 1.000000 1 -3.000000
433 2 542.005000 -2575.640000 328.049000 1 1.000000 1 -3.000000
434 2 547.898000 -2567.750000 327.982000 1 1.000000 1 -3.000000
435 2 554.257000 -2561.270000 323.943000 1 1.000000 1 -3.000000
436 2 562.574000 -2556.060000 323.742000 1 1.000000 1 -3.000000
437 2 569.175000 -2549.770000 319.797000 1 1.000000 1 -3.000000
438 2 576.798000 -2543.910000 318.113000 1 1.000000 1 -3.000000
439 2 583.481000 -2536.650000 316.895000 1 1.000000 1 -3.000000
440 2 587.723000 -2527.780000 318.391000 1 1.000000 1 -3.000000
441 2 593.035000 -2519.880000 321.143000 1 1.000000 1 -3.000000
442 2 598.152000 -2511.900000 323.805000 1 1.000000 1 -3.000000
443 2 602.361000 -2503.350000 326.237000 1 1.000000 1 -3.000000
444 2 605.144000 -2493.990000 328.007000 1 1.000000 1 -3.000000
445 2 608.026000 -2485.140000 331.327000 1 1.000000 1 -3.000000
446 2 610.289000 -2478.110000 337.886000 1 1.000000 1 -3.000000
447 2 618.090000 -2472.230000 339.307000 1 1.000000 1 -3.000000
448 2 624.313000 -2465.710000 343.198000 1 1.000000 1 -3.000000
449 2 631.454000 -2459.360000 345.714000 1 1.000000 1 -3.000000
450 2 637.877000 -2452.170000 347.928000 1 1.000000 1 -3.000000
451 2 641.550000 -2443.010000 348.266000 1 1.000000 1 -3.000000
452 2 646.745000 -2434.500000 348.594000 1 1.000000 1 -3.000000
453 2 652.336000 -2426.460000 347.050000 1 1.000000 18 -3.000000
454 1 627.803000 -2404.700000 313.165000 1 1.000000 18 0.000000
455 3 606.503000 -2430.550000 323.358000 1 1.000000 18 0.000000
456 2 589.946000 -2398.860000 285.550000 1 1.000000 18 -3.000000
457 2 586.195000 -2405.820000 291.512000 1 1.000000 1 -3.000000
458 2 579.977000 -2410.520000 297.716000 1 1.000000 1 -3.000000
459 2 574.126000 -2414.970000 304.366000 1 1.000000 1 -3.000000
460 2 566.262000 -2420.040000 307.464000 1 1.000000 1 -3.000000
461 2 560.256000 -2427.220000 310.542000 1 1.000000 1 -3.000000
462 2 552.937000 -2433.670000 312.535000 1 1.000000 1 -3.000000
463 2 545.387000 -2439.980000 311.877000 1 1.000000 1 -3.000000
464 2 537.821000 -2446.400000 313.146000 1 1.000000 1 -3.000000
465 2 528.940000 -2450.380000 315.269000 1 1.000000 1 -3.000000