LAMMPS data file

4067 atoms
4067 ellipsoids
4516 bonds
8882 angles
0 dihedrals

3 atom types
5 bond types
12 angle types
0 dihedral types

-4631.092947 4670.465898 xlo xhi
-4631.092947 4670.465898 ylo yhi
-4631.092947 4670.465898 zlo zhi

Masses

1 196016.000000
2 1950.000000
3 19500.000000

Atoms

1 2 854.442000 -3384.320000 664.330000 1 1.000000 1 -3.000000
2 2 847.870000 -3391.220000 661.905000 1 1.000000 1 -3.000000
3 2 839.413000 -3396.080000 660.182000 1 1.000000 1 -3.000000
4 2 831.440000 -3400.120000 655.780000 1 1.000000 1 -3.000000
5 2 825.641000 -3404.030000 648.736000 1 1.000000 1 -3.000000
6 2 818.759000 -3408.910000 643.579000 1 1.000000 1 -3.000000
7 2 810.578000 -3411.960000 638.600000 1 1.000000 1 -3.000000
8 2 804.429000 -3415.890000 631.788000 1 1.000000 1 -3.000000
9 2 798.025000 -3419.880000 625.376000 1 1.000000 1 -3.000000
10 2 788.868000 -3420.260000 621.829000 1 1.000000 1 -3.000000
11 2 779.283000 -3421.000000 619.463000 1 1.000000 1 -3.000000
12 2 769.516000 -3422.010000 620.761000 1 1.000000 1 -3.000000
13 2 759.865000 -3424.410000 619.635000 1 1.000000 1 -3.000000
14 2 750.300000 -3426.000000 617.829000 1 1.000000 1 -3.000000
15 2 741.320000 -3426.610000 613.562000 1 1.000000 1 -3.000000
16 2 731.691000 -3425.150000 611.442000 1 1.000000 1 -3.000000
17 2 722.378000 -3426.190000 608.125000 1 1.000000 1 -3.000000
18 2 714.144000 -3424.130000 603.079000 1 1.000000 1 -3.000000
19 2 705.678000 -3422.110000 598.336000 1 1.000000 1 -3.000000
20 2 696.113000 -3422.700000 596.031000 1 1.000000 1 -3.000000
21 2 686.399000 -3422.200000 594.380000 1 1.000000 2 -3.000000
22 1 668.086000 -3393.430000 626.947000 1 1.000000 2 0.000000
23 3 701.510000 -3396.600000 636.805000 1 1.000000 2 0.000000
24 2 670.848000 -3365.310000 664.770000 1 1.000000 2 -3.000000
25 2 679.655000 -3368.870000 668.094000 1 1.000000 1 -3.000000
26 2 689.214000 -3366.890000 666.667000 1 1.000000 1 -3.000000
27 2 698.562000 -3363.800000 665.825000 1 1.000000 1 -3.000000
28 2 707.540000 -3359.730000 664.541000 1 1.000000 1 -3.000000
29 2 716.919000 -3356.920000 662.803000 1 1.000000 1 -3.000000
30 2 725.571000 -3353.610000 660.020000 1 1.000000 1 -3.000000
31 2 733.687000 -3351.080000 654.789000 1 1.000000 1 -3.000000
32 2 740.950000 -3345.830000 650.786000 1 1.000000 1 -3.000000
33 2 747.459000 -3340.080000 645.878000 1 1.000000 1 -3.000000
34 2 752.213000 -3337.450000 637.553000 1 1.000000 1 -3.000000
35 2 755.075000 -3333.030000 629.237000 1 1.000000 1 -3.000000
36 2 760.405000 -3331.250000 621.243000 1 1.000000 1 -3.000000
37 2 766.223000 -3328.270000 613.895000 1 1.000000 1 -3.000000
38 2 774.645000 -3327.500000 608.884000 1 1.000000 1 -3.000000
39 2 782.921000 -3325.170000 604.094000 1 1.000000 1 -3.000000
40 2 789.066000 -3321.330000 597.280000 1 1.000000 1 -3.000000
41 2 795.947000 -3319.010000 590.554000 1 1.000000 1 -3.000000
42 2 800.336000 -3314.680000 582.828000 1 1.000000 1 -3.000000
43 2 804.342000 -3307.710000 577.188000 1 1.000000 1 -3.000000
44 2 809.626000 -3302.220000 570.809000 1 1.000000 1 -3.000000
45 2 816.965000 -3302.230000 564.112000 1 1.000000 1 -3.000000
46 2 823.384000 -3303.650000 556.790000 1 1.000000 1 -3.000000
47 2 830.106000 -3304.640000 549.571000 1 1.000000 1 -3.000000
48 2 839.069000 -3307.720000 546.733000 1 1.000000 3 -3.000000
49 1 861.302000 -3266.750000 553.711000 1 1.000000 3 0.000000
50 3 837.083000 -3267.100000 579.000000 1 1.000000 3 0.000000
51 2 868.983000 -3226.200000 576.506000 1 1.000000 3 -3.000000
52 2 860.044000 -3222.380000 575.729000 1 1.000000 1 -3.000000
53 2 851.103000 -3218.210000 574.325000 1 1.000000 1 -3.000000
54 2 841.957000 -3214.780000 576.384000 1 1.000000 1 -3.000000
55 2 832.535000 -3212.030000 578.055000 1 1.000000 1 -3.000000
56 2 823.914000 -3207.140000 577.707000 1 1.000000 1 -3.000000
57 2 817.605000 -3199.470000 577.407000 1 1.000000 1 -3.000000
58 2 810.916000 -3192.280000 576.525000 1 1.000000 1 -3.000000
59 2 804.639000 -3184.700000 575.878000 1 1.000000 1 -3.000000
60 2 800.859000 -3175.770000 577.601000 1 1.000000 1 -3.000000
61 2 798.823000 -3166.440000 580.116000 1 1.000000 1 -3.000000
62 2 795.047000 -3157.330000 578.791000 1 1.000000 1 -3.000000
63 2 790.303000 -3148.540000 578.035000 1 1.000000 1 -3.000000
64 2 786.223000 -3139.770000 576.001000 1 1.000000 1 -3.000000
65 2 785.224000 -3130.520000 572.283000 1 1.000000 1 -3.000000
66 2 780.665000 -3122.070000 569.951000 1 1.000000 1 -3.000000
67 2 774.596000 -3114.330000 571.227000 1 1.000000 1 -3.000000
68 2 767.612000 -3107.530000 572.365000 1 1.000000 1 -3.000000
69 2 760.459000 -3100.670000 572.611000 1 1.000000 1 -3.000000
70 2 752.291000 -3095.090000 572.619000 1 1.000000 1 -3.000000
71 2 745.284000 -3088.180000 573.657000 1 1.000000 1 -3.000000
72 2 737.270000 -3082.320000 574.157000 1 1.000000 1 -3.000000
73 2 729.509000 -3076.750000 577.042000 1 1.000000 1 -3.000000
74 2 721.810000 -3070.620000 576.768000 1 1.000000 1 -3.000000
75 2 713.066000 -3066.420000 574.963000 1 1.000000 4 -3.000000
76 1 727.725000 -3027.500000 552.743000 1 1.000000 4 0.000000
77 3 757.583000 -3042.720000 562.933000 1 1.000000 4 0.000000
78 2 760.883000 -2997.320000 537.778000 1 1.000000 4 -3.000000
79 2 768.453000 -3003.150000 539.872000 1 1.000000 1 -3.000000
80 2 777.593000 -3007.010000 540.733000 1 1.000000 1 -3.000000
81 2 786.617000 -3010.990000 540.868000 1 1.000000 1 -3.000000
82 2 795.339000 -3013.230000 536.785000 1 1.000000 1 -3.000000
83 2 803.558000 -3013.130000 531.326000 1 1.000000 1 -3.000000
84 2 810.453000 -3014.960000 524.535000 1 1.000000 1 -3.000000
85 2 817.104000 -3015.080000 517.310000 1 1.000000 1 -3.000000
86 2 820.645000 -3015.240000 508.005000 1 1.000000 1 -3.000000
87 2 825.829000 -3014.540000 499.634000 1 1.000000 1 -3.000000
88 2 832.131000 -3015.790000 492.169000 1 1.000000 1 -3.000000
89 2 837.217000 -3011.880000 484.867000 1 1.000000 1 -3.000000
90 2 840.640000 -3005.610000 477.937000 1 1.000000 1 -3.000000
91 2 843.464000 -2999.380000 470.663000 1 1.000000 1 -3.000000
92 2 842.566000 -2991.590000 464.857000 1 1.000000 1 -3.000000
93 2 840.222000 -2983.600000 459.526000 1 1.000000 1 -3.000000
94 2 836.163000 -2978.560000 452.325000 1 1.000000 1 -3.000000
95 2 832.389000 -2973.360000 444.762000 1 1.000000 1 -3.000000
96 2 829.926000 -2973.910000 435.179000 1 1.000000 1 -3.000000
97 2 824.526000 -2972.870000 426.993000 1 1.000000 1 -3.000000
98 2 822.717000 -2971.270000 417.332000 1 1.000000 1 -3.000000
99 2 823.183000 -2968.880000 407.781000 1 1.000000 1 -3.000000
100 2 824.230000 -2964.610000 398.862000 1 1.000000 1 -3.000000
101 2 828.006000 -2963.460000 389.749000 1 1.000000 1 -3.000000
102 2 830.909000 -2961.610000 380.423000 1 1.000000 5 -3.000000
103 1 874.751000 -2962.840000 397.788000 1 1.000000 5 0.000000
104 3 856.351000 -2948.840000 424.017000 1 1.000000 5 0.000000
105 2 907.451000 -2954.770000 430.833000 1 1.000000 5 -3.000000
106 2 902.726000 -2947.150000 435.043000 1 1.000000 1 -3.000000
107 2 899.854000 -2938.700000 439.368000 1 1.000000 1 -3.000000
108 2 894.508000 -2930.880000 442.018000 1 1.000000 1 -3.000000
109 2 889.637000 -2922.200000 441.771000 1 1.000000 1 -3.000000
110 2 885.902000 -2913.160000 440.279000 1 1.000000 1 -3.000000
111 2 883.258000 -2904.010000 443.199000 1 1.000000 1 -3.000000
112 2 883.591000 -2894.090000 443.313000 1 1.000000 1 -3.000000
113 2 878.248000 -2885.890000 442.492000 1 1.000000 1 -3.000000
114 2 873.713000 -2877.410000 444.772000 1 1.000000 1 -3.000000
115 2 871.771000 -2867.850000 446.730000 1 1.000000 1 -3.000000
116 2 869.783000 -2858.050000 446.737000 1 1.000000 1 -3.000000
117 2 867.471000 -2848.410000 447.377000 1 1.000000 1 -3.000000
118 2 864.337000 -2839.300000 445.185000 1 1.000000 1 -3.000000
119 2 860.617000 -2830.530000 442.160000 1 1.000000 1 -3.000000
120 2 855.348000 -2822.530000 439.905000 1 1.000000 1 -3.000000
121 2 848.814000 -2815.110000 439.723000 1 1.000000 1 -3.000000
122 2 841.797000 -2808.110000 440.828000 1 1.000000 1 -3.000000
123 2 834.336000 -2801.770000 440.991000 1 1.000000 1 -3.000000
124 2 827.810000 -2794.330000 441.745000 1 1.000000 1 -3.000000
125 2 821.905000 -2786.740000 443.910000 1 1.000000 1 -3.000000
126 2 814.080000 -2780.730000 442.593000 1 1.000000 1 -3.000000
127 2 804.506000 -2778.120000 441.651000 1 1.000000 1 -3.000000
128 2 794.685000 -2776.440000 441.006000 1 1.000000 1 -3.000000
129 2 785.702000 -2773.820000 437.763000 1 1.000000 6 -3.000000
130 1 770.091000 -2801.780000 472.505000 1 1.000000 6 0.000000
131 3 804.330000 -2798.910000 479.228000 1 1.000000 6 0.000000
132 2 775.340000 -2826.310000 512.439000 1 1.000000 6 -3.000000
133 2 784.876000 -2825.210000 515.254000 1 1.000000 1 -3.000000
134 2 794.188000 -2822.710000 517.596000 1 1.000000 1 -3.000000
135 2 802.166000 -2818.320000 521.370000 1 1.000000 1 -3.000000
136 2 808.909000 -2811.230000 523.063000 1 1.000000 1 -3.000000
137 2 816.679000 -2804.990000 521.874000 1 1.000000 1 -3.000000
138 2 822.525000 -2797.560000 519.069000 1 1.000000 1 -3.000000
139 2 829.156000 -2790.470000 517.034000 1 1.000000 1 -3.000000
140 2 835.070000 -2783.210000 513.888000 1 1.000000 1 -3.000000
141 2 839.710000 -2774.990000 510.968000 1 1.000000 1 -3.000000
142 2 843.509000 -2767.790000 505.515000 1 1.000000 1 -3.000000
143 2 846.718000 -2760.520000 499.518000 1 1.000000 1 -3.000000
144 2 847.317000 -2752.300000 494.122000 1 1.000000 1 -3.000000
145 2 846.678000 -2745.020000 487.316000 1 1.000000 1 -3.000000
146 2 846.607000 -2737.110000 481.385000 1 1.000000 1 -3.000000
147 2 843.212000 -2731.060000 474.466000 1 1.000000 1 -3.000000
148 2 840.357000 -2724.230000 467.869000 1 1.000000 1 -3.000000
149 2 834.345000 -2720.670000 460.877000 1 1.000000 1 -3.000000
150 2 827.058000 -2717.720000 454.811000 1 1.000000 1 -3.000000
151 2 822.929000 -2715.950000 445.969000 1 1.000000 1 -3.000000
152 2 818.369000 -2713.610000 437.560000 1 1.000000 1 -3.000000
153 2 814.761000 -2713.490000 428.450000 1 1.000000 1 -3.000000
154 2 809.179000 -2715.450000 420.516000 1 1.000000 1 -3.000000
155 2 805.206000 -2716.050000 411.492000 1 1.000000 1 -3.000000
156 2 800.364000 -2717.930000 402.924000 1 1.000000 7 -3.000000
157 1 773.064000 -2726.850000 440.337000 1 1.000000 7 0.000000
158 3 795.876000 -2703.440000 452.581000 1 1.000000 7 0.000000
159 2 759.400000 -2720.800000 485.125000 1 1.000000 7 -3.000000
160 2 764.581000 -2712.660000 487.678000 1 1.000000 1 -3.000000
161 2 768.598000 -2703.620000 487.468000 1 1.000000 1 -3.000000
162 2 772.002000 -2694.410000 488.996000 1 1.000000 1 -3.000000
163 2 776.524000 -2685.660000 487.922000 1 1.000000 1 -3.000000
164 2 782.796000 -2678.150000 486.967000 1 1.000000 1 -3.000000
165 2 789.998000 -2671.810000 484.499000 1 1.000000 1 -3.000000
166 2 797.727000 -2665.930000 483.152000 1 1.000000 1 -3.000000
167 2 804.631000 -2659.030000 481.815000 1 1.000000 1 -3.000000
168 2 810.065000 -2650.730000 481.121000 1 1.000000 1 -3.000000
169 2 814.518000 -2642.830000 477.337000 1 1.000000 1 -3.000000
170 2 818.424000 -2636.000000 471.431000 1 1.000000 1 -3.000000
171 2 822.767000 -2628.030000 467.765000 1 1.000000 1 -3.000000
172 2 828.300000 -2621.520000 462.710000 1 1.000000 1 -3.000000
173 2 833.742000 -2616.610000 456.151000 1 1.000000 1 -3.000000
174 2 833.255000 -2610.890000 448.040000 1 1.000000 1 -3.000000
175 2 828.325000 -2604.900000 441.712000 1 1.000000 1 -3.000000
176 2 825.469000 -2600.550000 433.511000 1 1.000000 1 -3.000000
177 2 822.065000 -2594.700000 426.320000 1 1.000000 1 -3.000000
178 2 818.923000 -2587.260000 420.445000 1 1.000000 1 -3.000000
179 2 818.663000 -2578.980000 415.187000 1 1.000000 1 -3.000000
180 2 819.680000 -2569.890000 411.083000 1 1.000000 1 -3.000000
181 2 821.527000 -2561.010000 407.206000 1 1.000000 1 -3.000000
182 2 826.229000 -2554.340000 401.569000 1 1.000000 1 -3.000000
183 2 830.002000 -2548.740000 394.438000 1 1.000000 8 -3.000000
184 1 802.837000 -2514.080000 411.507000 1 1.000000 8 0.000000
185 3 804.307000 -2536.860000 437.924000 1 1.000000 8 0.000000
186 2 779.329000 -2492.120000 445.973000 1 1.000000 8 -3.000000
187 2 777.028000 -2500.030000 451.520000 1 1.000000 1 -3.000000
188 2 776.932000 -2505.240000 459.856000 1 1.000000 1 -3.000000
189 2 779.508000 -2513.100000 465.507000 1 1.000000 1 -3.000000
190 2 782.340000 -2520.930000 470.653000 1 1.000000 1 -3.000000
191 2 783.518000 -2529.780000 475.061000 1 1.000000 1 -3.000000
192 2 787.709000 -2537.180000 480.117000 1 1.000000 1 -3.000000
193 2 791.613000 -2545.160000 484.262000 1 1.000000 1 -3.000000
194 2 794.478000 -2551.180000 491.724000 1 1.000000 1 -3.000000
195 2 798.635000 -2555.770000 499.545000 1 1.000000 1 -3.000000
196 2 799.854000 -2559.240000 508.861000 1 1.000000 1 -3.000000
197 2 803.125000 -2560.470000 518.140000 1 1.000000 1 -3.000000
198 2 806.211000 -2563.170000 527.263000 1 1.000000 1 -3.000000
199 2 806.639000 -2564.510000 537.066000 1 1.000000 1 -3.000000
200 2 805.174000 -2564.350000 546.937000 1 1.000000 1 -3.000000
201 2 806.467000 -2562.660000 556.564000 1 1.000000 1 -3.000000
202 2 801.955000 -2562.290000 565.410000 1 1.000000 1 -3.000000
203 2 798.801000 -2560.150000 574.599000 1 1.000000 1 -3.000000
204 2 796.044000 -2557.160000 583.701000 1 1.000000 1 -3.000000
205 2 796.860000 -2553.660000 593.023000 1 1.000000 1 -3.000000
206 2 798.638000 -2551.170000 602.371000 1 1.000000 1 -3.000000
207 2 800.177000 -2543.740000 608.666000 1 1.000000 1 -3.000000
208 2 802.836000 -2536.060000 614.413000 1 1.000000 1 -3.000000
209 2 807.055000 -2529.160000 619.999000 1 1.000000 1 -3.000000
210 2 813.133000 -2522.840000 624.583000 1 1.000000 9 -3.000000
211 1 815.410000 -2490.870000 589.969000 1 1.000000 9 0.000000
212 3 789.988000 -2512.470000 579.212000 1 1.000000 9 0.000000
213 2 801.836000 -2472.230000 548.706000 1 1.000000 9 -3.000000
214 2 795.151000 -2477.520000 543.589000 1 1.000000 1 -3.000000
215 2 788.160000 -2484.130000 541.173000 1 1.000000 1 -3.000000
216 2 780.530000 -2489.960000 543.491000 1 1.000000 1 -3.000000
217 2 772.135000 -2493.050000 547.788000 1 1.000000 1 -3.000000
218 2 762.598000 -2494.860000 549.571000 1 1.000000 1 -3.000000
219 2 752.839000 -2494.980000 550.250000 1 1.000000 1 -3.000000
220 2 743.062000 -2496.580000 549.911000 1 1.000000 1 -3.000000
221 2 733.650000 -2499.540000 550.244000 1 1.000000 1 -3.000000
222 2 724.379000 -2503.090000 550.464000 1 1.000000 1 -3.000000
223 2 715.946000 -2507.250000 547.614000 1 1.000000 1 -3.000000
224 2 707.518000 -2512.280000 546.001000 1 1.000000 1 -3.000000
225 2 700.087000 -2518.330000 543.577000 1 1.000000 1 -3.000000
226 2 693.171000 -2525.170000 541.640000 1 1.000000 1 -3.000000
227 2 687.503000 -2532.860000 538.718000 1 1.000000 1 -3.000000
228 2 683.112000 -2539.790000 533.323000 1 1.000000 1 -3.000000
229 2 675.994000 -2545.080000 528.847000 1 1.000000 1 -3.000000
230 2 669.764000 -2551.710000 524.998000 1 1.000000 1 -3.000000
231 2 663.290000 -2556.270000 519.004000 1 1.000000 1 -3.000000
232 2 655.574000 -2560.670000 514.740000 1 1.000000 1 -3.000000
233 2 648.832000 -2567.800000 513.401000 1 1.000000 1 -3.000000
234 2 641.217000 -2572.280000 508.808000 1 1.000000 1 -3.000000
235 2 636.622000 -2576.270000 500.884000 1 1.000000 1 -3.000000
236 2 629.953000 -2581.880000 495.955000 1 1.000000 1 -3.000000
237 2 622.296000 -2587.040000 492.280000 1 1.000000 10 -3.000000
238 1 608.459000 -2551.050000 465.071000 1 1.000000 10 0.000000
239 3 643.246000 -2549.760000 462.940000 1 1.000000 10 0.000000
240 2 616.153000 -2515.040000 435.531000 1 1.000000 10 -3.000000
241 2 625.724000 -2517.360000 435.742000 1 1.000000 1 -3.000000
242 2 633.940000 -2522.630000 434.971000 1 1.000000 1 -3.000000
243 2 643.430000 -2525.350000 433.763000 1 1.000000 1 -3.000000
244 2 651.234000 -2531.420000 433.367000 1 1.000000 1 -3.000000
245 2 657.547000 -2538.290000 429.966000 1 1.000000 1 -3.000000
246 2 665.341000 -2543.060000 426.194000 1 1.000000 1 -3.000000
247 2 672.466000 -2548.970000 422.940000 1 1.000000 1 -3.000000
248 2 678.905000 -2556.130000 421.165000 1 1.000000 1 -3.000000
249 2 685.680000 -2563.460000 420.580000 1 1.000000 1 -3.000000
250 2 692.684000 -2569.870000 417.719000 1 1.000000 1 -3.000000
251 2 700.535000 -2575.780000 416.034000 1 1.000000 1 -3.000000
252 2 705.858000 -2584.140000 415.238000 1 1.000000 1 -3.000000
253 2 708.356000 -2593.760000 415.904000 1 1.000000 1 -3.000000
254 2 712.605000 -2602.710000 416.481000 1 1.000000 1 -3.000000
255 2 719.312000 -2609.980000 416.163000 1 1.000000 1 -3.000000
256 2 726.439000 -2616.460000 413.972000 1 1.000000 1 -3.000000
257 2 732.785000 -2623.850000 415.756000 1 1.000000 1 -3.000000
258 2 739.659000 -2630.960000 415.556000 1 1.000000 1 -3.000000
259 2 746.240000 -2637.360000 411.665000 1 1.000000 1 -3.000000
260 2 755.009000 -2641.770000 410.144000 1 1.000000 1 -3.000000
261 2 762.719000 -2647.410000 407.765000 1 1.000000 1 -3.000000
262 2 768.705000 -2653.250000 402.735000 1 1.000000 1 -3.000000
263 2 774.572000 -2659.840000 398.495000 1 1.000000 1 -3.000000
264 2 777.789000 -2665.880000 391.326000 1 1.000000 11 -3.000000
265 1 738.488000 -2687.530000 376.954000 1 1.000000 11 0.000000
266 3 727.514000 -2655.230000 383.882000 1 1.000000 11 0.000000
267 2 692.598000 -2689.160000 366.189000 1 1.000000 11 -3.000000
268 2 692.951000 -2679.380000 364.500000 1 1.000000 1 -3.000000
269 2 692.543000 -2669.610000 363.117000 1 1.000000 1 -3.000000
270 2 694.774000 -2660.030000 361.323000 1 1.000000 1 -3.000000
271 2 696.921000 -2650.620000 359.096000 1 1.000000 1 -3.000000
272 2 701.103000 -2642.320000 355.799000 1 1.000000 1 -3.000000
273 2 701.473000 -2633.300000 351.808000 1 1.000000 1 -3.000000
274 2 702.699000 -2624.560000 347.106000 1 1.000000 1 -3.000000
275 2 707.426000 -2617.860000 341.572000 1 1.000000 1 -3.000000
276 2 712.616000 -2614.660000 333.859000 1 1.000000 1 -3.000000
277 2 716.300000 -2612.450000 324.996000 1 1.000000 1 -3.000000
278 2 716.498000 -2612.410000 315.082000 1 1.000000 1 -3.000000
279 2 717.789000 -2611.950000 305.255000 1 1.000000 1 -3.000000
280 2 717.726000 -2615.050000 295.939000 1 1.000000 1 -3.000000
281 2 716.124000 -2620.540000 287.855000 1 1.000000 1 -3.000000
282 2 711.417000 -2622.910000 279.555000 1 1.000000 1 -3.000000
283 2 703.498000 -2624.920000 273.990000 1 1.000000 1 -3.000000
284 2 696.823000 -2628.280000 267.416000 1 1.000000 1 -3.000000
285 2 691.014000 -2630.450000 259.603000 1 1.000000 1 -3.000000
286 2 687.867000 -2630.250000 250.247000 1 1.000000 1 -3.000000
287 2 683.431000 -2630.180000 241.378000 1 1.000000 1 -3.000000
288 2 679.728000 -2629.360000 232.226000 1 1.000000 1 -3.000000
289 2 674.589000 -2629.130000 223.730000 1 1.000000 1 -3.000000
290 2 673.662000 -2630.020000 213.900000 1 1.000000 1 -3.000000
291 2 678.090000 -2628.290000 205.192000 1 1.000000 12 -3.000000
292 1 710.604000 -2662.450000 203.706000 1 1.000000 12 0.000000
293 3 689.095000 -2672.880000 229.167000 1 1.000000 12 0.000000
294 2 728.480000 -2704.260000 216.269000 1 1.000000 12 -3.000000
295 2 720.572000 -2706.280000 221.986000 1 1.000000 1 -3.000000
296 2 713.609000 -2709.890000 227.955000 1 1.000000 1 -3.000000
297 2 705.197000 -2713.890000 230.967000 1 1.000000 1 -3.000000
298 2 695.847000 -2716.910000 231.606000 1 1.000000 1 -3.000000
299 2 687.828000 -2722.220000 229.118000 1 1.000000 1 -3.000000
300 2 678.945000 -2725.910000 231.078000 1 1.000000 1 -3.000000
301 2 670.529000 -2730.620000 233.489000 1 1.000000 1 -3.000000
302 2 662.843000 -2736.570000 235.443000 1 1.000000 1 -3.000000
303 2 655.130000 -2741.830000 239.088000 1 1.000000 1 -3.000000
304 2 646.906000 -2746.130000 242.444000 1 1.000000 1 -3.000000
305 2 638.514000 -2750.400000 245.646000 1 1.000000 1 -3.000000
306 2 631.231000 -2753.180000 251.732000 1 1.000000 1 -3.000000
307 2 624.702000 -2756.610000 258.317000 1 1.000000 1 -3.000000
308 2 617.928000 -2762.160000 262.827000 1 1.000000 1 -3.000000
309 2 609.020000 -2765.460000 265.787000 1 1.000000 1 -3.000000
310 2 601.199000 -2771.000000 268.363000 1 1.000000 1 -3.000000
311 2 592.853000 -2774.210000 272.316000 1 1.000000 1 -3.000000
312 2 585.011000 -2779.490000 275.627000 1 1.000000 1 -3.000000
313 2 577.930000 -2785.300000 279.378000 1 1.000000 1 -3.000000
314 2 575.318000 -2793.940000 283.583000 1 1.000000 1 -3.000000
315 2 573.310000 -2803.390000 285.602000 1 1.000000 1 -3.000000
316 2 572.557000 -2812.910000 288.607000 1 1.000000 1 -3.000000
317 2 573.428000 -2822.260000 291.746000 1 1.000000 1 -3.000000
318 2 574.116000 -2831.540000 295.351000 1 1.000000 13 -3.000000
319 1 536.558000 -2823.560000 322.852000 1 1.000000 13 0.000000
320 3 537.487000 -2795.480000 301.925000 1 1.000000 13 0.000000
321 2 500.755000 -2797.200000 338.731000 1 1.000000 13 -3.000000
322 2 498.034000 -2791.350000 331.170000 1 1.000000 1 -3.000000
323 2 497.289000 -2783.670000 324.841000 1 1.000000 1 -3.000000
324 2 500.203000 -2776.720000 318.516000 1 1.000000 1 -3.000000
325 2 503.508000 -2770.140000 311.865000 1 1.000000 1 -3.000000
326 2 507.467000 -2761.480000 308.795000 1 1.000000 1 -3.000000
327 2 513.467000 -2753.790000 306.989000 1 1.000000 1 -3.000000
328 2 518.153000 -2745.180000 305.883000 1 1.000000 1 -3.000000
329 2 523.959000 -2737.280000 307.145000 1 1.000000 1 -3.000000
330 2 529.166000 -2728.890000 308.579000 1 1.000000 1 -3.000000
331 2 529.621000 -2719.260000 310.640000 1 1.000000 1 -3.000000
332 2 528.761000 -2710.010000 313.880000 1 1.000000 1 -3.000000
333 2 529.902000 -2700.620000 316.960000 1 1.000000 1 -3.000000
334 2 532.426000 -2692.400000 321.818000 1 1.000000 1 -3.000000
335 2 537.810000 -2684.350000 323.912000 1 1.000000 1 -3.000000
336 2 545.812000 -2678.800000 324.817000 1 1.000000 1 -3.000000
337 2 555.469000 -2678.540000 326.774000 1 1.000000 1 -3.000000
338 2 563.098000 -2683.320000 330.758000 1 1.000000 1 -3.000000
339 2 571.274000 -2687.720000 334.283000 1 1.000000 1 -3.000000
340 2 576.460000 -2693.640000 340.339000 1 1.000000 1 -3.000000
341 2 581.766000 -2700.570000 345.128000 1 1.000000 1 -3.000000
342 2 588.797000 -2705.900000 349.661000 1 1.000000 1 -3.000000
343 2 595.090000 -2707.500000 357.057000 1 1.000000 1 -3.000000
344 2 602.673000 -2709.690000 362.974000 1 1.000000 1 -3.000000
345 2 610.058000 -2711.700000 369.158000 1 1.000000 14 -3.000000
346 1 636.931000 -2672.990000 371.448000 1 1.000000 14 0.000000
347 3 609.145000 -2662.320000 353.161000 1 1.000000 14 0.000000
348 2 646.544000 -2627.590000 363.018000 1 1.000000 14 -3.000000
349 2 637.105000 -2624.590000 362.058000 1 1.000000 1 -3.000000
350 2 627.565000 -2622.290000 360.786000 1 1.000000 1 -3.000000
351 2 618.200000 -2621.380000 357.793000 1 1.000000 1 -3.000000
352 2 611.156000 -2618.340000 351.474000 1 1.000000 1 -3.000000
353 2 603.566000 -2618.440000 345.199000 1 1.000000 1 -3.000000
354 2 596.201000 -2614.760000 339.822000 1 1.000000 1 -3.000000
355 2 587.418000 -2612.440000 335.947000 1 1.000000 1 -3.000000
356 2 577.912000 -2610.170000 333.832000 1 1.000000 1 -3.000000
357 2 568.410000 -2607.260000 334.571000 1 1.000000 1 -3.000000
358 2 558.956000 -2604.090000 334.567000 1 1.000000 1 -3.000000
359 2 549.648000 -2601.080000 334.426000 1 1.000000 1 -3.000000
360 2 541.725000 -2595.980000 337.857000 1 1.000000 1 -3.000000
361 2 533.323000 -2591.210000 340.018000 1 1.000000 1 -3.000000
362 2 524.899000 -2585.870000 339.897000 1 1.000000 1 -3.000000
363 2 517.521000 -2581.170000 335.199000 1 1.000000 1 -3.000000
364 2 512.581000 -2579.260000 326.894000 1 1.000000 1 -3.000000
365 2 504.448000 -2578.490000 321.183000 1 1.000000 1 -3.000000
366 2 497.943000 -2575.100000 314.470000 1 1.000000 1 -3.000000
367 2 494.371000 -2574.640000 305.207000 1 1.000000 1 -3.000000
368 2 488.443000 -2574.280000 297.203000 1 1.000000 1 -3.000000
369 2 483.376000 -2577.000000 289.109000 1 1.000000 1 -3.000000
370 2 482.063000 -2576.690000 279.241000 1 1.000000 1 -3.000000
371 2 480.724000 -2578.460000 269.579000 1 1.000000 1 -3.000000
372 2 477.356000 -2582.290000 261.106000 1 1.000000 15 -3.000000
373 1 446.667000 -2614.710000 276.664000 1 1.000000 15 0.000000
374 3 451.685000 -2594.330000 304.660000 1 1.000000 15 0.000000
375 2 424.305000 -2637.930000 311.178000 1 1.000000 15 -3.000000
376 2 425.564000 -2632.440000 319.424000 1 1.000000 1 -3.000000
377 2 426.272000 -2626.990000 327.641000 1 1.000000 1 -3.000000
378 2 428.376000 -2619.080000 333.121000 1 1.000000 1 -3.000000
379 2 427.907000 -2609.880000 336.678000 1 1.000000 1 -3.000000
380 2 428.523000 -2600.960000 340.796000 1 1.000000 1 -3.000000
381 2 433.074000 -2594.310000 346.641000 1 1.000000 1 -3.000000
382 2 437.594000 -2586.550000 350.829000 1 1.000000 1 -3.000000
383 2 442.384000 -2578.650000 354.832000 1 1.000000 1 -3.000000
384 2 446.361000 -2570.610000 358.750000 1 1.000000 1 -3.000000
385 2 451.587000 -2562.320000 360.819000 1 1.000000 1 -3.000000
386 2 456.428000 -2553.740000 360.372000 1 1.000000 1 -3.000000
387 2 458.664000 -2544.230000 361.990000 1 1.000000 1 -3.000000
388 2 453.514000 -2535.980000 364.029000 1 1.000000 1 -3.000000
389 2 447.820000 -2529.080000 368.219000 1 1.000000 1 -3.000000
390 2 442.209000 -2521.660000 371.626000 1 1.000000 1 -3.000000
391 2 437.012000 -2513.690000 374.448000 1 1.000000 1 -3.000000
392 2 432.525000 -2505.280000 377.014000 1 1.000000 1 -3.000000
393 2 429.712000 -2496.740000 381.155000 1 1.000000 1 -3.000000
394 2 430.639000 -2487.370000 384.408000 1 1.000000 1 -3.000000
395 2 434.690000 -2478.200000 384.764000 1 1.000000 1 -3.000000
396 2 441.100000 -2471.300000 381.729000 1 1.000000 1 -3.000000
397 2 448.587000 -2465.370000 379.005000 1 1.000000 1 -3.000000
398 2 456.197000 -2460.840000 374.807000 1 1.000000 1 -3.000000
399 2 465.437000 -2460.610000 371.146000 1 1.000000 16 -3.000000
400 1 460.709000 -2470.890000 325.310000 1 1.000000 16 0.000000
401 3 428.227000 -2474.400000 337.666000 1 1.000000 16 0.000000
402 2 435.631000 -2481.190000 286.763000 1 1.000000 16 -3.000000
403 2 428.235000 -2476.340000 291.015000 1 1.000000 1 -3.000000
404 2 419.329000 -2472.090000 291.597000 1 1.000000 1 -3.000000
405 2 412.620000 -2464.830000 291.752000 1 1.000000 1 -3.000000
406 2 406.525000 -2457.000000 292.645000 1 1.000000 1 -3.000000
407 2 406.641000 -2447.280000 294.341000 1 1.000000 1 -3.000000
408 2 403.850000 -2439.490000 299.824000 1 1.000000 1 -3.000000
409 2 399.233000 -2430.920000 301.552000 1 1.000000 1 -3.000000
410 2 396.727000 -2421.800000 304.377000 1 1.000000 1 -3.000000
411 2 392.006000 -2413.970000 308.442000 1 1.000000 1 -3.000000
412 2 388.271000 -2406.880000 314.151000 1 1.000000 1 -3.000000
413 2 384.171000 -2398.420000 317.254000 1 1.000000 1 -3.000000
414 2 382.629000 -2389.110000 319.852000 1 1.000000 1 -3.000000
415 2 382.500000 -2379.400000 321.622000 1 1.000000 1 -3.000000
416 2 382.141000 -2370.540000 326.014000 1 1.000000 1 -3.000000
417 2 383.443000 -2362.330000 331.219000 1 1.000000 1 -3.000000
418 2 383.010000 -2354.140000 336.935000 1 1.000000 1 -3.000000
419 2 381.381000 -2346.060000 342.319000 1 1.000000 1 -3.000000
420 2 378.021000 -2337.010000 344.123000 1 1.000000 1 -3.000000
421 2 374.298000 -2328.540000 347.538000 1 1.000000 1 -3.000000
422 2 372.921000 -2318.980000 349.957000 1 1.000000 1 -3.000000
423 2 372.357000 -2309.940000 353.985000 1 1.000000 1 -3.000000
424 2 372.973000 -2300.800000 357.633000 1 1.000000 1 -3.000000
425 2 371.145000 -2294.170000 364.791000 1 1.000000 1 -3.000000
426 2 368.108000 -2287.050000 370.850000 1 1.000000 17 -3.000000
427 1 404.896000 -2294.110000 399.613000 1 1.000000 17 0.000000
428 3 406.021000 -2321.750000 378.263000 1 1.000000 17 0.000000
429 2 444.894000 -2316.020000 412.198000 1 1.000000 17 -3.000000
430 2 445.691000 -2323.490000 405.834000 1 1.000000 1 -3.000000
431 2 449.395000 -2329.920000 399.235000 1 1.000000 1 -3.000000
432 2 455.043000 -2333.660000 391.957000 1 1.000000 1 -3.000000
433 2 461.253000 -2335.650000 384.571000 1 1.000000 1 -3.000000
434 2 469.129000 -2336.240000 378.450000 1 1.000000 1 -3.000000
435 2 477.523000 -2339.010000 373.783000 1 1.000000 1 -3.000000
436 2 484.792000 -2340.420000 367.309000 1 1.000000 1 -3.000000
437 2 492.565000 -2338.260000 361.539000 1 1.000000 1 -3.000000
438 2 501.033000 -2333.670000 359.581000 1 1.000000 1 -3.000000
439 2 506.575000 -2326.540000 355.383000 1 1.000000 1 -3.000000
440 2 509.993000 -2317.590000 352.716000 1 1.000000 1 -3.000000
441 2 514.790000 -2308.960000 351.964000 1 1.000000 1 -3.000000
442 2 516.923000 -2299.350000 351.716000 1 1.000000 1 -3.000000
443 2 520.021000 -2290.100000 353.347000 1 1.000000 1 -3.000000
444 2 523.095000 -2283.520000 360.163000 1 1.000000 1 -3.000000
445 2 528.569000 -2279.860000 367.581000 1 1.000000 1 -3.000000
446 2 531.237000 -2276.740000 376.586000 1 1.000000 1 -3.000000
447 2 534.959000 -2272.480000 384.702000 1 1.000000 1 -3.000000
448 2 540.636000 -2265.710000 388.937000 1 1.000000 1 -3.000000
449 2 546.287000 -2259.330000 394.075000 1 1.000000 1 -3.000000
450 2 548.984000 -2250.280000 396.826000 1 1.000000 1 -3.000000
451 2 553.256000 -2242.300000 400.774000 1 1.000000 1 -3.000000
452 2 552.310000 -2232.760000 403.323000 1 1.000000 1 -3.000000
453 2 550.639000 -2224.740000 409.020000 1 1.000000 18 -3.000000
454 1 509.901000 -2222.020000 432.597000 1 1.000000 18 0.000000
455 3 509.013000 -2254.190000 418.743000 1 1.000000 18 0.000000
456 2 467.762000 -2238.520000 446.151000 1 1.000000 18 -3.000000
457 2 470.743000 -2248.010000 444.871000 1 1.000000 1 -3.000000
458 2 472.203000 -2257.910000 444.516000 1 1.000000 1 -3.000000
459 2 475.778000 -2267.100000 444.040000 1 1.000000 1 -3.000000
460 2 477.566000 -2276.310000 447.081000 1 1.000000 1 -3.000000
461 2 480.633000 -2285.210000 450.385000 1 1.000000 1 -3.000000
462 2 484.570000 -2293.410000 454.185000 1 1.000000 1 -3.000000
463 2 485.739000 -2302.460000 457.773000 1 1.000000 1 -3.000000
464 2 485.944000 -2311.000000 462.664000 1 1.000000 1 -3.000000
465 2 486.635000 -2318.060000 469.525000 1 1.000000 1 -3.000000