LAMMPS data file

4067 atoms
4067 ellipsoids
4516 bonds
8882 angles
0 dihedrals

3 atom types
5 bond types
12 angle types
0 dihedral types

-4631.092947 4670.465898 xlo xhi
-4631.092947 4670.465898 ylo yhi
-4631.092947 4670.465898 zlo zhi

Masses

1 196016.000000
2 1950.000000
3 19500.000000

Atoms

1 2 832.842000 -2987.710000 437.941000 1 1.000000 1 -3.000000
2 2 836.566000 -2992.350000 430.061000 1 1.000000 1 -3.000000
3 2 836.756000 -2997.810000 421.674000 1 1.000000 1 -3.000000
4 2 833.341000 -3002.740000 413.837000 1 1.000000 1 -3.000000
5 2 829.543000 -3009.790000 407.858000 1 1.000000 1 -3.000000
6 2 821.850000 -3016.010000 406.516000 1 1.000000 1 -3.000000
7 2 813.355000 -3020.760000 405.243000 1 1.000000 1 -3.000000
8 2 805.754000 -3026.880000 403.682000 1 1.000000 1 -3.000000
9 2 800.429000 -3034.340000 400.132000 1 1.000000 1 -3.000000
10 2 793.976000 -3041.250000 397.044000 1 1.000000 1 -3.000000
11 2 788.306000 -3049.310000 395.735000 1 1.000000 1 -3.000000
12 2 782.365000 -3056.780000 393.137000 1 1.000000 1 -3.000000
13 2 778.143000 -3064.010000 387.759000 1 1.000000 1 -3.000000
14 2 773.080000 -3072.310000 386.806000 1 1.000000 1 -3.000000
15 2 769.935000 -3081.250000 384.111000 1 1.000000 1 -3.000000
16 2 768.845000 -3090.810000 381.630000 1 1.000000 1 -3.000000
17 2 766.467000 -3099.770000 378.328000 1 1.000000 1 -3.000000
18 2 760.961000 -3106.380000 373.292000 1 1.000000 1 -3.000000
19 2 753.632000 -3111.150000 368.637000 1 1.000000 1 -3.000000
20 2 746.007000 -3114.850000 363.677000 1 1.000000 1 -3.000000
21 2 737.726000 -3116.670000 358.461000 1 1.000000 2 -3.000000
22 1 713.604000 -3078.690000 372.402000 1 1.000000 2 0.000000
23 3 737.058000 -3082.920000 397.941000 1 1.000000 2 0.000000
24 2 705.879000 -3041.570000 400.519000 1 1.000000 2 -3.000000
25 2 714.796000 -3042.420000 404.708000 1 1.000000 1 -3.000000
26 2 724.059000 -3044.860000 407.503000 1 1.000000 1 -3.000000
27 2 733.081000 -3047.040000 411.158000 1 1.000000 1 -3.000000
28 2 742.410000 -3050.460000 412.708000 1 1.000000 1 -3.000000
29 2 750.055000 -3052.480000 418.575000 1 1.000000 1 -3.000000
30 2 759.428000 -3054.630000 421.211000 1 1.000000 1 -3.000000
31 2 766.584000 -3060.590000 424.391000 1 1.000000 1 -3.000000
32 2 775.615000 -3063.430000 427.384000 1 1.000000 1 -3.000000
33 2 783.138000 -3066.410000 433.018000 1 1.000000 1 -3.000000
34 2 789.499000 -3070.860000 438.912000 1 1.000000 1 -3.000000
35 2 791.608000 -3075.710000 447.228000 1 1.000000 1 -3.000000
36 2 793.010000 -3080.850000 455.407000 1 1.000000 1 -3.000000
37 2 797.815000 -3082.070000 463.998000 1 1.000000 1 -3.000000
38 2 804.484000 -3083.820000 471.135000 1 1.000000 1 -3.000000
39 2 808.439000 -3085.540000 480.000000 1 1.000000 1 -3.000000
40 2 814.320000 -3087.180000 487.771000 1 1.000000 1 -3.000000
41 2 821.392000 -3091.350000 493.010000 1 1.000000 1 -3.000000
42 2 828.488000 -3096.790000 497.297000 1 1.000000 1 -3.000000
43 2 834.593000 -3104.290000 499.238000 1 1.000000 1 -3.000000
44 2 838.216000 -3113.400000 501.018000 1 1.000000 1 -3.000000
45 2 839.910000 -3123.200000 500.500000 1 1.000000 1 -3.000000
46 2 837.196000 -3132.760000 499.987000 1 1.000000 1 -3.000000
47 2 833.852000 -3142.080000 498.691000 1 1.000000 1 -3.000000
48 2 829.108000 -3150.670000 497.707000 1 1.000000 3 -3.000000
49 1 855.395000 -3177.110000 526.572000 1 1.000000 3 0.000000
50 3 878.724000 -3155.600000 512.022000 1 1.000000 3 0.000000
51 2 896.277000 -3191.380000 545.250000 1 1.000000 3 -3.000000
52 2 902.322000 -3183.720000 546.732000 1 1.000000 1 -3.000000
53 2 906.135000 -3174.970000 549.601000 1 1.000000 1 -3.000000
54 2 910.834000 -3167.050000 553.565000 1 1.000000 1 -3.000000
55 2 914.823000 -3158.480000 556.765000 1 1.000000 1 -3.000000
56 2 919.645000 -3150.370000 559.462000 1 1.000000 1 -3.000000
57 2 922.442000 -3140.930000 559.484000 1 1.000000 1 -3.000000
58 2 925.811000 -3131.720000 560.713000 1 1.000000 1 -3.000000
59 2 927.735000 -3121.990000 561.695000 1 1.000000 1 -3.000000
60 2 929.019000 -3112.740000 565.051000 1 1.000000 1 -3.000000
61 2 932.403000 -3103.980000 568.188000 1 1.000000 1 -3.000000
62 2 933.987000 -3094.260000 569.067000 1 1.000000 1 -3.000000
63 2 936.170000 -3084.550000 569.555000 1 1.000000 1 -3.000000
64 2 939.005000 -3075.750000 566.261000 1 1.000000 1 -3.000000
65 2 942.573000 -3067.480000 562.062000 1 1.000000 1 -3.000000
66 2 943.659000 -3058.350000 557.997000 1 1.000000 1 -3.000000
67 2 944.705000 -3049.370000 553.772000 1 1.000000 1 -3.000000
68 2 947.737000 -3041.040000 549.394000 1 1.000000 1 -3.000000
69 2 947.822000 -3032.970000 543.601000 1 1.000000 1 -3.000000
70 2 948.216000 -3024.350000 538.796000 1 1.000000 1 -3.000000
71 2 948.005000 -3018.960000 530.569000 1 1.000000 1 -3.000000
72 2 948.578000 -3015.720000 521.195000 1 1.000000 1 -3.000000
73 2 947.608000 -3013.010000 511.754000 1 1.000000 1 -3.000000
74 2 945.997000 -3006.390000 504.404000 1 1.000000 1 -3.000000
75 2 946.418000 -2998.240000 498.791000 1 1.000000 4 -3.000000
76 1 915.484000 -3010.870000 465.514000 1 1.000000 4 0.000000
77 3 909.346000 -3033.910000 491.064000 1 1.000000 4 0.000000
78 2 878.693000 -3035.580000 449.297000 1 1.000000 4 -3.000000
79 2 877.704000 -3043.940000 454.587000 1 1.000000 1 -3.000000
80 2 877.485000 -3049.230000 463.098000 1 1.000000 1 -3.000000
81 2 879.719000 -3054.260000 471.442000 1 1.000000 1 -3.000000
82 2 880.616000 -3060.160000 479.369000 1 1.000000 1 -3.000000
83 2 880.254000 -3064.510000 488.293000 1 1.000000 1 -3.000000
84 2 879.970000 -3069.100000 496.963000 1 1.000000 1 -3.000000
85 2 878.610000 -3074.080000 505.576000 1 1.000000 1 -3.000000
86 2 874.998000 -3076.180000 514.562000 1 1.000000 1 -3.000000
87 2 870.260000 -3078.210000 522.981000 1 1.000000 1 -3.000000
88 2 863.947000 -3078.980000 530.533000 1 1.000000 1 -3.000000
89 2 858.571000 -3080.780000 538.602000 1 1.000000 1 -3.000000
90 2 852.563000 -3082.260000 546.280000 1 1.000000 1 -3.000000
91 2 848.076000 -3081.920000 555.178000 1 1.000000 1 -3.000000
92 2 847.761000 -3082.180000 565.005000 1 1.000000 1 -3.000000
93 2 847.453000 -3079.870000 574.601000 1 1.000000 1 -3.000000
94 2 845.418000 -3077.460000 584.117000 1 1.000000 1 -3.000000
95 2 845.484000 -3073.280000 593.053000 1 1.000000 1 -3.000000
96 2 844.694000 -3070.690000 602.621000 1 1.000000 1 -3.000000
97 2 844.387000 -3066.450000 611.598000 1 1.000000 1 -3.000000
98 2 845.830000 -3061.470000 620.030000 1 1.000000 1 -3.000000
99 2 845.892000 -3054.520000 627.017000 1 1.000000 1 -3.000000
100 2 845.867000 -3049.920000 635.740000 1 1.000000 1 -3.000000
101 2 847.326000 -3046.520000 644.985000 1 1.000000 1 -3.000000
102 2 850.617000 -3046.890000 654.396000 1 1.000000 5 -3.000000
103 1 879.869000 -3016.990000 632.614000 1 1.000000 5 0.000000
104 3 866.716000 -3035.820000 606.194000 1 1.000000 5 0.000000
105 2 900.311000 -2998.080000 594.522000 1 1.000000 5 -3.000000
106 2 899.281000 -3005.040000 587.406000 1 1.000000 1 -3.000000
107 2 895.114000 -3008.220000 578.951000 1 1.000000 1 -3.000000
108 2 893.030000 -3014.240000 571.290000 1 1.000000 1 -3.000000
109 2 887.584000 -3022.080000 568.266000 1 1.000000 1 -3.000000
110 2 878.854000 -3025.560000 565.054000 1 1.000000 1 -3.000000
111 2 869.863000 -3028.750000 562.617000 1 1.000000 1 -3.000000
112 2 860.198000 -3030.150000 561.034000 1 1.000000 1 -3.000000
113 2 850.608000 -3028.140000 558.945000 1 1.000000 1 -3.000000
114 2 841.958000 -3025.010000 555.009000 1 1.000000 1 -3.000000
115 2 835.085000 -3019.030000 551.109000 1 1.000000 1 -3.000000
116 2 829.931000 -3011.260000 547.728000 1 1.000000 1 -3.000000
117 2 822.100000 -3005.890000 545.177000 1 1.000000 1 -3.000000
118 2 813.960000 -3000.170000 545.198000 1 1.000000 1 -3.000000
119 2 807.134000 -2992.970000 545.641000 1 1.000000 1 -3.000000
120 2 798.478000 -2988.290000 545.211000 1 1.000000 1 -3.000000
121 2 789.999000 -2982.950000 544.793000 1 1.000000 1 -3.000000
122 2 782.248000 -2976.840000 545.059000 1 1.000000 1 -3.000000
123 2 774.621000 -2970.510000 545.930000 1 1.000000 1 -3.000000
124 2 766.204000 -2965.180000 546.603000 1 1.000000 1 -3.000000
125 2 756.432000 -2963.400000 546.538000 1 1.000000 1 -3.000000
126 2 747.166000 -2963.230000 542.721000 1 1.000000 1 -3.000000
127 2 738.974000 -2957.660000 543.290000 1 1.000000 1 -3.000000
128 2 732.028000 -2950.750000 542.040000 1 1.000000 1 -3.000000
129 2 723.772000 -2945.640000 540.010000 1 1.000000 6 -3.000000
130 1 705.695000 -2969.490000 576.552000 1 1.000000 6 0.000000
131 3 740.148000 -2970.730000 582.505000 1 1.000000 6 0.000000
132 2 709.128000 -2997.190000 614.603000 1 1.000000 6 -3.000000
133 2 718.439000 -2994.010000 615.024000 1 1.000000 1 -3.000000
134 2 726.614000 -2988.570000 613.890000 1 1.000000 1 -3.000000
135 2 732.784000 -2981.090000 612.068000 1 1.000000 1 -3.000000
136 2 736.305000 -2971.990000 610.479000 1 1.000000 1 -3.000000
137 2 741.289000 -2963.760000 608.585000 1 1.000000 1 -3.000000
138 2 748.192000 -2956.760000 607.376000 1 1.000000 1 -3.000000
139 2 755.668000 -2950.560000 605.361000 1 1.000000 1 -3.000000
140 2 763.458000 -2945.780000 601.394000 1 1.000000 1 -3.000000
141 2 770.348000 -2939.620000 597.974000 1 1.000000 1 -3.000000
142 2 777.912000 -2933.330000 598.055000 1 1.000000 1 -3.000000
143 2 785.282000 -2926.800000 598.826000 1 1.000000 1 -3.000000
144 2 793.161000 -2920.730000 600.128000 1 1.000000 1 -3.000000
145 2 802.773000 -2918.380000 600.885000 1 1.000000 1 -3.000000
146 2 812.455000 -2916.450000 601.171000 1 1.000000 1 -3.000000
147 2 822.279000 -2916.000000 601.914000 1 1.000000 1 -3.000000
148 2 832.167000 -2916.560000 602.156000 1 1.000000 1 -3.000000
149 2 842.090000 -2917.110000 601.756000 1 1.000000 1 -3.000000
150 2 851.809000 -2918.490000 600.437000 1 1.000000 1 -3.000000
151 2 861.569000 -2919.340000 600.972000 1 1.000000 1 -3.000000
152 2 871.446000 -2918.840000 601.024000 1 1.000000 1 -3.000000
153 2 881.109000 -2917.570000 599.897000 1 1.000000 1 -3.000000
154 2 890.326000 -2914.690000 601.596000 1 1.000000 1 -3.000000
155 2 899.948000 -2912.230000 601.351000 1 1.000000 1 -3.000000
156 2 909.358000 -2910.540000 598.818000 1 1.000000 7 -3.000000
157 1 898.324000 -2866.190000 586.823000 1 1.000000 7 0.000000
158 3 868.876000 -2878.170000 601.437000 1 1.000000 7 0.000000
159 2 868.351000 -2830.220000 581.557000 1 1.000000 7 -3.000000
160 2 859.838000 -2834.990000 583.268000 1 1.000000 1 -3.000000
161 2 852.496000 -2841.600000 583.677000 1 1.000000 1 -3.000000
162 2 845.276000 -2848.470000 583.613000 1 1.000000 1 -3.000000
163 2 837.825000 -2854.910000 584.199000 1 1.000000 1 -3.000000
164 2 828.464000 -2857.930000 585.285000 1 1.000000 1 -3.000000
165 2 819.114000 -2860.840000 586.971000 1 1.000000 1 -3.000000
166 2 809.560000 -2859.430000 584.450000 1 1.000000 1 -3.000000
167 2 800.166000 -2859.510000 581.709000 1 1.000000 1 -3.000000
168 2 790.363000 -2859.480000 582.248000 1 1.000000 1 -3.000000
169 2 780.691000 -2858.170000 584.233000 1 1.000000 1 -3.000000
170 2 771.206000 -2855.430000 583.783000 1 1.000000 1 -3.000000
171 2 761.682000 -2852.950000 583.981000 1 1.000000 1 -3.000000
172 2 752.050000 -2850.680000 583.009000 1 1.000000 1 -3.000000
173 2 743.038000 -2849.270000 579.173000 1 1.000000 1 -3.000000
174 2 733.746000 -2846.730000 576.626000 1 1.000000 1 -3.000000
175 2 723.933000 -2846.320000 574.907000 1 1.000000 1 -3.000000
176 2 713.987000 -2845.600000 574.131000 1 1.000000 1 -3.000000
177 2 705.033000 -2848.060000 577.796000 1 1.000000 1 -3.000000
178 2 697.113000 -2851.560000 582.371000 1 1.000000 1 -3.000000
179 2 689.270000 -2854.030000 587.898000 1 1.000000 1 -3.000000
180 2 681.938000 -2855.020000 594.401000 1 1.000000 1 -3.000000
181 2 677.987000 -2856.040000 603.538000 1 1.000000 1 -3.000000
182 2 672.589000 -2853.330000 611.295000 1 1.000000 1 -3.000000
183 2 666.006000 -2846.730000 614.956000 1 1.000000 8 -3.000000
184 1 645.212000 -2840.280000 573.147000 1 1.000000 8 0.000000
185 3 662.095000 -2870.590000 568.879000 1 1.000000 8 0.000000
186 2 635.934000 -2851.710000 528.340000 1 1.000000 8 -3.000000
187 2 641.986000 -2858.220000 523.912000 1 1.000000 1 -3.000000
188 2 644.215000 -2864.720000 516.642000 1 1.000000 1 -3.000000
189 2 647.447000 -2868.890000 508.350000 1 1.000000 1 -3.000000
190 2 651.546000 -2874.050000 501.036000 1 1.000000 1 -3.000000
191 2 656.860000 -2879.800000 494.932000 1 1.000000 1 -3.000000
192 2 662.510000 -2884.930000 488.576000 1 1.000000 1 -3.000000
193 2 670.876000 -2887.790000 484.274000 1 1.000000 1 -3.000000
194 2 680.100000 -2891.060000 482.651000 1 1.000000 1 -3.000000
195 2 689.765000 -2892.980000 483.589000 1 1.000000 1 -3.000000
196 2 699.015000 -2896.630000 483.584000 1 1.000000 1 -3.000000
197 2 707.566000 -2900.690000 480.875000 1 1.000000 1 -3.000000
198 2 716.551000 -2904.800000 480.817000 1 1.000000 1 -3.000000
199 2 725.956000 -2907.680000 482.128000 1 1.000000 1 -3.000000
200 2 735.745000 -2906.680000 481.450000 1 1.000000 1 -3.000000
201 2 744.217000 -2902.260000 479.196000 1 1.000000 1 -3.000000
202 2 752.805000 -2897.910000 476.704000 1 1.000000 1 -3.000000
203 2 762.149000 -2895.400000 474.449000 1 1.000000 1 -3.000000
204 2 770.986000 -2892.820000 470.645000 1 1.000000 1 -3.000000
205 2 778.590000 -2891.530000 464.520000 1 1.000000 1 -3.000000
206 2 785.345000 -2890.440000 457.430000 1 1.000000 1 -3.000000
207 2 794.594000 -2888.430000 454.268000 1 1.000000 1 -3.000000
208 2 802.499000 -2884.030000 450.206000 1 1.000000 1 -3.000000
209 2 809.970000 -2878.650000 446.513000 1 1.000000 1 -3.000000
210 2 816.093000 -2871.990000 442.616000 1 1.000000 9 -3.000000
211 1 789.757000 -2832.930000 440.672000 1 1.000000 9 0.000000
212 3 776.919000 -2849.940000 468.534000 1 1.000000 9 0.000000
213 2 755.365000 -2804.350000 455.709000 1 1.000000 9 -3.000000
214 2 749.837000 -2808.270000 462.788000 1 1.000000 1 -3.000000
215 2 743.426000 -2812.260000 469.058000 1 1.000000 1 -3.000000
216 2 735.889000 -2814.010000 475.368000 1 1.000000 1 -3.000000
217 2 727.792000 -2812.020000 480.810000 1 1.000000 1 -3.000000
218 2 719.563000 -2810.260000 485.916000 1 1.000000 1 -3.000000
219 2 711.087000 -2807.440000 490.000000 1 1.000000 1 -3.000000
220 2 706.062000 -2804.470000 497.903000 1 1.000000 1 -3.000000
221 2 705.469000 -2798.920000 506.185000 1 1.000000 1 -3.000000
222 2 702.881000 -2795.040000 514.887000 1 1.000000 1 -3.000000
223 2 700.052000 -2790.040000 523.016000 1 1.000000 1 -3.000000
224 2 692.748000 -2784.850000 527.329000 1 1.000000 1 -3.000000
225 2 687.136000 -2779.600000 533.511000 1 1.000000 1 -3.000000
226 2 679.615000 -2774.970000 538.072000 1 1.000000 1 -3.000000
227 2 671.619000 -2769.530000 539.454000 1 1.000000 1 -3.000000
228 2 665.716000 -2761.730000 537.877000 1 1.000000 1 -3.000000
229 2 659.672000 -2754.070000 536.191000 1 1.000000 1 -3.000000
230 2 656.298000 -2745.000000 534.051000 1 1.000000 1 -3.000000
231 2 653.307000 -2735.640000 534.256000 1 1.000000 1 -3.000000
232 2 651.358000 -2725.990000 533.999000 1 1.000000 1 -3.000000
233 2 653.244000 -2716.430000 534.419000 1 1.000000 1 -3.000000
234 2 655.998000 -2707.120000 536.566000 1 1.000000 1 -3.000000
235 2 657.770000 -2697.410000 536.386000 1 1.000000 1 -3.000000
236 2 659.927000 -2687.630000 535.807000 1 1.000000 1 -3.000000
237 2 664.195000 -2678.760000 536.800000 1 1.000000 10 -3.000000
238 1 709.159000 -2686.820000 525.206000 1 1.000000 10 0.000000
239 3 691.895000 -2713.040000 509.449000 1 1.000000 10 0.000000
240 2 743.407000 -2709.990000 502.296000 1 1.000000 10 -3.000000
241 2 736.263000 -2715.830000 498.890000 1 1.000000 1 -3.000000
242 2 728.613000 -2717.800000 492.830000 1 1.000000 1 -3.000000
243 2 723.045000 -2721.960000 485.706000 1 1.000000 1 -3.000000
244 2 716.450000 -2723.640000 478.482000 1 1.000000 1 -3.000000
245 2 709.272000 -2723.560000 471.732000 1 1.000000 1 -3.000000
246 2 703.538000 -2723.160000 463.640000 1 1.000000 1 -3.000000
247 2 698.672000 -2721.120000 455.237000 1 1.000000 1 -3.000000
248 2 692.819000 -2720.060000 447.386000 1 1.000000 1 -3.000000
249 2 686.680000 -2720.050000 439.703000 1 1.000000 1 -3.000000
250 2 682.806000 -2717.800000 430.938000 1 1.000000 1 -3.000000
251 2 677.191000 -2716.790000 422.819000 1 1.000000 1 -3.000000
252 2 674.500000 -2713.660000 413.880000 1 1.000000 1 -3.000000
253 2 670.035000 -2710.930000 405.531000 1 1.000000 1 -3.000000
254 2 671.212000 -2708.810000 395.748000 1 1.000000 1 -3.000000
255 2 673.808000 -2707.430000 386.294000 1 1.000000 1 -3.000000
256 2 676.509000 -2707.040000 376.800000 1 1.000000 1 -3.000000
257 2 682.636000 -2706.070000 369.117000 1 1.000000 1 -3.000000
258 2 687.458000 -2701.710000 361.766000 1 1.000000 1 -3.000000
259 2 689.393000 -2696.290000 353.650000 1 1.000000 1 -3.000000
260 2 692.695000 -2690.820000 346.004000 1 1.000000 1 -3.000000
261 2 697.306000 -2684.230000 339.963000 1 1.000000 1 -3.000000
262 2 702.599000 -2677.500000 334.974000 1 1.000000 1 -3.000000
263 2 710.416000 -2676.400000 329.023000 1 1.000000 1 -3.000000
264 2 718.542000 -2673.440000 324.222000 1 1.000000 11 -3.000000
265 1 706.933000 -2713.360000 301.803000 1 1.000000 11 0.000000
266 3 679.595000 -2707.810000 323.008000 1 1.000000 11 0.000000
267 2 677.150000 -2748.160000 290.508000 1 1.000000 11 -3.000000
268 2 671.626000 -2745.020000 298.116000 1 1.000000 1 -3.000000
269 2 666.060000 -2737.490000 301.449000 1 1.000000 1 -3.000000
270 2 659.789000 -2729.950000 300.364000 1 1.000000 1 -3.000000
271 2 653.583000 -2722.580000 298.153000 1 1.000000 1 -3.000000
272 2 650.750000 -2714.620000 293.093000 1 1.000000 1 -3.000000
273 2 651.856000 -2709.160000 285.094000 1 1.000000 1 -3.000000
274 2 655.923000 -2704.090000 277.594000 1 1.000000 1 -3.000000
275 2 657.835000 -2703.430000 267.900000 1 1.000000 1 -3.000000
276 2 659.744000 -2699.280000 259.064000 1 1.000000 1 -3.000000
277 2 661.920000 -2698.430000 249.526000 1 1.000000 1 -3.000000
278 2 662.231000 -2695.760000 239.993000 1 1.000000 1 -3.000000
279 2 665.757000 -2691.480000 231.924000 1 1.000000 1 -3.000000
280 2 669.491000 -2689.460000 222.942000 1 1.000000 1 -3.000000
281 2 672.704000 -2688.410000 213.692000 1 1.000000 1 -3.000000
282 2 678.658000 -2685.160000 206.478000 1 1.000000 1 -3.000000
283 2 687.371000 -2683.080000 202.262000 1 1.000000 1 -3.000000
284 2 694.734000 -2679.860000 196.477000 1 1.000000 1 -3.000000
285 2 701.971000 -2677.580000 190.103000 1 1.000000 1 -3.000000
286 2 706.678000 -2671.510000 183.903000 1 1.000000 1 -3.000000
287 2 711.600000 -2667.310000 176.470000 1 1.000000 1 -3.000000
288 2 714.631000 -2665.040000 167.261000 1 1.000000 1 -3.000000
289 2 717.173000 -2662.340000 157.921000 1 1.000000 1 -3.000000
290 2 719.414000 -2658.200000 149.155000 1 1.000000 1 -3.000000
291 2 719.113000 -2654.180000 140.236000 1 1.000000 12 -3.000000
292 1 746.002000 -2680.180000 111.417000 1 1.000000 12 0.000000
293 3 746.117000 -2698.660000 141.170000 1 1.000000 12 0.000000
294 2 772.030000 -2717.980000 100.545000 1 1.000000 12 -3.000000
295 2 772.251000 -2722.680000 109.429000 1 1.000000 1 -3.000000
296 2 770.586000 -2724.410000 119.116000 1 1.000000 1 -3.000000
297 2 769.823000 -2722.320000 128.793000 1 1.000000 1 -3.000000
298 2 771.438000 -2721.610000 138.585000 1 1.000000 1 -3.000000
299 2 773.141000 -2721.490000 148.208000 1 1.000000 1 -3.000000
300 2 774.635000 -2720.470000 157.944000 1 1.000000 1 -3.000000
301 2 775.599000 -2719.320000 167.685000 1 1.000000 1 -3.000000
302 2 778.012000 -2718.870000 177.339000 1 1.000000 1 -3.000000
303 2 781.052000 -2716.290000 186.255000 1 1.000000 1 -3.000000
304 2 780.959000 -2714.730000 196.139000 1 1.000000 1 -3.000000
305 2 781.576000 -2712.990000 205.870000 1 1.000000 1 -3.000000
306 2 783.033000 -2712.290000 215.583000 1 1.000000 1 -3.000000
307 2 786.881000 -2714.560000 224.452000 1 1.000000 1 -3.000000
308 2 786.736000 -2717.390000 233.834000 1 1.000000 1 -3.000000
309 2 786.105000 -2719.670000 243.451000 1 1.000000 1 -3.000000
310 2 786.863000 -2720.970000 253.189000 1 1.000000 1 -3.000000
311 2 790.689000 -2723.350000 262.069000 1 1.000000 1 -3.000000
312 2 794.143000 -2724.760000 271.338000 1 1.000000 1 -3.000000
313 2 796.110000 -2728.420000 280.244000 1 1.000000 1 -3.000000
314 2 798.362000 -2732.720000 288.942000 1 1.000000 1 -3.000000
315 2 805.145000 -2734.720000 295.883000 1 1.000000 1 -3.000000
316 2 811.839000 -2736.710000 302.912000 1 1.000000 1 -3.000000
317 2 816.855000 -2735.780000 311.520000 1 1.000000 1 -3.000000
318 2 820.484000 -2735.100000 320.608000 1 1.000000 13 -3.000000
319 1 783.098000 -2747.860000 346.365000 1 1.000000 13 0.000000
320 3 773.799000 -2756.910000 313.859000 1 1.000000 13 0.000000
321 2 740.028000 -2766.190000 352.206000 1 1.000000 13 -3.000000
322 2 738.383000 -2766.540000 342.463000 1 1.000000 1 -3.000000
323 2 733.323000 -2767.600000 333.933000 1 1.000000 1 -3.000000
324 2 728.802000 -2765.900000 325.130000 1 1.000000 1 -3.000000
325 2 727.264000 -2763.950000 315.510000 1 1.000000 1 -3.000000
326 2 725.430000 -2762.030000 305.963000 1 1.000000 1 -3.000000
327 2 721.965000 -2758.450000 297.372000 1 1.000000 1 -3.000000
328 2 718.532000 -2758.020000 288.124000 1 1.000000 1 -3.000000
329 2 712.711000 -2758.390000 280.168000 1 1.000000 1 -3.000000
330 2 710.459000 -2756.130000 270.844000 1 1.000000 1 -3.000000
331 2 706.649000 -2757.880000 262.050000 1 1.000000 1 -3.000000
332 2 704.068000 -2761.760000 253.290000 1 1.000000 1 -3.000000
333 2 702.919000 -2766.730000 244.712000 1 1.000000 1 -3.000000
334 2 704.286000 -2772.670000 236.928000 1 1.000000 1 -3.000000
335 2 706.800000 -2776.640000 228.208000 1 1.000000 1 -3.000000
336 2 711.094000 -2783.180000 222.074000 1 1.000000 1 -3.000000
337 2 713.689000 -2789.320000 214.926000 1 1.000000 1 -3.000000
338 2 717.818000 -2794.790000 207.675000 1 1.000000 1 -3.000000
339 2 721.836000 -2801.380000 201.454000 1 1.000000 1 -3.000000
340 2 727.214000 -2806.240000 194.735000 1 1.000000 1 -3.000000
341 2 731.077000 -2809.830000 186.359000 1 1.000000 1 -3.000000
342 2 736.592000 -2810.640000 178.127000 1 1.000000 1 -3.000000
343 2 739.902000 -2810.910000 168.778000 1 1.000000 1 -3.000000
344 2 744.610000 -2811.160000 160.259000 1 1.000000 1 -3.000000
345 2 750.252000 -2810.030000 152.212000 1 1.000000 14 -3.000000
346 1 721.036000 -2778.330000 132.987000 1 1.000000 14 0.000000
347 3 718.046000 -2772.230000 167.379000 1 1.000000 14 0.000000
348 2 686.644000 -2746.080000 135.398000 1 1.000000 14 -3.000000
349 2 681.590000 -2747.870000 143.791000 1 1.000000 1 -3.000000
350 2 676.711000 -2751.950000 151.302000 1 1.000000 1 -3.000000
351 2 669.185000 -2754.820000 157.057000 1 1.000000 1 -3.000000
352 2 662.033000 -2754.970000 163.828000 1 1.000000 1 -3.000000
353 2 658.086000 -2751.380000 172.183000 1 1.000000 1 -3.000000
354 2 654.112000 -2745.670000 179.242000 1 1.000000 1 -3.000000
355 2 646.886000 -2740.600000 183.524000 1 1.000000 1 -3.000000
356 2 639.135000 -2734.660000 184.728000 1 1.000000 1 -3.000000
357 2 632.653000 -2727.180000 186.067000 1 1.000000 1 -3.000000
358 2 627.558000 -2720.840000 191.559000 1 1.000000 1 -3.000000
359 2 623.337000 -2717.780000 199.987000 1 1.000000 1 -3.000000
360 2 617.808000 -2714.190000 207.450000 1 1.000000 1 -3.000000
361 2 608.937000 -2711.380000 210.574000 1 1.000000 1 -3.000000
362 2 599.544000 -2708.850000 212.101000 1 1.000000 1 -3.000000
363 2 589.652000 -2707.780000 212.475000 1 1.000000 1 -3.000000
364 2 580.224000 -2704.910000 211.113000 1 1.000000 1 -3.000000
365 2 571.327000 -2701.340000 208.700000 1 1.000000 1 -3.000000
366 2 564.258000 -2694.650000 207.027000 1 1.000000 1 -3.000000
367 2 556.898000 -2688.180000 207.889000 1 1.000000 1 -3.000000
368 2 549.359000 -2681.760000 207.656000 1 1.000000 1 -3.000000
369 2 544.878000 -2675.280000 201.561000 1 1.000000 1 -3.000000
370 2 546.900000 -2666.640000 197.073000 1 1.000000 1 -3.000000
371 2 547.023000 -2659.290000 190.391000 1 1.000000 1 -3.000000
372 2 545.537000 -2653.030000 182.950000 1 1.000000 15 -3.000000
373 1 510.409000 -2631.570000 205.955000 1 1.000000 15 0.000000
374 3 527.365000 -2648.650000 231.225000 1 1.000000 15 0.000000
375 2 486.906000 -2619.090000 244.982000 1 1.000000 15 -3.000000
376 2 492.940000 -2625.250000 249.730000 1 1.000000 1 -3.000000
377 2 499.605000 -2630.290000 255.064000 1 1.000000 1 -3.000000
378 2 506.327000 -2635.040000 260.497000 1 1.000000 1 -3.000000
379 2 511.220000 -2639.850000 267.417000 1 1.000000 1 -3.000000
380 2 515.936000 -2644.460000 274.912000 1 1.000000 1 -3.000000
381 2 521.231000 -2648.940000 281.940000 1 1.000000 1 -3.000000
382 2 522.834000 -2654.250000 290.301000 1 1.000000 1 -3.000000
383 2 525.156000 -2658.940000 298.839000 1 1.000000 1 -3.000000
384 2 527.046000 -2663.040000 307.528000 1 1.000000 1 -3.000000
385 2 529.757000 -2666.290000 316.539000 1 1.000000 1 -3.000000
386 2 535.538000 -2670.880000 323.362000 1 1.000000 1 -3.000000
387 2 538.871000 -2678.750000 328.411000 1 1.000000 1 -3.000000
388 2 543.932000 -2685.910000 333.040000 1 1.000000 1 -3.000000
389 2 548.010000 -2693.940000 337.106000 1 1.000000 1 -3.000000
390 2 553.439000 -2702.120000 338.731000 1 1.000000 1 -3.000000
391 2 558.699000 -2710.190000 341.347000 1 1.000000 1 -3.000000
392 2 561.799000 -2718.660000 345.530000 1 1.000000 1 -3.000000
393 2 566.243000 -2727.180000 348.279000 1 1.000000 1 -3.000000
394 2 574.386000 -2732.570000 349.675000 1 1.000000 1 -3.000000
395 2 583.772000 -2735.560000 350.382000 1 1.000000 1 -3.000000
396 2 591.734000 -2740.870000 352.811000 1 1.000000 1 -3.000000
397 2 600.744000 -2742.580000 356.780000 1 1.000000 1 -3.000000
398 2 608.613000 -2741.650000 362.862000 1 1.000000 1 -3.000000
399 2 614.764000 -2743.140000 370.426000 1 1.000000 16 -3.000000
400 1 608.040000 -2702.770000 393.966000 1 1.000000 16 0.000000
401 3 602.972000 -2693.520000 360.585000 1 1.000000 16 0.000000
402 2 596.952000 -2656.980000 397.049000 1 1.000000 16 -3.000000
403 2 591.590000 -2659.500000 389.210000 1 1.000000 1 -3.000000
404 2 586.410000 -2661.760000 380.987000 1 1.000000 1 -3.000000
405 2 578.039000 -2661.850000 375.447000 1 1.000000 1 -3.000000
406 2 569.809000 -2658.990000 370.757000 1 1.000000 1 -3.000000
407 2 561.118000 -2655.140000 367.786000 1 1.000000 1 -3.000000
408 2 554.473000 -2647.860000 367.343000 1 1.000000 1 -3.000000
409 2 549.209000 -2641.090000 362.251000 1 1.000000 1 -3.000000
410 2 544.477000 -2633.460000 358.124000 1 1.000000 1 -3.000000
411 2 539.493000 -2625.130000 355.995000 1 1.000000 1 -3.000000
412 2 533.747000 -2617.150000 355.858000 1 1.000000 1 -3.000000
413 2 528.383000 -2608.800000 356.309000 1 1.000000 1 -3.000000
414 2 522.591000 -2600.810000 357.009000 1 1.000000 1 -3.000000
415 2 518.441000 -2594.040000 362.824000 1 1.000000 1 -3.000000
416 2 516.994000 -2587.250000 369.977000 1 1.000000 1 -3.000000
417 2 515.096000 -2580.980000 377.568000 1 1.000000 1 -3.000000
418 2 513.765000 -2574.470000 384.975000 1 1.000000 1 -3.000000
419 2 512.181000 -2566.430000 390.559000 1 1.000000 1 -3.000000
420 2 513.274000 -2558.150000 395.703000 1 1.000000 1 -3.000000
421 2 511.929000 -2552.310000 403.638000 1 1.000000 1 -3.000000
422 2 509.508000 -2545.430000 410.212000 1 1.000000 1 -3.000000
423 2 505.920000 -2536.320000 412.094000 1 1.000000 1 -3.000000
424 2 506.492000 -2527.310000 415.960000 1 1.000000 1 -3.000000
425 2 506.482000 -2519.010000 421.442000 1 1.000000 1 -3.000000
426 2 504.961000 -2510.270000 425.783000 1 1.000000 17 -3.000000
427 1 547.991000 -2517.870000 443.422000 1 1.000000 17 0.000000
428 3 550.465000 -2530.580000 410.844000 1 1.000000 17 0.000000
429 2 592.507000 -2533.220000 441.094000 1 1.000000 17 -3.000000
430 2 593.934000 -2533.740000 431.280000 1 1.000000 1 -3.000000
431 2 592.661000 -2533.100000 421.481000 1 1.000000 1 -3.000000
432 2 591.674000 -2533.980000 411.728000 1 1.000000 1 -3.000000
433 2 591.949000 -2535.630000 401.938000 1 1.000000 1 -3.000000
434 2 590.768000 -2534.450000 392.219000 1 1.000000 1 -3.000000
435 2 586.311000 -2532.630000 383.579000 1 1.000000 1 -3.000000
436 2 580.936000 -2531.540000 375.387000 1 1.000000 1 -3.000000
437 2 577.323000 -2527.450000 367.046000 1 1.000000 1 -3.000000
438 2 573.122000 -2520.690000 361.057000 1 1.000000 1 -3.000000
439 2 567.787000 -2512.610000 359.210000 1 1.000000 1 -3.000000
440 2 563.667000 -2503.580000 358.715000 1 1.000000 1 -3.000000
441 2 556.948000 -2496.250000 357.530000 1 1.000000 1 -3.000000
442 2 548.986000 -2490.530000 358.574000 1 1.000000 1 -3.000000
443 2 541.074000 -2484.650000 359.827000 1 1.000000 1 -3.000000
444 2 534.369000 -2478.030000 362.975000 1 1.000000 1 -3.000000
445 2 529.259000 -2470.180000 366.193000 1 1.000000 1 -3.000000
446 2 522.133000 -2463.460000 367.265000 1 1.000000 1 -3.000000
447 2 517.017000 -2454.870000 366.432000 1 1.000000 1 -3.000000
448 2 512.602000 -2446.160000 364.725000 1 1.000000 1 -3.000000
449 2 507.019000 -2438.120000 363.204000 1 1.000000 1 -3.000000
450 2 498.781000 -2433.220000 366.011000 1 1.000000 1 -3.000000
451 2 490.587000 -2428.700000 368.811000 1 1.000000 1 -3.000000
452 2 481.264000 -2425.730000 370.449000 1 1.000000 1 -3.000000
453 2 472.742000 -2421.480000 372.743000 1 1.000000 18 -3.000000
454 1 453.177000 -2456.010000 398.180000 1 1.000000 18 0.000000
455 3 487.259000 -2464.090000 398.346000 1 1.000000 18 0.000000
456 2 454.381000 -2497.180000 421.388000 1 1.000000 18 -3.000000
457 2 464.290000 -2497.410000 420.536000 1 1.000000 1 -3.000000
458 2 473.715000 -2498.530000 423.236000 1 1.000000 1 -3.000000
459 2 481.934000 -2496.490000 428.474000 1 1.000000 1 -3.000000
460 2 488.429000 -2490.830000 433.140000 1 1.000000 1 -3.000000
461 2 493.188000 -2484.240000 438.817000 1 1.000000 1 -3.000000
462 2 498.690000 -2477.150000 442.869000 1 1.000000 1 -3.000000
463 2 505.926000 -2470.460000 443.210000 1 1.000000 1 -3.000000
464 2 512.985000 -2463.830000 441.332000 1 1.000000 1 -3.000000
465 2 521.633000 -2458.950000 440.533000 1 1.000000 1 -3.000000