LAMMPS data file

4067 atoms
4067 ellipsoids
4516 bonds
8882 angles
0 dihedrals

3 atom types
5 bond types
12 angle types
0 dihedral types

-4631.092947 4670.465898 xlo xhi
-4631.092947 4670.465898 ylo yhi
-4631.092947 4670.465898 zlo zhi

Masses

1 196016.000000
2 1950.000000
3 19500.000000

Atoms

1 2 488.675000 -2986.130000 626.587000 1 1.000000 1 -3.000000
2 2 494.027000 -2979.810000 631.900000 1 1.000000 1 -3.000000
3 2 498.242000 -2973.920000 638.553000 1 1.000000 1 -3.000000
4 2 499.192000 -2967.540000 645.994000 1 1.000000 1 -3.000000
5 2 503.534000 -2959.760000 650.107000 1 1.000000 1 -3.000000
6 2 505.908000 -2950.390000 648.278000 1 1.000000 1 -3.000000
7 2 506.199000 -2940.780000 646.113000 1 1.000000 1 -3.000000
8 2 503.523000 -2931.630000 643.655000 1 1.000000 1 -3.000000
9 2 503.052000 -2922.770000 639.410000 1 1.000000 1 -3.000000
10 2 500.628000 -2913.850000 635.946000 1 1.000000 1 -3.000000
11 2 498.632000 -2905.160000 631.756000 1 1.000000 1 -3.000000
12 2 494.689000 -2897.080000 627.861000 1 1.000000 1 -3.000000
13 2 490.808000 -2889.030000 623.778000 1 1.000000 1 -3.000000
14 2 484.253000 -2881.940000 621.817000 1 1.000000 1 -3.000000
15 2 476.563000 -2876.100000 619.409000 1 1.000000 1 -3.000000
16 2 467.391000 -2872.980000 617.157000 1 1.000000 1 -3.000000
17 2 459.909000 -2866.610000 618.302000 1 1.000000 1 -3.000000
18 2 452.313000 -2860.440000 619.899000 1 1.000000 1 -3.000000
19 2 445.868000 -2853.610000 622.626000 1 1.000000 1 -3.000000
20 2 442.385000 -2845.190000 626.723000 1 1.000000 1 -3.000000
21 2 437.019000 -2838.040000 630.983000 1 1.000000 2 -3.000000
22 1 430.563000 -2859.740000 672.363000 1 1.000000 2 0.000000
23 3 462.755000 -2869.690000 662.897000 1 1.000000 2 0.000000
24 2 445.286000 -2885.180000 709.286000 1 1.000000 2 -3.000000
25 2 454.784000 -2886.310000 707.231000 1 1.000000 1 -3.000000
26 2 464.317000 -2888.170000 705.055000 1 1.000000 1 -3.000000
27 2 473.504000 -2885.660000 702.318000 1 1.000000 1 -3.000000
28 2 482.542000 -2881.950000 700.514000 1 1.000000 1 -3.000000
29 2 492.379000 -2881.770000 699.044000 1 1.000000 1 -3.000000
30 2 502.179000 -2882.320000 697.925000 1 1.000000 1 -3.000000
31 2 512.003000 -2883.110000 698.572000 1 1.000000 1 -3.000000
32 2 520.839000 -2887.230000 700.348000 1 1.000000 1 -3.000000
33 2 526.283000 -2893.440000 705.505000 1 1.000000 1 -3.000000
34 2 530.524000 -2898.870000 712.680000 1 1.000000 1 -3.000000
35 2 537.499000 -2903.590000 717.951000 1 1.000000 1 -3.000000
36 2 544.817000 -2909.790000 720.270000 1 1.000000 1 -3.000000
37 2 552.949000 -2914.510000 723.352000 1 1.000000 1 -3.000000
38 2 561.399000 -2918.780000 726.398000 1 1.000000 1 -3.000000
39 2 568.612000 -2922.540000 731.931000 1 1.000000 1 -3.000000
40 2 573.725000 -2925.050000 740.060000 1 1.000000 1 -3.000000
41 2 579.565000 -2927.970000 747.421000 1 1.000000 1 -3.000000
42 2 583.947000 -2930.410000 756.095000 1 1.000000 1 -3.000000
43 2 589.497000 -2933.230000 763.809000 1 1.000000 1 -3.000000
44 2 593.486000 -2937.060000 771.984000 1 1.000000 1 -3.000000
45 2 600.283000 -2939.250000 778.973000 1 1.000000 1 -3.000000
46 2 608.012000 -2944.610000 782.439000 1 1.000000 1 -3.000000
47 2 613.770000 -2952.440000 784.080000 1 1.000000 1 -3.000000
48 2 617.266000 -2961.590000 784.800000 1 1.000000 3 -3.000000
49 1 657.889000 -2946.370000 803.303000 1 1.000000 3 0.000000
50 3 646.107000 -2918.380000 785.968000 1 1.000000 3 0.000000
51 2 691.438000 -2914.080000 810.818000 1 1.000000 3 -3.000000
52 2 686.642000 -2905.540000 811.301000 1 1.000000 1 -3.000000
53 2 684.604000 -2896.020000 812.732000 1 1.000000 1 -3.000000
54 2 681.469000 -2887.850000 817.114000 1 1.000000 1 -3.000000
55 2 677.134000 -2879.030000 815.597000 1 1.000000 1 -3.000000
56 2 673.313000 -2870.420000 812.622000 1 1.000000 1 -3.000000
57 2 670.716000 -2862.210000 807.768000 1 1.000000 1 -3.000000
58 2 667.588000 -2853.590000 804.223000 1 1.000000 1 -3.000000
59 2 665.544000 -2844.400000 801.552000 1 1.000000 1 -3.000000
60 2 663.037000 -2836.810000 795.705000 1 1.000000 1 -3.000000
61 2 660.184000 -2830.870000 788.390000 1 1.000000 1 -3.000000
62 2 658.598000 -2825.180000 780.428000 1 1.000000 1 -3.000000
63 2 654.425000 -2819.570000 773.516000 1 1.000000 1 -3.000000
64 2 649.722000 -2813.930000 766.766000 1 1.000000 1 -3.000000
65 2 645.449000 -2810.830000 758.400000 1 1.000000 1 -3.000000
66 2 643.797000 -2806.650000 749.534000 1 1.000000 1 -3.000000
67 2 642.887000 -2799.820000 742.531000 1 1.000000 1 -3.000000
68 2 643.526000 -2791.260000 737.689000 1 1.000000 1 -3.000000
69 2 644.259000 -2781.420000 736.597000 1 1.000000 1 -3.000000
70 2 644.727000 -2771.790000 734.393000 1 1.000000 1 -3.000000
71 2 644.306000 -2762.130000 732.274000 1 1.000000 1 -3.000000
72 2 643.784000 -2752.940000 728.409000 1 1.000000 1 -3.000000
73 2 643.613000 -2744.490000 723.315000 1 1.000000 1 -3.000000
74 2 641.021000 -2736.210000 718.724000 1 1.000000 1 -3.000000
75 2 634.640000 -2730.090000 714.506000 1 1.000000 4 -3.000000
76 1 655.505000 -2710.330000 677.139000 1 1.000000 4 0.000000
77 3 675.252000 -2738.430000 683.377000 1 1.000000 4 0.000000
78 2 688.992000 -2707.390000 644.034000 1 1.000000 4 -3.000000
79 2 688.233000 -2717.060000 645.827000 1 1.000000 1 -3.000000
80 2 692.021000 -2725.840000 643.044000 1 1.000000 1 -3.000000
81 2 694.602000 -2735.150000 644.681000 1 1.000000 1 -3.000000
82 2 697.795000 -2744.480000 645.425000 1 1.000000 1 -3.000000
83 2 698.825000 -2753.260000 649.929000 1 1.000000 1 -3.000000
84 2 698.099000 -2762.620000 653.358000 1 1.000000 1 -3.000000
85 2 697.723000 -2772.380000 651.736000 1 1.000000 1 -3.000000
86 2 697.868000 -2782.370000 651.415000 1 1.000000 1 -3.000000
87 2 700.024000 -2792.140000 651.222000 1 1.000000 1 -3.000000
88 2 702.068000 -2801.620000 649.076000 1 1.000000 1 -3.000000
89 2 703.945000 -2809.960000 644.298000 1 1.000000 1 -3.000000
90 2 703.528000 -2819.390000 641.468000 1 1.000000 1 -3.000000
91 2 700.059000 -2828.760000 640.282000 1 1.000000 1 -3.000000
92 2 699.690000 -2838.120000 636.996000 1 1.000000 1 -3.000000
93 2 697.636000 -2847.110000 633.449000 1 1.000000 1 -3.000000
94 2 692.689000 -2855.650000 634.240000 1 1.000000 1 -3.000000
95 2 685.296000 -2860.570000 638.692000 1 1.000000 1 -3.000000
96 2 677.389000 -2866.070000 640.541000 1 1.000000 1 -3.000000
97 2 673.027000 -2874.020000 644.493000 1 1.000000 1 -3.000000
98 2 668.744000 -2882.670000 646.599000 1 1.000000 1 -3.000000
99 2 667.678000 -2892.430000 646.509000 1 1.000000 1 -3.000000
100 2 666.963000 -2902.110000 644.114000 1 1.000000 1 -3.000000
101 2 668.988000 -2911.880000 643.888000 1 1.000000 1 -3.000000
102 2 670.831000 -2921.550000 642.461000 1 1.000000 5 -3.000000
103 1 646.288000 -2912.240000 603.155000 1 1.000000 5 0.000000
104 3 661.666000 -2881.640000 610.283000 1 1.000000 5 0.000000
105 2 634.602000 -2885.190000 566.305000 1 1.000000 5 -3.000000
106 2 641.828000 -2880.320000 570.929000 1 1.000000 1 -3.000000
107 2 650.961000 -2877.120000 572.032000 1 1.000000 1 -3.000000
108 2 660.283000 -2874.230000 570.967000 1 1.000000 1 -3.000000
109 2 667.577000 -2867.360000 569.823000 1 1.000000 1 -3.000000
110 2 674.032000 -2861.900000 564.568000 1 1.000000 1 -3.000000
111 2 677.859000 -2855.500000 558.038000 1 1.000000 1 -3.000000
112 2 681.090000 -2847.580000 553.155000 1 1.000000 1 -3.000000
113 2 685.121000 -2840.560000 547.450000 1 1.000000 1 -3.000000
114 2 690.502000 -2836.130000 540.480000 1 1.000000 1 -3.000000
115 2 695.036000 -2827.590000 537.886000 1 1.000000 1 -3.000000
116 2 692.618000 -2818.480000 534.713000 1 1.000000 1 -3.000000
117 2 687.349000 -2810.990000 531.116000 1 1.000000 1 -3.000000
118 2 684.252000 -2802.570000 526.628000 1 1.000000 1 -3.000000
119 2 681.981000 -2794.030000 522.364000 1 1.000000 1 -3.000000
120 2 679.392000 -2784.780000 519.673000 1 1.000000 1 -3.000000
121 2 679.398000 -2775.290000 516.480000 1 1.000000 1 -3.000000
122 2 678.384000 -2766.720000 511.708000 1 1.000000 1 -3.000000
123 2 675.650000 -2759.430000 505.715000 1 1.000000 1 -3.000000
124 2 673.449000 -2752.740000 498.657000 1 1.000000 1 -3.000000
125 2 670.793000 -2748.550000 490.015000 1 1.000000 1 -3.000000
126 2 669.299000 -2743.160000 481.830000 1 1.000000 1 -3.000000
127 2 667.741000 -2737.040000 474.269000 1 1.000000 1 -3.000000
128 2 672.297000 -2730.730000 468.186000 1 1.000000 1 -3.000000
129 2 673.041000 -2726.150000 459.523000 1 1.000000 6 -3.000000
130 1 708.823000 -2750.050000 440.025000 1 1.000000 6 0.000000
131 3 685.024000 -2775.030000 446.323000 1 1.000000 6 0.000000
132 2 730.775000 -2789.560000 426.512000 1 1.000000 6 -3.000000
133 2 722.394000 -2794.250000 424.310000 1 1.000000 1 -3.000000
134 2 714.007000 -2798.410000 421.102000 1 1.000000 1 -3.000000
135 2 704.809000 -2800.930000 418.400000 1 1.000000 1 -3.000000
136 2 696.306000 -2805.080000 415.910000 1 1.000000 1 -3.000000
137 2 686.784000 -2807.020000 413.755000 1 1.000000 1 -3.000000
138 2 677.540000 -2809.660000 411.630000 1 1.000000 1 -3.000000
139 2 668.111000 -2812.630000 411.289000 1 1.000000 1 -3.000000
140 2 659.202000 -2814.470000 407.399000 1 1.000000 1 -3.000000
141 2 650.146000 -2815.770000 403.617000 1 1.000000 1 -3.000000
142 2 642.026000 -2816.510000 397.887000 1 1.000000 1 -3.000000
143 2 633.299000 -2816.710000 393.356000 1 1.000000 1 -3.000000
144 2 623.760000 -2816.290000 390.784000 1 1.000000 1 -3.000000
145 2 615.008000 -2818.280000 386.881000 1 1.000000 1 -3.000000
146 2 606.064000 -2821.450000 384.705000 1 1.000000 1 -3.000000
147 2 596.550000 -2822.370000 382.025000 1 1.000000 1 -3.000000
148 2 587.779000 -2818.680000 379.165000 1 1.000000 1 -3.000000
149 2 579.468000 -2815.910000 374.545000 1 1.000000 1 -3.000000
150 2 572.877000 -2808.920000 371.944000 1 1.000000 1 -3.000000
151 2 567.465000 -2800.620000 373.001000 1 1.000000 1 -3.000000
152 2 560.132000 -2794.740000 376.059000 1 1.000000 1 -3.000000
153 2 552.725000 -2788.940000 379.118000 1 1.000000 1 -3.000000
154 2 543.743000 -2786.190000 382.197000 1 1.000000 1 -3.000000
155 2 534.582000 -2783.530000 384.880000 1 1.000000 1 -3.000000
156 2 526.632000 -2779.180000 388.797000 1 1.000000 7 -3.000000
157 1 511.730000 -2769.320000 345.151000 1 1.000000 7 0.000000
158 3 535.250000 -2794.910000 340.137000 1 1.000000 7 0.000000
159 2 513.743000 -2772.940000 298.112000 1 1.000000 7 -3.000000
160 2 519.910000 -2780.460000 296.692000 1 1.000000 1 -3.000000
161 2 527.590000 -2786.080000 294.275000 1 1.000000 1 -3.000000
162 2 534.708000 -2792.510000 291.558000 1 1.000000 1 -3.000000
163 2 541.983000 -2799.070000 290.194000 1 1.000000 1 -3.000000
164 2 549.761000 -2804.600000 287.274000 1 1.000000 1 -3.000000
165 2 558.807000 -2807.960000 284.613000 1 1.000000 1 -3.000000
166 2 566.134000 -2810.430000 278.686000 1 1.000000 1 -3.000000
167 2 573.116000 -2812.960000 271.969000 1 1.000000 1 -3.000000
168 2 579.802000 -2814.260000 264.823000 1 1.000000 1 -3.000000
169 2 583.697000 -2816.920000 256.152000 1 1.000000 1 -3.000000
170 2 587.328000 -2820.940000 247.798000 1 1.000000 1 -3.000000
171 2 589.606000 -2824.280000 238.636000 1 1.000000 1 -3.000000
172 2 592.159000 -2824.660000 229.004000 1 1.000000 1 -3.000000
173 2 592.328000 -2826.990000 219.375000 1 1.000000 1 -3.000000
174 2 591.452000 -2827.730000 209.613000 1 1.000000 1 -3.000000
175 2 591.131000 -2829.620000 200.045000 1 1.000000 1 -3.000000
176 2 589.751000 -2827.530000 190.540000 1 1.000000 1 -3.000000
177 2 591.831000 -2831.950000 181.981000 1 1.000000 1 -3.000000
178 2 593.726000 -2838.580000 175.029000 1 1.000000 1 -3.000000
179 2 592.305000 -2845.040000 167.540000 1 1.000000 1 -3.000000
180 2 587.412000 -2848.560000 159.748000 1 1.000000 1 -3.000000
181 2 582.541000 -2854.760000 153.854000 1 1.000000 1 -3.000000
182 2 576.052000 -2859.910000 148.624000 1 1.000000 1 -3.000000
183 2 567.151000 -2864.230000 148.080000 1 1.000000 8 -3.000000
184 1 537.312000 -2827.640000 148.855000 1 1.000000 8 0.000000
185 3 567.145000 -2813.910000 160.855000 1 1.000000 8 0.000000
186 2 525.147000 -2783.530000 160.476000 1 1.000000 8 -3.000000
187 2 534.819000 -2781.190000 160.093000 1 1.000000 1 -3.000000
188 2 543.111000 -2775.930000 159.931000 1 1.000000 1 -3.000000
189 2 552.461000 -2773.040000 161.359000 1 1.000000 1 -3.000000
190 2 561.274000 -2768.860000 162.155000 1 1.000000 1 -3.000000
191 2 571.193000 -2768.770000 162.715000 1 1.000000 1 -3.000000
192 2 581.005000 -2767.840000 161.983000 1 1.000000 1 -3.000000
193 2 590.540000 -2769.300000 163.435000 1 1.000000 1 -3.000000
194 2 600.063000 -2770.320000 165.883000 1 1.000000 1 -3.000000
195 2 608.524000 -2768.610000 170.885000 1 1.000000 1 -3.000000
196 2 613.825000 -2765.550000 178.537000 1 1.000000 1 -3.000000
197 2 619.136000 -2763.980000 186.823000 1 1.000000 1 -3.000000
198 2 624.340000 -2765.260000 195.151000 1 1.000000 1 -3.000000
199 2 630.430000 -2766.400000 202.784000 1 1.000000 1 -3.000000
200 2 639.530000 -2767.170000 206.458000 1 1.000000 1 -3.000000
201 2 648.409000 -2766.180000 210.630000 1 1.000000 1 -3.000000
202 2 657.876000 -2766.600000 213.598000 1 1.000000 1 -3.000000
203 2 666.848000 -2770.140000 216.072000 1 1.000000 1 -3.000000
204 2 673.262000 -2775.050000 221.780000 1 1.000000 1 -3.000000
205 2 679.628000 -2779.190000 228.054000 1 1.000000 1 -3.000000
206 2 686.467000 -2785.910000 230.416000 1 1.000000 1 -3.000000
207 2 692.286000 -2793.880000 231.729000 1 1.000000 1 -3.000000
208 2 701.913000 -2796.150000 231.795000 1 1.000000 1 -3.000000
209 2 709.929000 -2800.990000 234.884000 1 1.000000 1 -3.000000
210 2 717.720000 -2806.260000 237.825000 1 1.000000 9 -3.000000
211 1 744.308000 -2767.850000 244.584000 1 1.000000 9 0.000000
212 3 712.460000 -2754.440000 238.171000 1 1.000000 9 0.000000
213 2 751.763000 -2721.280000 245.493000 1 1.000000 9 -3.000000
214 2 742.469000 -2721.830000 241.961000 1 1.000000 1 -3.000000
215 2 733.054000 -2719.230000 240.517000 1 1.000000 1 -3.000000
216 2 724.694000 -2715.380000 236.770000 1 1.000000 1 -3.000000
217 2 716.197000 -2711.060000 233.707000 1 1.000000 1 -3.000000
218 2 709.246000 -2704.230000 232.894000 1 1.000000 1 -3.000000
219 2 700.912000 -2700.590000 229.247000 1 1.000000 1 -3.000000
220 2 692.441000 -2699.900000 224.245000 1 1.000000 1 -3.000000
221 2 684.680000 -2695.890000 219.319000 1 1.000000 1 -3.000000
222 2 678.768000 -2689.120000 215.365000 1 1.000000 1 -3.000000
223 2 672.655000 -2682.190000 212.077000 1 1.000000 1 -3.000000
224 2 666.477000 -2674.420000 212.950000 1 1.000000 1 -3.000000
225 2 659.594000 -2667.300000 211.953000 1 1.000000 1 -3.000000
226 2 657.406000 -2657.880000 210.128000 1 1.000000 1 -3.000000
227 2 655.373000 -2649.270000 205.754000 1 1.000000 1 -3.000000
228 2 649.415000 -2642.180000 201.929000 1 1.000000 1 -3.000000
229 2 645.718000 -2634.640000 196.858000 1 1.000000 1 -3.000000
230 2 642.241000 -2626.480000 192.572000 1 1.000000 1 -3.000000
231 2 641.381000 -2617.730000 187.981000 1 1.000000 1 -3.000000
232 2 641.627000 -2610.220000 181.548000 1 1.000000 1 -3.000000
233 2 643.171000 -2600.800000 179.042000 1 1.000000 1 -3.000000
234 2 648.293000 -2593.700000 174.252000 1 1.000000 1 -3.000000
235 2 655.178000 -2589.130000 168.849000 1 1.000000 1 -3.000000
236 2 662.023000 -2584.000000 163.903000 1 1.000000 1 -3.000000
237 2 669.867000 -2580.130000 159.363000 1 1.000000 10 -3.000000
238 1 647.008000 -2554.690000 126.792000 1 1.000000 10 0.000000
239 3 627.633000 -2583.700000 129.500000 1 1.000000 10 0.000000
240 2 612.692000 -2547.790000 95.052700 1 1.000000 10 -3.000000
241 2 603.798000 -2552.220000 95.597100 1 1.000000 1 -3.000000
242 2 595.475000 -2556.850000 98.341300 1 1.000000 1 -3.000000
243 2 585.888000 -2558.580000 98.873900 1 1.000000 1 -3.000000
244 2 577.035000 -2562.080000 102.003000 1 1.000000 1 -3.000000
245 2 568.445000 -2566.990000 102.216000 1 1.000000 1 -3.000000
246 2 561.664000 -2573.780000 104.407000 1 1.000000 1 -3.000000
247 2 554.801000 -2579.420000 108.780000 1 1.000000 1 -3.000000
248 2 547.404000 -2583.210000 114.335000 1 1.000000 1 -3.000000
249 2 538.377000 -2586.310000 117.440000 1 1.000000 1 -3.000000
250 2 528.648000 -2587.410000 118.649000 1 1.000000 1 -3.000000
251 2 518.986000 -2589.370000 119.605000 1 1.000000 1 -3.000000
252 2 510.302000 -2589.120000 124.423000 1 1.000000 1 -3.000000
253 2 501.412000 -2585.710000 127.145000 1 1.000000 1 -3.000000
254 2 492.834000 -2583.540000 131.653000 1 1.000000 1 -3.000000
255 2 483.825000 -2579.660000 133.556000 1 1.000000 1 -3.000000
256 2 474.438000 -2577.740000 130.823000 1 1.000000 1 -3.000000
257 2 466.884000 -2572.280000 127.445000 1 1.000000 1 -3.000000
258 2 458.655000 -2566.960000 126.374000 1 1.000000 1 -3.000000
259 2 449.719000 -2562.750000 125.641000 1 1.000000 1 -3.000000
260 2 440.656000 -2558.850000 126.251000 1 1.000000 1 -3.000000
261 2 432.368000 -2553.450000 126.211000 1 1.000000 1 -3.000000
262 2 424.871000 -2548.960000 121.384000 1 1.000000 1 -3.000000
263 2 418.732000 -2545.930000 114.257000 1 1.000000 1 -3.000000
264 2 412.826000 -2540.250000 108.712000 1 1.000000 11 -3.000000
265 1 440.317000 -2504.430000 94.704900 1 1.000000 11 0.000000
266 3 462.992000 -2526.770000 109.611000 1 1.000000 11 0.000000
267 2 482.073000 -2484.190000 86.423300 1 1.000000 11 -3.000000
268 2 488.467000 -2490.660000 90.461200 1 1.000000 1 -3.000000
269 2 495.119000 -2496.620000 94.879900 1 1.000000 1 -3.000000
270 2 501.810000 -2500.270000 101.315000 1 1.000000 1 -3.000000
271 2 507.134000 -2505.370000 107.927000 1 1.000000 1 -3.000000
272 2 507.982000 -2513.220000 113.755000 1 1.000000 1 -3.000000
273 2 508.838000 -2520.240000 120.752000 1 1.000000 1 -3.000000
274 2 506.862000 -2527.390000 127.184000 1 1.000000 1 -3.000000
275 2 506.459000 -2535.430000 132.770000 1 1.000000 1 -3.000000
276 2 507.670000 -2541.430000 140.517000 1 1.000000 1 -3.000000
277 2 507.353000 -2547.690000 148.212000 1 1.000000 1 -3.000000
278 2 504.271000 -2553.520000 155.661000 1 1.000000 1 -3.000000
279 2 504.368000 -2560.910000 162.276000 1 1.000000 1 -3.000000
280 2 505.328000 -2568.870000 168.012000 1 1.000000 1 -3.000000
281 2 507.672000 -2576.640000 173.818000 1 1.000000 1 -3.000000
282 2 513.725000 -2581.620000 179.991000 1 1.000000 1 -3.000000
283 2 520.774000 -2583.970000 186.474000 1 1.000000 1 -3.000000
284 2 528.534000 -2586.080000 192.266000 1 1.000000 1 -3.000000
285 2 535.942000 -2587.710000 198.583000 1 1.000000 1 -3.000000
286 2 541.494000 -2586.610000 206.668000 1 1.000000 1 -3.000000
287 2 543.546000 -2585.830000 216.439000 1 1.000000 1 -3.000000
288 2 543.494000 -2580.410000 224.768000 1 1.000000 1 -3.000000
289 2 542.729000 -2574.560000 232.726000 1 1.000000 1 -3.000000
290 2 541.842000 -2568.950000 240.789000 1 1.000000 1 -3.000000
291 2 541.120000 -2564.580000 249.780000 1 1.000000 12 -3.000000
292 1 499.541000 -2582.100000 263.639000 1 1.000000 12 0.000000
293 3 508.915000 -2603.280000 237.417000 1 1.000000 12 0.000000
294 2 462.536000 -2611.080000 259.350000 1 1.000000 12 -3.000000
295 2 466.010000 -2617.410000 252.417000 1 1.000000 1 -3.000000
296 2 466.594000 -2622.110000 243.745000 1 1.000000 1 -3.000000
297 2 464.175000 -2627.950000 236.081000 1 1.000000 1 -3.000000
298 2 461.573000 -2634.880000 229.527000 1 1.000000 1 -3.000000
299 2 453.950000 -2638.220000 224.240000 1 1.000000 1 -3.000000
300 2 448.042000 -2643.600000 218.288000 1 1.000000 1 -3.000000
301 2 440.977000 -2649.810000 215.007000 1 1.000000 1 -3.000000
302 2 434.077000 -2656.510000 213.043000 1 1.000000 1 -3.000000
303 2 426.859000 -2663.210000 211.329000 1 1.000000 1 -3.000000
304 2 417.557000 -2666.350000 211.405000 1 1.000000 1 -3.000000
305 2 408.630000 -2670.430000 212.058000 1 1.000000 1 -3.000000
306 2 399.905000 -2674.510000 209.806000 1 1.000000 1 -3.000000
307 2 391.733000 -2678.930000 206.336000 1 1.000000 1 -3.000000
308 2 385.738000 -2686.470000 204.322000 1 1.000000 1 -3.000000
309 2 376.634000 -2690.170000 203.164000 1 1.000000 1 -3.000000
310 2 367.347000 -2692.980000 204.824000 1 1.000000 1 -3.000000
311 2 357.424000 -2693.080000 205.425000 1 1.000000 1 -3.000000
312 2 348.072000 -2690.310000 204.103000 1 1.000000 1 -3.000000
313 2 338.930000 -2687.880000 201.188000 1 1.000000 1 -3.000000
314 2 329.646000 -2686.670000 197.811000 1 1.000000 1 -3.000000
315 2 321.577000 -2685.210000 192.237000 1 1.000000 1 -3.000000
316 2 312.747000 -2683.910000 187.841000 1 1.000000 1 -3.000000
317 2 303.046000 -2681.820000 188.105000 1 1.000000 1 -3.000000
318 2 293.404000 -2680.840000 186.531000 1 1.000000 13 -3.000000
319 1 300.868000 -2634.480000 191.481000 1 1.000000 13 0.000000
320 3 332.969000 -2648.230000 194.504000 1 1.000000 13 0.000000
321 2 328.567000 -2596.320000 193.089000 1 1.000000 13 -3.000000
322 2 333.139000 -2604.480000 196.037000 1 1.000000 1 -3.000000
323 2 337.874000 -2609.070000 203.427000 1 1.000000 1 -3.000000
324 2 337.747000 -2613.030000 212.478000 1 1.000000 1 -3.000000
325 2 339.913000 -2617.510000 221.046000 1 1.000000 1 -3.000000
326 2 341.575000 -2621.060000 230.189000 1 1.000000 1 -3.000000
327 2 345.706000 -2622.190000 239.033000 1 1.000000 1 -3.000000
328 2 348.488000 -2621.300000 248.576000 1 1.000000 1 -3.000000
329 2 349.785000 -2617.150000 257.462000 1 1.000000 1 -3.000000
330 2 352.142000 -2612.880000 266.226000 1 1.000000 1 -3.000000
331 2 354.235000 -2608.780000 274.978000 1 1.000000 1 -3.000000
332 2 355.088000 -2603.850000 283.794000 1 1.000000 1 -3.000000
333 2 354.717000 -2600.130000 292.897000 1 1.000000 1 -3.000000
334 2 356.208000 -2594.330000 300.661000 1 1.000000 1 -3.000000
335 2 358.686000 -2589.750000 309.050000 1 1.000000 1 -3.000000
336 2 361.675000 -2583.500000 316.226000 1 1.000000 1 -3.000000
337 2 368.514000 -2577.210000 319.713000 1 1.000000 1 -3.000000
338 2 376.641000 -2573.080000 323.343000 1 1.000000 1 -3.000000
339 2 382.040000 -2567.030000 329.134000 1 1.000000 1 -3.000000
340 2 389.320000 -2560.490000 331.059000 1 1.000000 1 -3.000000
341 2 397.544000 -2555.240000 331.866000 1 1.000000 1 -3.000000
342 2 406.033000 -2550.470000 332.039000 1 1.000000 1 -3.000000
343 2 413.194000 -2543.690000 332.798000 1 1.000000 1 -3.000000
344 2 417.372000 -2534.730000 332.295000 1 1.000000 1 -3.000000
345 2 424.261000 -2527.930000 330.199000 1 1.000000 14 -3.000000
346 1 459.295000 -2541.670000 358.825000 1 1.000000 14 0.000000
347 3 434.394000 -2565.320000 364.786000 1 1.000000 14 0.000000
348 2 478.590000 -2569.670000 391.496000 1 1.000000 14 -3.000000
349 2 471.607000 -2576.600000 390.337000 1 1.000000 1 -3.000000
350 2 465.153000 -2584.040000 389.434000 1 1.000000 1 -3.000000
351 2 459.393000 -2592.080000 390.240000 1 1.000000 1 -3.000000
352 2 454.568000 -2600.080000 393.407000 1 1.000000 1 -3.000000
353 2 449.127000 -2608.230000 394.177000 1 1.000000 1 -3.000000
354 2 444.782000 -2616.430000 397.818000 1 1.000000 1 -3.000000
355 2 441.316000 -2624.910000 401.243000 1 1.000000 1 -3.000000
356 2 440.052000 -2633.520000 405.857000 1 1.000000 1 -3.000000
357 2 437.396000 -2642.810000 407.936000 1 1.000000 1 -3.000000
358 2 435.342000 -2652.060000 411.068000 1 1.000000 1 -3.000000
359 2 433.880000 -2661.210000 414.648000 1 1.000000 1 -3.000000
360 2 433.321000 -2670.520000 418.318000 1 1.000000 1 -3.000000
361 2 430.954000 -2680.010000 418.945000 1 1.000000 1 -3.000000
362 2 427.193000 -2689.110000 418.974000 1 1.000000 1 -3.000000
363 2 426.934000 -2698.570000 416.082000 1 1.000000 1 -3.000000
364 2 430.254000 -2707.610000 413.828000 1 1.000000 1 -3.000000
365 2 432.067000 -2717.480000 413.247000 1 1.000000 1 -3.000000
366 2 436.136000 -2726.440000 412.312000 1 1.000000 1 -3.000000
367 2 438.749000 -2735.880000 411.084000 1 1.000000 1 -3.000000
368 2 442.992000 -2744.740000 409.300000 1 1.000000 1 -3.000000
369 2 443.190000 -2753.650000 405.230000 1 1.000000 1 -3.000000
370 2 445.129000 -2762.530000 401.177000 1 1.000000 1 -3.000000
371 2 449.028000 -2771.040000 397.790000 1 1.000000 1 -3.000000
372 2 456.300000 -2776.160000 393.409000 1 1.000000 15 -3.000000
373 1 488.652000 -2779.670000 427.493000 1 1.000000 15 0.000000
374 3 468.851000 -2752.860000 438.087000 1 1.000000 15 0.000000
375 2 509.453000 -2765.930000 467.598000 1 1.000000 15 -3.000000
376 2 506.155000 -2758.470000 473.246000 1 1.000000 1 -3.000000
377 2 503.920000 -2749.560000 476.928000 1 1.000000 1 -3.000000
378 2 503.548000 -2739.780000 478.613000 1 1.000000 1 -3.000000
379 2 503.447000 -2730.130000 481.351000 1 1.000000 1 -3.000000
380 2 503.328000 -2720.390000 483.524000 1 1.000000 1 -3.000000
381 2 504.017000 -2710.540000 482.198000 1 1.000000 1 -3.000000
382 2 502.685000 -2701.700000 477.667000 1 1.000000 1 -3.000000
383 2 502.388000 -2692.360000 474.611000 1 1.000000 1 -3.000000
384 2 498.912000 -2683.130000 475.181000 1 1.000000 1 -3.000000
385 2 493.890000 -2674.780000 473.822000 1 1.000000 1 -3.000000
386 2 484.724000 -2671.010000 474.244000 1 1.000000 1 -3.000000
387 2 475.696000 -2666.970000 475.369000 1 1.000000 1 -3.000000
388 2 467.110000 -2661.990000 474.898000 1 1.000000 1 -3.000000
389 2 457.179000 -2661.290000 474.286000 1 1.000000 1 -3.000000
390 2 447.854000 -2664.630000 474.830000 1 1.000000 1 -3.000000
391 2 438.951000 -2668.560000 476.909000 1 1.000000 1 -3.000000
392 2 430.099000 -2672.810000 476.621000 1 1.000000 1 -3.000000
393 2 422.473000 -2676.150000 481.914000 1 1.000000 1 -3.000000
394 2 414.277000 -2678.280000 487.050000 1 1.000000 1 -3.000000
395 2 404.729000 -2679.220000 490.083000 1 1.000000 1 -3.000000
396 2 395.089000 -2681.400000 491.287000 1 1.000000 1 -3.000000
397 2 387.633000 -2686.070000 495.881000 1 1.000000 1 -3.000000
398 2 379.274000 -2690.320000 498.949000 1 1.000000 1 -3.000000
399 2 370.379000 -2693.510000 501.732000 1 1.000000 16 -3.000000
400 1 386.506000 -2720.040000 537.158000 1 1.000000 16 0.000000
401 3 414.252000 -2700.670000 528.731000 1 1.000000 16 0.000000
402 2 420.047000 -2735.900000 566.234000 1 1.000000 16 -3.000000
403 2 426.749000 -2728.590000 565.604000 1 1.000000 1 -3.000000
404 2 433.138000 -2721.550000 562.939000 1 1.000000 1 -3.000000
405 2 439.830000 -2715.850000 558.488000 1 1.000000 1 -3.000000
406 2 445.931000 -2708.610000 555.896000 1 1.000000 1 -3.000000
407 2 451.516000 -2701.020000 552.773000 1 1.000000 1 -3.000000
408 2 455.554000 -2693.440000 547.732000 1 1.000000 1 -3.000000
409 2 460.962000 -2688.810000 540.950000 1 1.000000 1 -3.000000
410 2 464.878000 -2683.140000 533.873000 1 1.000000 1 -3.000000
411 2 470.033000 -2677.890000 527.296000 1 1.000000 1 -3.000000
412 2 476.308000 -2671.800000 522.643000 1 1.000000 1 -3.000000
413 2 484.552000 -2666.520000 521.303000 1 1.000000 1 -3.000000
414 2 492.257000 -2660.280000 520.158000 1 1.000000 1 -3.000000
415 2 500.083000 -2658.050000 514.829000 1 1.000000 1 -3.000000
416 2 508.853000 -2656.050000 510.581000 1 1.000000 1 -3.000000
417 2 515.546000 -2654.940000 503.403000 1 1.000000 1 -3.000000
418 2 522.115000 -2651.250000 496.967000 1 1.000000 1 -3.000000
419 2 529.011000 -2647.340000 491.005000 1 1.000000 1 -3.000000
420 2 536.019000 -2642.130000 486.779000 1 1.000000 1 -3.000000
421 2 545.472000 -2639.420000 486.582000 1 1.000000 1 -3.000000
422 2 554.603000 -2637.510000 489.908000 1 1.000000 1 -3.000000
423 2 564.416000 -2637.210000 490.690000 1 1.000000 1 -3.000000
424 2 573.764000 -2635.110000 493.222000 1 1.000000 1 -3.000000
425 2 583.115000 -2632.580000 495.191000 1 1.000000 1 -3.000000
426 2 592.931000 -2630.760000 495.536000 1 1.000000 17 -3.000000
427 1 590.478000 -2584.070000 489.171000 1 1.000000 17 0.000000
428 3 558.704000 -2595.060000 479.636000 1 1.000000 17 0.000000
429 2 568.271000 -2544.130000 477.482000 1 1.000000 17 -3.000000
430 2 558.842000 -2546.780000 478.222000 1 1.000000 1 -3.000000
431 2 549.253000 -2549.190000 479.166000 1 1.000000 1 -3.000000
432 2 541.097000 -2554.780000 478.905000 1 1.000000 1 -3.000000
433 2 532.682000 -2559.780000 477.324000 1 1.000000 1 -3.000000
434 2 523.176000 -2560.620000 474.130000 1 1.000000 1 -3.000000
435 2 514.076000 -2562.920000 471.638000 1 1.000000 1 -3.000000
436 2 504.307000 -2561.550000 470.240000 1 1.000000 1 -3.000000
437 2 495.272000 -2561.940000 466.168000 1 1.000000 1 -3.000000
438 2 485.818000 -2564.530000 465.226000 1 1.000000 1 -3.000000
439 2 475.948000 -2565.510000 464.123000 1 1.000000 1 -3.000000
440 2 466.622000 -2568.440000 465.248000 1 1.000000 1 -3.000000
441 2 456.898000 -2570.380000 464.314000 1 1.000000 1 -3.000000
442 2 448.348000 -2571.230000 469.135000 1 1.000000 1 -3.000000
443 2 439.186000 -2572.850000 472.852000 1 1.000000 1 -3.000000
444 2 430.898000 -2573.960000 477.884000 1 1.000000 1 -3.000000
445 2 424.981000 -2572.710000 485.821000 1 1.000000 1 -3.000000
446 2 420.584000 -2571.240000 494.515000 1 1.000000 1 -3.000000
447 2 417.467000 -2568.360000 503.343000 1 1.000000 1 -3.000000
448 2 417.546000 -2565.290000 512.709000 1 1.000000 1 -3.000000
449 2 417.221000 -2563.780000 522.453000 1 1.000000 1 -3.000000
450 2 418.246000 -2565.530000 532.242000 1 1.000000 1 -3.000000
451 2 415.030000 -2566.630000 541.527000 1 1.000000 1 -3.000000
452 2 412.285000 -2572.510000 548.956000 1 1.000000 1 -3.000000
453 2 408.822000 -2577.430000 556.926000 1 1.000000 18 -3.000000
454 1 444.457000 -2556.760000 579.977000 1 1.000000 18 0.000000
455 3 441.242000 -2537.360000 551.075000 1 1.000000 18 0.000000
456 2 480.536000 -2526.570000 583.350000 1 1.000000 18 -3.000000
457 2 479.589000 -2521.820000 574.788000 1 1.000000 1 -3.000000
458 2 477.508000 -2515.700000 567.265000 1 1.000000 1 -3.000000
459 2 474.697000 -2510.080000 559.521000 1 1.000000 1 -3.000000
460 2 471.226000 -2506.680000 550.940000 1 1.000000 1 -3.000000
461 2 466.768000 -2500.980000 544.044000 1 1.000000 1 -3.000000
462 2 462.485000 -2498.640000 535.485000 1 1.000000 1 -3.000000
463 2 456.024000 -2499.680000 528.193000 1 1.000000 1 -3.000000
464 2 448.345000 -2499.950000 521.900000 1 1.000000 1 -3.000000
465 2 441.168000 -2501.640000 515.205000 1 1.000000 1 -3.000000