LAMMPS data file

4067 atoms
4067 ellipsoids
4516 bonds
8882 angles
0 dihedrals

3 atom types
5 bond types
12 angle types
0 dihedral types

-4631.092947 4670.465898 xlo xhi
-4631.092947 4670.465898 ylo yhi
-4631.092947 4670.465898 zlo zhi

Masses

1 196016.000000
2 1950.000000
3 19500.000000

Atoms

1 2 809.402000 -3083.890000 621.217000 1 1.000000 1 -3.000000
2 2 805.144000 -3078.180000 614.246000 1 1.000000 1 -3.000000
3 2 800.266000 -3072.740000 607.492000 1 1.000000 1 -3.000000
4 2 798.788000 -3066.520000 599.902000 1 1.000000 1 -3.000000
5 2 801.276000 -3057.850000 595.696000 1 1.000000 1 -3.000000
6 2 802.358000 -3049.570000 590.498000 1 1.000000 1 -3.000000
7 2 803.294000 -3041.210000 585.274000 1 1.000000 1 -3.000000
8 2 802.785000 -3031.440000 583.692000 1 1.000000 1 -3.000000
9 2 803.843000 -3021.770000 584.388000 1 1.000000 1 -3.000000
10 2 804.166000 -3012.100000 586.263000 1 1.000000 1 -3.000000
11 2 804.726000 -3002.150000 586.041000 1 1.000000 1 -3.000000
12 2 805.848000 -2992.250000 585.228000 1 1.000000 1 -3.000000
13 2 804.358000 -2983.290000 581.233000 1 1.000000 1 -3.000000
14 2 802.674000 -2973.620000 580.561000 1 1.000000 1 -3.000000
15 2 800.978000 -2963.820000 580.574000 1 1.000000 1 -3.000000
16 2 800.719000 -2954.150000 582.987000 1 1.000000 1 -3.000000
17 2 799.895000 -2944.470000 584.846000 1 1.000000 1 -3.000000
18 2 801.751000 -2934.870000 586.639000 1 1.000000 1 -3.000000
19 2 801.558000 -2924.950000 587.064000 1 1.000000 1 -3.000000
20 2 799.931000 -2915.180000 586.282000 1 1.000000 1 -3.000000
21 2 804.752000 -2906.510000 586.433000 1 1.000000 2 -3.000000
22 1 790.729000 -2889.850000 544.641000 1 1.000000 2 0.000000
23 3 770.430000 -2918.180000 549.213000 1 1.000000 2 0.000000
24 2 762.700000 -2889.190000 506.740000 1 1.000000 2 -3.000000
25 2 754.959000 -2893.290000 511.382000 1 1.000000 1 -3.000000
26 2 747.728000 -2898.520000 515.543000 1 1.000000 1 -3.000000
27 2 740.714000 -2904.140000 519.553000 1 1.000000 1 -3.000000
28 2 735.427000 -2911.890000 522.852000 1 1.000000 1 -3.000000
29 2 734.193000 -2920.720000 526.942000 1 1.000000 1 -3.000000
30 2 732.432000 -2930.350000 527.153000 1 1.000000 1 -3.000000
31 2 731.608000 -2940.370000 527.504000 1 1.000000 1 -3.000000
32 2 732.288000 -2950.200000 525.852000 1 1.000000 1 -3.000000
33 2 735.000000 -2959.640000 524.014000 1 1.000000 1 -3.000000
34 2 737.763000 -2969.210000 523.010000 1 1.000000 1 -3.000000
35 2 738.357000 -2979.080000 522.204000 1 1.000000 1 -3.000000
36 2 738.851000 -2988.840000 523.462000 1 1.000000 1 -3.000000
37 2 742.854000 -2997.670000 522.328000 1 1.000000 1 -3.000000
38 2 747.305000 -3006.320000 520.322000 1 1.000000 1 -3.000000
39 2 751.431000 -3014.900000 517.188000 1 1.000000 1 -3.000000
40 2 758.342000 -3021.800000 516.558000 1 1.000000 1 -3.000000
41 2 762.947000 -3030.530000 515.230000 1 1.000000 1 -3.000000
42 2 768.755000 -3038.660000 514.801000 1 1.000000 1 -3.000000
43 2 771.572000 -3047.980000 516.992000 1 1.000000 1 -3.000000
44 2 775.509000 -3057.110000 517.685000 1 1.000000 1 -3.000000
45 2 781.692000 -3064.680000 516.981000 1 1.000000 1 -3.000000
46 2 789.764000 -3069.990000 515.469000 1 1.000000 1 -3.000000
47 2 793.536000 -3077.790000 510.813000 1 1.000000 1 -3.000000
48 2 798.283000 -3084.610000 505.643000 1 1.000000 3 -3.000000
49 1 828.832000 -3058.570000 480.862000 1 1.000000 3 0.000000
50 3 802.277000 -3036.420000 486.501000 1 1.000000 3 0.000000
51 2 842.222000 -3019.530000 457.972000 1 1.000000 3 -3.000000
52 2 837.960000 -3014.090000 464.943000 1 1.000000 1 -3.000000
53 2 831.724000 -3008.630000 470.244000 1 1.000000 1 -3.000000
54 2 827.419000 -3002.810000 477.039000 1 1.000000 1 -3.000000
55 2 824.267000 -2995.990000 483.432000 1 1.000000 1 -3.000000
56 2 824.625000 -2987.840000 489.082000 1 1.000000 1 -3.000000
57 2 826.248000 -2981.500000 496.262000 1 1.000000 1 -3.000000
58 2 825.811000 -2976.930000 505.107000 1 1.000000 1 -3.000000
59 2 827.499000 -2972.950000 513.916000 1 1.000000 1 -3.000000
60 2 833.284000 -2970.160000 521.401000 1 1.000000 1 -3.000000
61 2 838.157000 -2964.580000 527.890000 1 1.000000 1 -3.000000
62 2 843.477000 -2961.260000 535.526000 1 1.000000 1 -3.000000
63 2 849.341000 -2956.280000 541.700000 1 1.000000 1 -3.000000
64 2 857.778000 -2952.420000 545.326000 1 1.000000 1 -3.000000
65 2 867.460000 -2952.320000 547.626000 1 1.000000 1 -3.000000
66 2 877.251000 -2950.340000 547.498000 1 1.000000 1 -3.000000
67 2 886.797000 -2947.410000 547.740000 1 1.000000 1 -3.000000
68 2 896.369000 -2945.140000 547.010000 1 1.000000 1 -3.000000
69 2 905.088000 -2941.290000 549.357000 1 1.000000 1 -3.000000
70 2 913.678000 -2939.590000 553.992000 1 1.000000 1 -3.000000
71 2 918.735000 -2936.760000 562.069000 1 1.000000 1 -3.000000
72 2 926.852000 -2935.230000 567.633000 1 1.000000 1 -3.000000
73 2 935.896000 -2935.390000 571.621000 1 1.000000 1 -3.000000
74 2 944.488000 -2934.660000 576.462000 1 1.000000 1 -3.000000
75 2 953.713000 -2934.540000 580.017000 1 1.000000 4 -3.000000
76 1 977.423000 -2966.180000 554.353000 1 1.000000 4 0.000000
77 3 947.794000 -2961.800000 536.413000 1 1.000000 4 0.000000
78 2 984.855000 -2991.310000 515.101000 1 1.000000 4 -3.000000
79 2 976.192000 -2989.450000 510.886000 1 1.000000 1 -3.000000
80 2 969.177000 -2984.830000 505.687000 1 1.000000 1 -3.000000
81 2 963.870000 -2979.730000 499.139000 1 1.000000 1 -3.000000
82 2 957.882000 -2976.920000 491.719000 1 1.000000 1 -3.000000
83 2 954.091000 -2971.380000 484.455000 1 1.000000 1 -3.000000
84 2 952.977000 -2967.310000 475.482000 1 1.000000 1 -3.000000
85 2 947.441000 -2963.370000 468.294000 1 1.000000 1 -3.000000
86 2 943.430000 -2956.830000 462.119000 1 1.000000 1 -3.000000
87 2 940.029000 -2950.630000 455.214000 1 1.000000 1 -3.000000
88 2 937.971000 -2944.090000 448.053000 1 1.000000 1 -3.000000
89 2 933.210000 -2936.240000 444.300000 1 1.000000 1 -3.000000
90 2 927.016000 -2929.110000 441.315000 1 1.000000 1 -3.000000
91 2 920.612000 -2921.770000 439.172000 1 1.000000 1 -3.000000
92 2 916.306000 -2914.490000 434.098000 1 1.000000 1 -3.000000
93 2 914.246000 -2905.630000 430.378000 1 1.000000 1 -3.000000
94 2 910.648000 -2896.580000 428.447000 1 1.000000 1 -3.000000
95 2 908.190000 -2887.190000 426.522000 1 1.000000 1 -3.000000
96 2 903.175000 -2878.660000 424.818000 1 1.000000 1 -3.000000
97 2 897.481000 -2871.470000 421.058000 1 1.000000 1 -3.000000
98 2 892.245000 -2863.460000 418.821000 1 1.000000 1 -3.000000
99 2 886.529000 -2855.440000 418.860000 1 1.000000 1 -3.000000
100 2 880.120000 -2848.080000 421.191000 1 1.000000 1 -3.000000
101 2 873.944000 -2840.920000 424.158000 1 1.000000 1 -3.000000
102 2 869.968000 -2832.000000 424.938000 1 1.000000 5 -3.000000
103 1 843.680000 -2853.920000 457.433000 1 1.000000 5 0.000000
104 3 874.486000 -2870.090000 459.912000 1 1.000000 5 0.000000
105 2 837.378000 -2883.890000 493.312000 1 1.000000 5 -3.000000
106 2 846.844000 -2886.770000 494.655000 1 1.000000 1 -3.000000
107 2 856.417000 -2889.280000 493.776000 1 1.000000 1 -3.000000
108 2 866.079000 -2890.430000 495.835000 1 1.000000 1 -3.000000
109 2 875.612000 -2892.330000 497.821000 1 1.000000 1 -3.000000
110 2 885.393000 -2891.490000 498.643000 1 1.000000 1 -3.000000
111 2 895.128000 -2889.700000 498.792000 1 1.000000 1 -3.000000
112 2 904.802000 -2890.470000 497.128000 1 1.000000 1 -3.000000
113 2 912.272000 -2885.630000 492.756000 1 1.000000 1 -3.000000
114 2 918.810000 -2878.850000 489.381000 1 1.000000 1 -3.000000
115 2 926.431000 -2872.650000 487.792000 1 1.000000 1 -3.000000
116 2 932.607000 -2865.060000 487.312000 1 1.000000 1 -3.000000
117 2 938.654000 -2857.580000 485.035000 1 1.000000 1 -3.000000
118 2 943.409000 -2850.530000 480.002000 1 1.000000 1 -3.000000
119 2 948.120000 -2842.960000 475.715000 1 1.000000 1 -3.000000
120 2 955.732000 -2839.230000 470.534000 1 1.000000 1 -3.000000
121 2 964.788000 -2835.190000 469.518000 1 1.000000 1 -3.000000
122 2 974.546000 -2835.140000 467.843000 1 1.000000 1 -3.000000
123 2 984.089000 -2832.820000 469.718000 1 1.000000 1 -3.000000
124 2 993.712000 -2832.340000 467.708000 1 1.000000 1 -3.000000
125 2 1002.990000 -2829.090000 467.559000 1 1.000000 1 -3.000000
126 2 1012.900000 -2830.040000 467.820000 1 1.000000 1 -3.000000
127 2 1022.660000 -2831.810000 467.301000 1 1.000000 1 -3.000000
128 2 1032.150000 -2833.790000 464.974000 1 1.000000 1 -3.000000
129 2 1041.780000 -2833.390000 462.836000 1 1.000000 6 -3.000000
130 1 1040.270000 -2786.200000 462.294000 1 1.000000 6 0.000000
131 3 1006.610000 -2795.540000 461.829000 1 1.000000 6 0.000000
132 2 1017.930000 -2744.780000 459.919000 1 1.000000 6 -3.000000
133 2 1008.990000 -2748.370000 462.412000 1 1.000000 1 -3.000000
134 2 1002.100000 -2754.860000 465.304000 1 1.000000 1 -3.000000
135 2 994.062000 -2758.980000 469.341000 1 1.000000 1 -3.000000
136 2 985.060000 -2761.090000 472.899000 1 1.000000 1 -3.000000
137 2 976.336000 -2762.310000 477.358000 1 1.000000 1 -3.000000
138 2 966.466000 -2762.950000 478.175000 1 1.000000 1 -3.000000
139 2 956.737000 -2762.060000 479.361000 1 1.000000 1 -3.000000
140 2 947.003000 -2761.560000 481.198000 1 1.000000 1 -3.000000
141 2 937.438000 -2759.330000 481.888000 1 1.000000 1 -3.000000
142 2 929.112000 -2756.420000 486.269000 1 1.000000 1 -3.000000
143 2 921.533000 -2752.160000 491.008000 1 1.000000 1 -3.000000
144 2 913.575000 -2747.040000 494.319000 1 1.000000 1 -3.000000
145 2 908.292000 -2740.120000 498.870000 1 1.000000 1 -3.000000
146 2 905.794000 -2735.290000 507.101000 1 1.000000 1 -3.000000
147 2 904.234000 -2727.530000 513.076000 1 1.000000 1 -3.000000
148 2 901.778000 -2720.620000 519.861000 1 1.000000 1 -3.000000
149 2 898.639000 -2718.130000 528.709000 1 1.000000 1 -3.000000
150 2 896.034000 -2714.410000 537.554000 1 1.000000 1 -3.000000
151 2 895.250000 -2709.330000 546.064000 1 1.000000 1 -3.000000
152 2 895.562000 -2708.420000 556.011000 1 1.000000 1 -3.000000
153 2 897.011000 -2707.750000 565.701000 1 1.000000 1 -3.000000
154 2 901.119000 -2704.610000 574.048000 1 1.000000 1 -3.000000
155 2 908.319000 -2700.240000 579.247000 1 1.000000 1 -3.000000
156 2 914.468000 -2695.350000 585.323000 1 1.000000 7 -3.000000
157 1 900.802000 -2654.060000 603.585000 1 1.000000 7 0.000000
158 3 874.621000 -2662.400000 581.839000 1 1.000000 7 0.000000
159 2 869.741000 -2619.130000 610.262000 1 1.000000 7 -3.000000
160 2 863.136000 -2624.690000 605.492000 1 1.000000 1 -3.000000
161 2 857.371000 -2631.310000 600.654000 1 1.000000 1 -3.000000
162 2 848.934000 -2634.620000 596.770000 1 1.000000 1 -3.000000
163 2 841.308000 -2640.740000 594.710000 1 1.000000 1 -3.000000
164 2 832.809000 -2645.950000 593.743000 1 1.000000 1 -3.000000
165 2 824.752000 -2651.570000 592.654000 1 1.000000 1 -3.000000
166 2 818.195000 -2658.870000 591.430000 1 1.000000 1 -3.000000
167 2 809.617000 -2663.800000 592.396000 1 1.000000 1 -3.000000
168 2 801.430000 -2667.870000 596.330000 1 1.000000 1 -3.000000
169 2 795.950000 -2672.550000 603.255000 1 1.000000 1 -3.000000
170 2 788.961000 -2677.350000 608.211000 1 1.000000 1 -3.000000
171 2 781.121000 -2683.440000 609.149000 1 1.000000 1 -3.000000
172 2 773.867000 -2688.000000 614.128000 1 1.000000 1 -3.000000
173 2 765.835000 -2691.900000 618.233000 1 1.000000 1 -3.000000
174 2 756.229000 -2694.070000 619.556000 1 1.000000 1 -3.000000
175 2 747.545000 -2698.670000 618.953000 1 1.000000 1 -3.000000
176 2 739.488000 -2704.100000 617.508000 1 1.000000 1 -3.000000
177 2 730.935000 -2708.860000 619.430000 1 1.000000 1 -3.000000
178 2 722.871000 -2714.220000 621.514000 1 1.000000 1 -3.000000
179 2 715.525000 -2720.470000 624.089000 1 1.000000 1 -3.000000
180 2 707.222000 -2725.810000 625.280000 1 1.000000 1 -3.000000
181 2 700.201000 -2731.120000 629.725000 1 1.000000 1 -3.000000
182 2 692.405000 -2735.660000 633.898000 1 1.000000 1 -3.000000
183 2 687.991000 -2743.790000 637.693000 1 1.000000 8 -3.000000
184 1 698.471000 -2761.460000 595.180000 1 1.000000 8 0.000000
185 3 722.926000 -2736.820000 599.898000 1 1.000000 8 0.000000
186 2 724.368000 -2764.510000 555.849000 1 1.000000 8 -3.000000
187 2 726.571000 -2755.030000 553.840000 1 1.000000 1 -3.000000
188 2 731.449000 -2746.690000 556.292000 1 1.000000 1 -3.000000
189 2 735.952000 -2737.960000 557.435000 1 1.000000 1 -3.000000
190 2 739.099000 -2728.580000 559.041000 1 1.000000 1 -3.000000
191 2 743.045000 -2719.990000 561.664000 1 1.000000 1 -3.000000
192 2 748.068000 -2712.090000 564.917000 1 1.000000 1 -3.000000
193 2 753.731000 -2706.610000 570.736000 1 1.000000 1 -3.000000
194 2 759.387000 -2698.620000 573.032000 1 1.000000 1 -3.000000
195 2 764.200000 -2690.150000 574.787000 1 1.000000 1 -3.000000
196 2 766.163000 -2680.470000 574.324000 1 1.000000 1 -3.000000
197 2 770.847000 -2671.820000 572.315000 1 1.000000 1 -3.000000
198 2 774.523000 -2663.090000 569.621000 1 1.000000 1 -3.000000
199 2 777.128000 -2654.190000 566.194000 1 1.000000 1 -3.000000
200 2 777.677000 -2646.620000 560.023000 1 1.000000 1 -3.000000
201 2 780.277000 -2640.270000 552.952000 1 1.000000 1 -3.000000
202 2 785.009000 -2636.600000 544.931000 1 1.000000 1 -3.000000
203 2 788.716000 -2631.370000 537.389000 1 1.000000 1 -3.000000
204 2 791.321000 -2624.530000 530.757000 1 1.000000 1 -3.000000
205 2 792.872000 -2617.870000 523.655000 1 1.000000 1 -3.000000
206 2 798.149000 -2611.040000 518.990000 1 1.000000 1 -3.000000
207 2 804.585000 -2605.480000 514.132000 1 1.000000 1 -3.000000
208 2 811.334000 -2600.510000 508.939000 1 1.000000 1 -3.000000
209 2 818.074000 -2593.410000 507.511000 1 1.000000 1 -3.000000
210 2 823.816000 -2586.160000 504.021000 1 1.000000 9 -3.000000
211 1 843.522000 -2584.460000 546.884000 1 1.000000 9 0.000000
212 3 834.149000 -2618.120000 543.797000 1 1.000000 9 0.000000
213 2 855.758000 -2603.250000 588.469000 1 1.000000 9 -3.000000
214 2 848.387000 -2609.200000 591.318000 1 1.000000 1 -3.000000
215 2 841.804000 -2611.620000 598.242000 1 1.000000 1 -3.000000
216 2 834.834000 -2614.940000 604.323000 1 1.000000 1 -3.000000
217 2 827.442000 -2615.550000 610.946000 1 1.000000 1 -3.000000
218 2 819.219000 -2616.040000 616.478000 1 1.000000 1 -3.000000
219 2 811.746000 -2618.050000 622.673000 1 1.000000 1 -3.000000
220 2 804.467000 -2619.890000 629.229000 1 1.000000 1 -3.000000
221 2 797.263000 -2621.970000 635.686000 1 1.000000 1 -3.000000
222 2 788.497000 -2626.580000 636.340000 1 1.000000 1 -3.000000
223 2 779.347000 -2629.170000 639.262000 1 1.000000 1 -3.000000
224 2 770.619000 -2630.990000 643.543000 1 1.000000 1 -3.000000
225 2 761.690000 -2632.350000 647.912000 1 1.000000 1 -3.000000
226 2 754.220000 -2633.900000 654.136000 1 1.000000 1 -3.000000
227 2 747.743000 -2633.390000 661.656000 1 1.000000 1 -3.000000
228 2 743.514000 -2630.280000 669.989000 1 1.000000 1 -3.000000
229 2 738.437000 -2628.200000 678.367000 1 1.000000 1 -3.000000
230 2 732.001000 -2625.720000 685.450000 1 1.000000 1 -3.000000
231 2 728.434000 -2620.400000 692.988000 1 1.000000 1 -3.000000
232 2 726.728000 -2613.630000 700.033000 1 1.000000 1 -3.000000
233 2 725.799000 -2604.780000 703.996000 1 1.000000 1 -3.000000
234 2 729.207000 -2595.520000 703.253000 1 1.000000 1 -3.000000
235 2 733.452000 -2586.910000 705.038000 1 1.000000 1 -3.000000
236 2 738.649000 -2578.490000 705.683000 1 1.000000 1 -3.000000
237 2 743.581000 -2569.980000 704.533000 1 1.000000 10 -3.000000
238 1 759.915000 -2568.550000 660.344000 1 1.000000 10 0.000000
239 3 734.732000 -2592.770000 658.630000 1 1.000000 10 0.000000
240 2 761.485000 -2582.710000 615.357000 1 1.000000 10 -3.000000
241 2 751.891000 -2584.680000 613.691000 1 1.000000 1 -3.000000
242 2 743.142000 -2588.810000 611.536000 1 1.000000 1 -3.000000
243 2 734.320000 -2592.960000 612.906000 1 1.000000 1 -3.000000
244 2 726.097000 -2596.900000 616.647000 1 1.000000 1 -3.000000
245 2 718.955000 -2602.310000 621.041000 1 1.000000 1 -3.000000
246 2 713.228000 -2608.270000 626.412000 1 1.000000 1 -3.000000
247 2 706.303000 -2612.130000 632.552000 1 1.000000 1 -3.000000
248 2 703.061000 -2616.670000 640.703000 1 1.000000 1 -3.000000
249 2 701.383000 -2623.940000 647.128000 1 1.000000 1 -3.000000
250 2 698.435000 -2630.980000 653.297000 1 1.000000 1 -3.000000
251 2 697.030000 -2637.830000 660.603000 1 1.000000 1 -3.000000
252 2 694.076000 -2642.300000 668.932000 1 1.000000 1 -3.000000
253 2 689.796000 -2645.480000 677.342000 1 1.000000 1 -3.000000
254 2 685.620000 -2647.560000 686.084000 1 1.000000 1 -3.000000
255 2 681.581000 -2649.900000 694.837000 1 1.000000 1 -3.000000
256 2 678.095000 -2651.330000 704.066000 1 1.000000 1 -3.000000
257 2 674.033000 -2653.080000 712.897000 1 1.000000 1 -3.000000
258 2 670.322000 -2659.110000 719.748000 1 1.000000 1 -3.000000
259 2 670.127000 -2667.160000 725.496000 1 1.000000 1 -3.000000
260 2 667.608000 -2674.720000 731.352000 1 1.000000 1 -3.000000
261 2 665.525000 -2683.940000 734.250000 1 1.000000 1 -3.000000
262 2 665.234000 -2693.770000 734.248000 1 1.000000 1 -3.000000
263 2 668.405000 -2703.040000 735.008000 1 1.000000 1 -3.000000
264 2 671.467000 -2712.080000 737.743000 1 1.000000 11 -3.000000
265 1 661.194000 -2740.200000 701.309000 1 1.000000 11 0.000000
266 3 639.973000 -2712.720000 696.480000 1 1.000000 11 0.000000
267 2 637.498000 -2751.710000 662.138000 1 1.000000 11 -3.000000
268 2 634.348000 -2743.000000 658.984000 1 1.000000 1 -3.000000
269 2 634.433000 -2734.040000 654.861000 1 1.000000 1 -3.000000
270 2 634.126000 -2724.290000 653.335000 1 1.000000 1 -3.000000
271 2 634.180000 -2714.880000 650.273000 1 1.000000 1 -3.000000
272 2 632.736000 -2706.140000 645.833000 1 1.000000 1 -3.000000
273 2 632.680000 -2696.810000 642.622000 1 1.000000 1 -3.000000
274 2 632.923000 -2687.040000 642.101000 1 1.000000 1 -3.000000
275 2 628.783000 -2678.030000 641.653000 1 1.000000 1 -3.000000
276 2 624.401000 -2669.160000 640.610000 1 1.000000 1 -3.000000
277 2 619.503000 -2660.520000 641.119000 1 1.000000 1 -3.000000
278 2 616.814000 -2651.020000 641.424000 1 1.000000 1 -3.000000
279 2 614.618000 -2641.900000 638.243000 1 1.000000 1 -3.000000
280 2 613.486000 -2633.040000 634.378000 1 1.000000 1 -3.000000
281 2 614.548000 -2624.900000 628.714000 1 1.000000 1 -3.000000
282 2 614.973000 -2617.620000 621.974000 1 1.000000 1 -3.000000
283 2 617.309000 -2612.680000 613.957000 1 1.000000 1 -3.000000
284 2 623.525000 -2609.780000 606.806000 1 1.000000 1 -3.000000
285 2 632.767000 -2608.230000 603.496000 1 1.000000 1 -3.000000
286 2 642.344000 -2607.590000 601.105000 1 1.000000 1 -3.000000
287 2 651.917000 -2605.290000 600.339000 1 1.000000 1 -3.000000
288 2 661.534000 -2606.500000 598.175000 1 1.000000 1 -3.000000
289 2 670.024000 -2609.660000 593.983000 1 1.000000 1 -3.000000
290 2 679.170000 -2611.740000 590.686000 1 1.000000 1 -3.000000
291 2 687.529000 -2612.230000 585.457000 1 1.000000 12 -3.000000
292 1 691.044000 -2653.720000 607.792000 1 1.000000 12 0.000000
293 3 656.538000 -2649.650000 603.885000 1 1.000000 12 0.000000
294 2 673.318000 -2693.410000 626.001000 1 1.000000 12 -3.000000
295 2 664.385000 -2691.330000 622.047000 1 1.000000 1 -3.000000
296 2 655.501000 -2693.100000 618.039000 1 1.000000 1 -3.000000
297 2 647.378000 -2693.210000 612.459000 1 1.000000 1 -3.000000
298 2 638.586000 -2690.240000 609.106000 1 1.000000 1 -3.000000
299 2 631.608000 -2684.610000 604.942000 1 1.000000 1 -3.000000
300 2 622.344000 -2681.330000 603.939000 1 1.000000 1 -3.000000
301 2 612.967000 -2678.650000 602.456000 1 1.000000 1 -3.000000
302 2 603.407000 -2676.060000 603.585000 1 1.000000 1 -3.000000
303 2 595.834000 -2670.520000 600.652000 1 1.000000 1 -3.000000
304 2 588.749000 -2664.150000 598.213000 1 1.000000 1 -3.000000
305 2 582.181000 -2656.960000 597.806000 1 1.000000 1 -3.000000
306 2 576.103000 -2649.230000 596.319000 1 1.000000 1 -3.000000
307 2 568.677000 -2643.820000 592.649000 1 1.000000 1 -3.000000
308 2 562.388000 -2637.610000 588.190000 1 1.000000 1 -3.000000
309 2 557.694000 -2630.080000 583.731000 1 1.000000 1 -3.000000
310 2 551.522000 -2622.930000 580.438000 1 1.000000 1 -3.000000
311 2 543.588000 -2617.420000 578.238000 1 1.000000 1 -3.000000
312 2 535.864000 -2613.560000 573.594000 1 1.000000 1 -3.000000
313 2 528.103000 -2614.930000 567.686000 1 1.000000 1 -3.000000
314 2 519.960000 -2618.000000 562.996000 1 1.000000 1 -3.000000
315 2 510.865000 -2620.360000 560.026000 1 1.000000 1 -3.000000
316 2 501.094000 -2619.040000 559.744000 1 1.000000 1 -3.000000
317 2 491.167000 -2618.240000 559.573000 1 1.000000 1 -3.000000
318 2 481.347000 -2618.510000 561.395000 1 1.000000 13 -3.000000
319 1 474.166000 -2641.490000 601.921000 1 1.000000 13 0.000000
320 3 505.685000 -2627.020000 606.465000 1 1.000000 13 0.000000
321 2 486.736000 -2656.250000 644.922000 1 1.000000 13 -3.000000
322 2 496.382000 -2653.390000 644.291000 1 1.000000 1 -3.000000
323 2 504.352000 -2647.720000 645.066000 1 1.000000 1 -3.000000
324 2 512.748000 -2642.570000 645.477000 1 1.000000 1 -3.000000
325 2 521.322000 -2638.030000 646.902000 1 1.000000 1 -3.000000
326 2 530.101000 -2633.350000 646.715000 1 1.000000 1 -3.000000
327 2 539.700000 -2631.740000 648.244000 1 1.000000 1 -3.000000
328 2 549.112000 -2629.420000 650.380000 1 1.000000 1 -3.000000
329 2 557.766000 -2624.670000 651.710000 1 1.000000 1 -3.000000
330 2 563.584000 -2616.990000 654.264000 1 1.000000 1 -3.000000
331 2 568.563000 -2610.020000 659.289000 1 1.000000 1 -3.000000
332 2 571.447000 -2604.130000 666.788000 1 1.000000 1 -3.000000
333 2 577.536000 -2601.280000 673.976000 1 1.000000 1 -3.000000
334 2 583.546000 -2596.010000 679.926000 1 1.000000 1 -3.000000
335 2 587.338000 -2591.270000 687.705000 1 1.000000 1 -3.000000
336 2 593.287000 -2585.880000 693.480000 1 1.000000 1 -3.000000
337 2 598.566000 -2579.760000 699.284000 1 1.000000 1 -3.000000
338 2 607.304000 -2575.180000 700.882000 1 1.000000 1 -3.000000
339 2 615.419000 -2569.810000 702.683000 1 1.000000 1 -3.000000
340 2 623.089000 -2563.890000 703.709000 1 1.000000 1 -3.000000
341 2 632.733000 -2561.780000 705.532000 1 1.000000 1 -3.000000
342 2 642.375000 -2559.360000 705.967000 1 1.000000 1 -3.000000
343 2 651.874000 -2557.510000 707.994000 1 1.000000 1 -3.000000
344 2 660.870000 -2556.640000 712.154000 1 1.000000 1 -3.000000
345 2 669.443000 -2555.450000 717.004000 1 1.000000 14 -3.000000
346 1 680.060000 -2513.440000 698.224000 1 1.000000 14 0.000000
347 3 647.312000 -2519.230000 687.156000 1 1.000000 14 0.000000
348 2 670.933000 -2475.790000 671.270000 1 1.000000 14 -3.000000
349 2 669.712000 -2478.400000 661.709000 1 1.000000 1 -3.000000
350 2 668.531000 -2479.130000 651.894000 1 1.000000 1 -3.000000
351 2 668.794000 -2481.370000 642.121000 1 1.000000 1 -3.000000
352 2 669.416000 -2483.200000 632.480000 1 1.000000 1 -3.000000
353 2 668.489000 -2482.610000 622.614000 1 1.000000 1 -3.000000
354 2 668.326000 -2481.890000 612.748000 1 1.000000 1 -3.000000
355 2 667.140000 -2481.430000 602.919000 1 1.000000 1 -3.000000
356 2 664.330000 -2480.390000 593.608000 1 1.000000 1 -3.000000
357 2 661.842000 -2481.780000 584.070000 1 1.000000 1 -3.000000
358 2 658.801000 -2485.720000 575.582000 1 1.000000 1 -3.000000
359 2 658.070000 -2493.470000 569.305000 1 1.000000 1 -3.000000
360 2 659.925000 -2502.130000 564.838000 1 1.000000 1 -3.000000
361 2 662.016000 -2506.220000 556.092000 1 1.000000 1 -3.000000
362 2 662.699000 -2512.180000 548.339000 1 1.000000 1 -3.000000
363 2 663.223000 -2516.130000 539.224000 1 1.000000 1 -3.000000
364 2 661.945000 -2520.220000 530.350000 1 1.000000 1 -3.000000
365 2 660.201000 -2524.990000 521.727000 1 1.000000 1 -3.000000
366 2 656.654000 -2531.750000 515.314000 1 1.000000 1 -3.000000
367 2 657.325000 -2535.960000 506.355000 1 1.000000 1 -3.000000
368 2 660.327000 -2542.350000 499.223000 1 1.000000 1 -3.000000
369 2 659.253000 -2549.700000 492.573000 1 1.000000 1 -3.000000
370 2 657.402000 -2556.950000 486.236000 1 1.000000 1 -3.000000
371 2 654.933000 -2564.440000 480.175000 1 1.000000 1 -3.000000
372 2 653.734000 -2573.490000 476.289000 1 1.000000 15 -3.000000
373 1 700.369000 -2573.230000 483.227000 1 1.000000 15 0.000000
374 3 692.875000 -2539.410000 479.078000 1 1.000000 15 0.000000
375 2 742.885000 -2552.660000 482.676000 1 1.000000 15 -3.000000
376 2 739.886000 -2543.780000 479.589000 1 1.000000 1 -3.000000
377 2 738.385000 -2534.230000 477.905000 1 1.000000 1 -3.000000
378 2 736.404000 -2524.530000 478.254000 1 1.000000 1 -3.000000
379 2 731.588000 -2516.000000 477.959000 1 1.000000 1 -3.000000
380 2 727.794000 -2506.830000 477.890000 1 1.000000 1 -3.000000
381 2 725.815000 -2497.200000 476.387000 1 1.000000 1 -3.000000
382 2 723.230000 -2488.420000 472.669000 1 1.000000 1 -3.000000
383 2 724.920000 -2478.990000 470.561000 1 1.000000 1 -3.000000
384 2 728.572000 -2469.940000 469.222000 1 1.000000 1 -3.000000
385 2 733.754000 -2462.780000 464.581000 1 1.000000 1 -3.000000
386 2 739.732000 -2455.190000 462.068000 1 1.000000 1 -3.000000
387 2 746.553000 -2448.130000 461.661000 1 1.000000 1 -3.000000
388 2 754.515000 -2442.330000 461.411000 1 1.000000 1 -3.000000
389 2 760.545000 -2434.440000 462.340000 1 1.000000 1 -3.000000
390 2 765.285000 -2425.970000 464.001000 1 1.000000 1 -3.000000
391 2 770.482000 -2417.710000 465.944000 1 1.000000 1 -3.000000
392 2 777.352000 -2410.790000 468.230000 1 1.000000 1 -3.000000
393 2 785.476000 -2405.070000 469.405000 1 1.000000 1 -3.000000
394 2 794.189000 -2401.520000 466.233000 1 1.000000 1 -3.000000
395 2 803.366000 -2401.060000 462.383000 1 1.000000 1 -3.000000
396 2 810.493000 -2396.950000 456.786000 1 1.000000 1 -3.000000
397 2 817.012000 -2390.280000 453.590000 1 1.000000 1 -3.000000
398 2 820.409000 -2382.410000 448.514000 1 1.000000 1 -3.000000
399 2 820.820000 -2373.320000 444.395000 1 1.000000 16 -3.000000
400 1 780.408000 -2368.670000 468.329000 1 1.000000 16 0.000000
401 3 793.588000 -2398.680000 480.554000 1 1.000000 16 0.000000
402 2 749.339000 -2381.480000 501.435000 1 1.000000 16 -3.000000
403 2 755.841000 -2385.900000 507.326000 1 1.000000 1 -3.000000
404 2 761.778000 -2390.490000 513.602000 1 1.000000 1 -3.000000
405 2 766.411000 -2393.050000 522.018000 1 1.000000 1 -3.000000
406 2 769.481000 -2395.970000 531.005000 1 1.000000 1 -3.000000
407 2 769.229000 -2396.610000 540.912000 1 1.000000 1 -3.000000
408 2 765.846000 -2396.300000 550.241000 1 1.000000 1 -3.000000
409 2 766.238000 -2395.280000 560.076000 1 1.000000 1 -3.000000
410 2 768.043000 -2396.010000 569.794000 1 1.000000 1 -3.000000
411 2 774.919000 -2395.550000 576.940000 1 1.000000 1 -3.000000
412 2 782.767000 -2397.100000 582.897000 1 1.000000 1 -3.000000
413 2 790.309000 -2396.790000 589.225000 1 1.000000 1 -3.000000
414 2 798.767000 -2394.100000 593.485000 1 1.000000 1 -3.000000
415 2 808.269000 -2391.840000 594.468000 1 1.000000 1 -3.000000
416 2 816.118000 -2386.670000 597.223000 1 1.000000 1 -3.000000
417 2 824.656000 -2381.910000 598.599000 1 1.000000 1 -3.000000
418 2 832.991000 -2376.720000 598.522000 1 1.000000 1 -3.000000
419 2 840.275000 -2370.090000 598.670000 1 1.000000 1 -3.000000
420 2 848.292000 -2364.570000 600.225000 1 1.000000 1 -3.000000
421 2 855.249000 -2357.530000 601.087000 1 1.000000 1 -3.000000
422 2 862.103000 -2350.460000 600.440000 1 1.000000 1 -3.000000
423 2 866.852000 -2341.930000 599.084000 1 1.000000 1 -3.000000
424 2 869.824000 -2333.950000 594.127000 1 1.000000 1 -3.000000
425 2 867.716000 -2325.960000 588.750000 1 1.000000 1 -3.000000
426 2 865.077000 -2317.200000 585.058000 1 1.000000 17 -3.000000
427 1 889.582000 -2323.270000 545.354000 1 1.000000 17 0.000000
428 3 886.515000 -2355.940000 557.911000 1 1.000000 17 0.000000
429 2 911.303000 -2349.530000 512.683000 1 1.000000 17 -3.000000
430 2 905.402000 -2356.870000 515.280000 1 1.000000 1 -3.000000
431 2 899.848000 -2361.440000 522.001000 1 1.000000 1 -3.000000
432 2 895.468000 -2368.330000 527.660000 1 1.000000 1 -3.000000
433 2 890.957000 -2375.180000 533.173000 1 1.000000 1 -3.000000
434 2 885.337000 -2381.980000 537.750000 1 1.000000 1 -3.000000
435 2 879.515000 -2389.910000 539.470000 1 1.000000 1 -3.000000
436 2 871.734000 -2395.930000 538.438000 1 1.000000 1 -3.000000
437 2 864.709000 -2402.920000 538.743000 1 1.000000 1 -3.000000
438 2 857.315000 -2409.130000 536.953000 1 1.000000 1 -3.000000
439 2 848.435000 -2413.610000 537.531000 1 1.000000 1 -3.000000
440 2 838.650000 -2415.190000 537.431000 1 1.000000 1 -3.000000
441 2 829.277000 -2418.440000 536.843000 1 1.000000 1 -3.000000
442 2 821.377000 -2423.020000 533.172000 1 1.000000 1 -3.000000
443 2 813.902000 -2426.700000 528.013000 1 1.000000 1 -3.000000
444 2 808.010000 -2432.270000 522.262000 1 1.000000 1 -3.000000
445 2 804.901000 -2441.060000 518.785000 1 1.000000 1 -3.000000
446 2 802.818000 -2450.100000 515.514000 1 1.000000 1 -3.000000
447 2 802.494000 -2459.330000 512.058000 1 1.000000 1 -3.000000
448 2 804.762000 -2467.530000 507.076000 1 1.000000 1 -3.000000
449 2 802.625000 -2477.300000 507.053000 1 1.000000 1 -3.000000
450 2 802.880000 -2486.850000 504.479000 1 1.000000 1 -3.000000
451 2 805.452000 -2496.430000 503.652000 1 1.000000 1 -3.000000
452 2 808.977000 -2505.580000 502.238000 1 1.000000 1 -3.000000
453 2 813.999000 -2513.890000 504.001000 1 1.000000 18 -3.000000
454 1 802.057000 -2527.100000 460.295000 1 1.000000 18 0.000000
455 3 791.788000 -2493.550000 461.530000 1 1.000000 18 0.000000
456 2 786.243000 -2518.890000 416.532000 1 1.000000 18 -3.000000
457 2 782.613000 -2509.700000 416.499000 1 1.000000 1 -3.000000
458 2 780.706000 -2499.960000 417.083000 1 1.000000 1 -3.000000
459 2 780.009000 -2490.210000 417.987000 1 1.000000 1 -3.000000
460 2 781.954000 -2480.390000 418.726000 1 1.000000 1 -3.000000
461 2 783.837000 -2470.680000 418.494000 1 1.000000 1 -3.000000
462 2 786.987000 -2461.310000 419.140000 1 1.000000 1 -3.000000
463 2 788.624000 -2453.720000 425.355000 1 1.000000 1 -3.000000
464 2 790.557000 -2445.430000 430.366000 1 1.000000 1 -3.000000
465 2 796.173000 -2437.180000 430.766000 1 1.000000 1 -3.000000