LAMMPS data file

4067 atoms
4067 ellipsoids
4516 bonds
8882 angles
0 dihedrals

3 atom types
5 bond types
12 angle types
0 dihedral types

-4631.092947 4670.465898 xlo xhi
-4631.092947 4670.465898 ylo yhi
-4631.092947 4670.465898 zlo zhi

Masses

1 196016.000000
2 1950.000000
3 19500.000000

Atoms

1 2 703.752941 -3087.393318 460.606470 1 1.000000 1 -3.000000
2 2 703.752941 -3087.393417 470.506470 1 1.000000 1 -3.000000
3 2 703.752941 -3087.393516 480.406470 1 1.000000 1 -3.000000
4 2 703.752941 -3087.393615 490.306470 1 1.000000 1 -3.000000
5 2 703.752941 -3087.393714 500.206470 1 1.000000 1 -3.000000
6 2 703.752941 -3087.393813 510.106470 1 1.000000 1 -3.000000
7 2 703.752941 -3087.393912 520.006470 1 1.000000 1 -3.000000
8 2 703.752941 -3087.394011 529.906470 1 1.000000 1 -3.000000
9 2 703.752941 -3087.394110 539.806470 1 1.000000 1 -3.000000
10 2 703.752941 -3087.394209 549.706470 1 1.000000 1 -3.000000
11 2 703.752941 -3087.394308 559.606470 1 1.000000 1 -3.000000
12 2 703.752941 -3087.394407 569.506470 1 1.000000 1 -3.000000
13 2 703.752941 -3087.394506 579.406470 1 1.000000 1 -3.000000
14 2 703.752941 -3087.394605 589.306470 1 1.000000 1 -3.000000
15 2 703.752941 -3087.394704 599.206470 1 1.000000 1 -3.000000
16 2 703.752941 -3087.394803 609.106470 1 1.000000 1 -3.000000
17 2 703.752941 -3087.394902 619.006470 1 1.000000 1 -3.000000
18 2 703.752941 -3087.395001 628.906470 1 1.000000 1 -3.000000
19 2 703.752941 -3087.395100 638.806470 1 1.000000 1 -3.000000
20 2 703.752941 -3087.395199 648.706470 1 1.000000 1 -3.000000
21 2 703.752941 -3087.395298 658.606470 1 1.000000 2 -3.000000
22 1 673.470366 -3051.222784 658.606831 1 1.000000 2 0.000000
23 3 680.848575 -3055.482255 624.659535 1 1.000000 2 0.000000
24 2 647.735408 -3017.675628 637.683508 1 1.000000 2 -3.000000
25 2 651.783820 -3020.012892 628.956679 1 1.000000 1 -3.000000
26 2 655.832232 -3022.350157 620.229849 1 1.000000 1 -3.000000
27 2 659.880644 -3024.687421 611.503019 1 1.000000 1 -3.000000
28 2 663.929055 -3027.024685 602.776189 1 1.000000 1 -3.000000
29 2 667.977467 -3029.361950 594.049360 1 1.000000 1 -3.000000
30 2 672.025879 -3031.699214 585.322530 1 1.000000 1 -3.000000
31 2 676.074291 -3034.036478 576.595700 1 1.000000 1 -3.000000
32 2 680.122702 -3036.373743 567.868870 1 1.000000 1 -3.000000
33 2 684.171114 -3038.711007 559.142041 1 1.000000 1 -3.000000
34 2 688.219526 -3041.048272 550.415211 1 1.000000 1 -3.000000
35 2 692.267938 -3043.385536 541.688381 1 1.000000 1 -3.000000
36 2 696.316349 -3045.722800 532.961551 1 1.000000 1 -3.000000
37 2 700.364761 -3048.060065 524.234722 1 1.000000 1 -3.000000
38 2 704.413173 -3050.397329 515.507892 1 1.000000 1 -3.000000
39 2 708.461585 -3052.734593 506.781062 1 1.000000 1 -3.000000
40 2 712.509996 -3055.071858 498.054232 1 1.000000 1 -3.000000
41 2 716.558408 -3057.409122 489.327403 1 1.000000 1 -3.000000
42 2 720.606820 -3059.746386 480.600573 1 1.000000 1 -3.000000
43 2 724.655232 -3062.083651 471.873743 1 1.000000 1 -3.000000
44 2 728.703644 -3064.420915 463.146913 1 1.000000 1 -3.000000
45 2 732.752055 -3066.758179 454.420084 1 1.000000 1 -3.000000
46 2 736.800467 -3069.095444 445.693254 1 1.000000 1 -3.000000
47 2 740.848879 -3071.432708 436.966424 1 1.000000 1 -3.000000
48 2 744.897291 -3073.769972 428.239594 1 1.000000 3 -3.000000
49 1 757.802828 -3028.800594 422.182596 1 1.000000 3 0.000000
50 3 739.186828 -3027.863041 451.806328 1 1.000000 3 0.000000
51 2 759.234246 -2983.253347 434.384419 1 1.000000 3 -3.000000
52 2 753.068087 -2985.076177 441.912086 1 1.000000 1 -3.000000
53 2 746.901928 -2986.899008 449.439753 1 1.000000 1 -3.000000
54 2 740.735769 -2988.721838 456.967420 1 1.000000 1 -3.000000
55 2 734.569610 -2990.544668 464.495087 1 1.000000 1 -3.000000
56 2 728.403451 -2992.367499 472.022754 1 1.000000 1 -3.000000
57 2 722.237292 -2994.190329 479.550421 1 1.000000 1 -3.000000
58 2 716.071132 -2996.013160 487.078088 1 1.000000 1 -3.000000
59 2 709.904973 -2997.835990 494.605755 1 1.000000 1 -3.000000
60 2 703.738814 -2999.658821 502.133422 1 1.000000 1 -3.000000
61 2 697.572655 -3001.481651 509.661089 1 1.000000 1 -3.000000
62 2 691.406496 -3003.304481 517.188756 1 1.000000 1 -3.000000
63 2 685.240337 -3005.127312 524.716423 1 1.000000 1 -3.000000
64 2 679.074178 -3006.950142 532.244090 1 1.000000 1 -3.000000
65 2 672.908019 -3008.772973 539.771757 1 1.000000 1 -3.000000
66 2 666.741859 -3010.595803 547.299424 1 1.000000 1 -3.000000
67 2 660.575700 -3012.418633 554.827091 1 1.000000 1 -3.000000
68 2 654.409541 -3014.241464 562.354758 1 1.000000 1 -3.000000
69 2 648.243382 -3016.064294 569.882425 1 1.000000 1 -3.000000
70 2 642.077223 -3017.887125 577.410092 1 1.000000 1 -3.000000
71 2 635.911064 -3019.709955 584.937759 1 1.000000 1 -3.000000
72 2 629.744905 -3021.532786 592.465426 1 1.000000 1 -3.000000
73 2 623.578746 -3023.355616 599.993093 1 1.000000 1 -3.000000
74 2 617.412586 -3025.178446 607.520760 1 1.000000 1 -3.000000
75 2 611.246427 -3027.001277 615.048427 1 1.000000 4 -3.000000
76 1 582.189685 -2993.286827 599.411076 1 1.000000 4 0.000000
77 3 609.672539 -2990.783055 577.883794 1 1.000000 4 0.000000
78 2 570.072217 -2958.029157 570.505215 1 1.000000 4 -3.000000
79 2 578.985857 -2958.478172 566.220895 1 1.000000 1 -3.000000
80 2 587.899498 -2958.927186 561.936575 1 1.000000 1 -3.000000
81 2 596.813139 -2959.376201 557.652255 1 1.000000 1 -3.000000
82 2 605.726779 -2959.825215 553.367935 1 1.000000 1 -3.000000
83 2 614.640420 -2960.274230 549.083615 1 1.000000 1 -3.000000
84 2 623.554060 -2960.723244 544.799295 1 1.000000 1 -3.000000
85 2 632.467701 -2961.172259 540.514975 1 1.000000 1 -3.000000
86 2 641.381341 -2961.621273 536.230655 1 1.000000 1 -3.000000
87 2 650.294982 -2962.070288 531.946335 1 1.000000 1 -3.000000
88 2 659.208623 -2962.519302 527.662015 1 1.000000 1 -3.000000
89 2 668.122263 -2962.968317 523.377695 1 1.000000 1 -3.000000
90 2 677.035904 -2963.417331 519.093375 1 1.000000 1 -3.000000
91 2 685.949544 -2963.866346 514.809055 1 1.000000 1 -3.000000
92 2 694.863185 -2964.315360 510.524735 1 1.000000 1 -3.000000
93 2 703.776825 -2964.764375 506.240415 1 1.000000 1 -3.000000
94 2 712.690466 -2965.213389 501.956095 1 1.000000 1 -3.000000
95 2 721.604107 -2965.662404 497.671775 1 1.000000 1 -3.000000
96 2 730.517747 -2966.111418 493.387455 1 1.000000 1 -3.000000
97 2 739.431388 -2966.560433 489.103135 1 1.000000 1 -3.000000
98 2 748.345028 -2967.009447 484.818815 1 1.000000 1 -3.000000
99 2 757.258669 -2967.458462 480.534495 1 1.000000 1 -3.000000
100 2 766.172309 -2967.907476 476.250175 1 1.000000 1 -3.000000
101 2 775.085950 -2968.356491 471.965855 1 1.000000 1 -3.000000
102 2 783.999591 -2968.805505 467.681535 1 1.000000 5 -3.000000
103 1 790.334969 -2922.811492 476.042093 1 1.000000 5 0.000000
104 3 757.485485 -2928.437709 486.731205 1 1.000000 5 0.000000
105 2 776.423308 -2880.285242 490.990970 1 1.000000 5 -3.000000
106 2 767.312487 -2883.821353 492.571749 1 1.000000 1 -3.000000
107 2 758.201666 -2887.357464 494.152529 1 1.000000 1 -3.000000
108 2 749.090845 -2890.893575 495.733309 1 1.000000 1 -3.000000
109 2 739.980025 -2894.429685 497.314088 1 1.000000 1 -3.000000
110 2 730.869204 -2897.965796 498.894868 1 1.000000 1 -3.000000
111 2 721.758383 -2901.501907 500.475647 1 1.000000 1 -3.000000
112 2 712.647562 -2905.038018 502.056427 1 1.000000 1 -3.000000
113 2 703.536741 -2908.574128 503.637207 1 1.000000 1 -3.000000
114 2 694.425920 -2912.110239 505.217986 1 1.000000 1 -3.000000
115 2 685.315099 -2915.646350 506.798766 1 1.000000 1 -3.000000
116 2 676.204279 -2919.182461 508.379546 1 1.000000 1 -3.000000
117 2 667.093458 -2922.718571 509.960325 1 1.000000 1 -3.000000
118 2 657.982637 -2926.254682 511.541105 1 1.000000 1 -3.000000
119 2 648.871816 -2929.790793 513.121884 1 1.000000 1 -3.000000
120 2 639.760995 -2933.326903 514.702664 1 1.000000 1 -3.000000
121 2 630.650174 -2936.863014 516.283444 1 1.000000 1 -3.000000
122 2 621.539353 -2940.399125 517.864223 1 1.000000 1 -3.000000
123 2 612.428533 -2943.935236 519.445003 1 1.000000 1 -3.000000
124 2 603.317712 -2947.471346 521.025783 1 1.000000 1 -3.000000
125 2 594.206891 -2951.007457 522.606562 1 1.000000 1 -3.000000
126 2 585.096070 -2954.543568 524.187342 1 1.000000 1 -3.000000
127 2 575.985249 -2958.079679 525.768122 1 1.000000 1 -3.000000
128 2 566.874428 -2961.615789 527.348901 1 1.000000 1 -3.000000
129 2 557.763607 -2965.151900 528.929681 1 1.000000 6 -3.000000
130 1 539.784574 -2930.898156 501.931153 1 1.000000 6 0.000000
131 3 573.816969 -2922.866052 503.441579 1 1.000000 6 0.000000
132 2 542.781676 -2891.693761 475.863588 1 1.000000 6 -3.000000
133 2 552.344378 -2890.822668 478.273136 1 1.000000 1 -3.000000
134 2 561.907081 -2889.951576 480.682684 1 1.000000 1 -3.000000
135 2 571.469783 -2889.080484 483.092232 1 1.000000 1 -3.000000
136 2 581.032485 -2888.209391 485.501780 1 1.000000 1 -3.000000
137 2 590.595188 -2887.338299 487.911328 1 1.000000 1 -3.000000
138 2 600.157890 -2886.467206 490.320876 1 1.000000 1 -3.000000
139 2 609.720592 -2885.596114 492.730424 1 1.000000 1 -3.000000
140 2 619.283295 -2884.725021 495.139972 1 1.000000 1 -3.000000
141 2 628.845997 -2883.853929 497.549520 1 1.000000 1 -3.000000
142 2 638.408699 -2882.982836 499.959068 1 1.000000 1 -3.000000
143 2 647.971402 -2882.111744 502.368616 1 1.000000 1 -3.000000
144 2 657.534104 -2881.240651 504.778164 1 1.000000 1 -3.000000
145 2 667.096807 -2880.369559 507.187712 1 1.000000 1 -3.000000
146 2 676.659509 -2879.498466 509.597259 1 1.000000 1 -3.000000
147 2 686.222211 -2878.627374 512.006807 1 1.000000 1 -3.000000
148 2 695.784914 -2877.756281 514.416355 1 1.000000 1 -3.000000
149 2 705.347616 -2876.885189 516.825903 1 1.000000 1 -3.000000
150 2 714.910318 -2876.014097 519.235451 1 1.000000 1 -3.000000
151 2 724.473021 -2875.143004 521.644999 1 1.000000 1 -3.000000
152 2 734.035723 -2874.271912 524.054547 1 1.000000 1 -3.000000
153 2 743.598425 -2873.400819 526.464095 1 1.000000 1 -3.000000
154 2 753.161128 -2872.529727 528.873643 1 1.000000 1 -3.000000
155 2 762.723830 -2871.658634 531.283191 1 1.000000 1 -3.000000
156 2 772.286533 -2870.787542 533.692739 1 1.000000 7 -3.000000
157 1 764.447513 -2826.828067 548.911132 1 1.000000 7 0.000000
158 3 733.566580 -2836.243088 535.393536 1 1.000000 7 0.000000
159 2 737.574786 -2788.671614 555.797848 1 1.000000 7 -3.000000
160 2 730.193168 -2792.966530 550.790312 1 1.000000 1 -3.000000
161 2 722.811550 -2797.261445 545.782775 1 1.000000 1 -3.000000
162 2 715.429932 -2801.556360 540.775239 1 1.000000 1 -3.000000
163 2 708.048314 -2805.851275 535.767703 1 1.000000 1 -3.000000
164 2 700.666696 -2810.146190 530.760167 1 1.000000 1 -3.000000
165 2 693.285077 -2814.441106 525.752631 1 1.000000 1 -3.000000
166 2 685.903459 -2818.736021 520.745094 1 1.000000 1 -3.000000
167 2 678.521841 -2823.030936 515.737558 1 1.000000 1 -3.000000
168 2 671.140223 -2827.325851 510.730022 1 1.000000 1 -3.000000
169 2 663.758605 -2831.620766 505.722486 1 1.000000 1 -3.000000
170 2 656.376987 -2835.915682 500.714950 1 1.000000 1 -3.000000
171 2 648.995369 -2840.210597 495.707413 1 1.000000 1 -3.000000
172 2 641.613751 -2844.505512 490.699877 1 1.000000 1 -3.000000
173 2 634.232133 -2848.800427 485.692341 1 1.000000 1 -3.000000
174 2 626.850515 -2853.095342 480.684805 1 1.000000 1 -3.000000
175 2 619.468897 -2857.390257 475.677269 1 1.000000 1 -3.000000
176 2 612.087279 -2861.685173 470.669733 1 1.000000 1 -3.000000
177 2 604.705661 -2865.980088 465.662196 1 1.000000 1 -3.000000
178 2 597.324043 -2870.275003 460.654660 1 1.000000 1 -3.000000
179 2 589.942425 -2874.569918 455.647124 1 1.000000 1 -3.000000
180 2 582.560807 -2878.864833 450.639588 1 1.000000 1 -3.000000
181 2 575.179189 -2883.159749 445.632052 1 1.000000 1 -3.000000
182 2 567.797571 -2887.454664 440.624515 1 1.000000 1 -3.000000
183 2 560.415953 -2891.749579 435.616979 1 1.000000 8 -3.000000
184 1 557.902752 -2854.225173 407.137374 1 1.000000 8 0.000000
185 3 581.699218 -2844.626334 430.940535 1 1.000000 8 0.000000
186 2 570.056691 -2810.784446 393.329036 1 1.000000 8 -3.000000
187 2 575.732158 -2809.812494 401.382258 1 1.000000 1 -3.000000
188 2 581.407624 -2808.840541 409.435480 1 1.000000 1 -3.000000
189 2 587.083091 -2807.868588 417.488702 1 1.000000 1 -3.000000
190 2 592.758558 -2806.896635 425.541924 1 1.000000 1 -3.000000
191 2 598.434024 -2805.924682 433.595146 1 1.000000 1 -3.000000
192 2 604.109491 -2804.952729 441.648368 1 1.000000 1 -3.000000
193 2 609.784958 -2803.980776 449.701590 1 1.000000 1 -3.000000
194 2 615.460424 -2803.008823 457.754812 1 1.000000 1 -3.000000
195 2 621.135891 -2802.036870 465.808034 1 1.000000 1 -3.000000
196 2 626.811358 -2801.064918 473.861256 1 1.000000 1 -3.000000
197 2 632.486824 -2800.092965 481.914479 1 1.000000 1 -3.000000
198 2 638.162291 -2799.121012 489.967701 1 1.000000 1 -3.000000
199 2 643.837758 -2798.149059 498.020923 1 1.000000 1 -3.000000
200 2 649.513224 -2797.177106 506.074145 1 1.000000 1 -3.000000
201 2 655.188691 -2796.205153 514.127367 1 1.000000 1 -3.000000
202 2 660.864157 -2795.233200 522.180589 1 1.000000 1 -3.000000
203 2 666.539624 -2794.261247 530.233811 1 1.000000 1 -3.000000
204 2 672.215091 -2793.289294 538.287033 1 1.000000 1 -3.000000
205 2 677.890557 -2792.317342 546.340255 1 1.000000 1 -3.000000
206 2 683.566024 -2791.345389 554.393477 1 1.000000 1 -3.000000
207 2 689.241491 -2790.373436 562.446699 1 1.000000 1 -3.000000
208 2 694.916957 -2789.401483 570.499922 1 1.000000 1 -3.000000
209 2 700.592424 -2788.429530 578.553144 1 1.000000 1 -3.000000
210 2 706.267891 -2787.457577 586.606366 1 1.000000 9 -3.000000
211 1 683.641335 -2747.588336 597.740448 1 1.000000 9 0.000000
212 3 669.960059 -2756.148482 566.683297 1 1.000000 9 0.000000
213 2 652.582217 -2712.995209 589.732210 1 1.000000 9 -3.000000
214 2 650.750789 -2716.720195 580.744421 1 1.000000 1 -3.000000
215 2 648.919360 -2720.445181 571.756632 1 1.000000 1 -3.000000
216 2 647.087931 -2724.170167 562.768843 1 1.000000 1 -3.000000
217 2 645.256503 -2727.895153 553.781054 1 1.000000 1 -3.000000
218 2 643.425074 -2731.620139 544.793265 1 1.000000 1 -3.000000
219 2 641.593645 -2735.345125 535.805477 1 1.000000 1 -3.000000
220 2 639.762216 -2739.070111 526.817688 1 1.000000 1 -3.000000
221 2 637.930788 -2742.795097 517.829899 1 1.000000 1 -3.000000
222 2 636.099359 -2746.520082 508.842110 1 1.000000 1 -3.000000
223 2 634.267930 -2750.245068 499.854321 1 1.000000 1 -3.000000
224 2 632.436501 -2753.970054 490.866532 1 1.000000 1 -3.000000
225 2 630.605073 -2757.695040 481.878743 1 1.000000 1 -3.000000
226 2 628.773644 -2761.420026 472.890955 1 1.000000 1 -3.000000
227 2 626.942215 -2765.145012 463.903166 1 1.000000 1 -3.000000
228 2 625.110787 -2768.869998 454.915377 1 1.000000 1 -3.000000
229 2 623.279358 -2772.594984 445.927588 1 1.000000 1 -3.000000
230 2 621.447929 -2776.319970 436.939799 1 1.000000 1 -3.000000
231 2 619.616500 -2780.044956 427.952010 1 1.000000 1 -3.000000
232 2 617.785072 -2783.769942 418.964222 1 1.000000 1 -3.000000
233 2 615.953643 -2787.494928 409.976433 1 1.000000 1 -3.000000
234 2 614.122214 -2791.219914 400.988644 1 1.000000 1 -3.000000
235 2 612.290785 -2794.944900 392.000855 1 1.000000 1 -3.000000
236 2 610.459357 -2798.669886 383.013066 1 1.000000 1 -3.000000
237 2 608.627928 -2802.394872 374.025277 1 1.000000 10 -3.000000
238 1 618.340620 -2760.481593 354.675192 1 1.000000 10 0.000000
239 3 620.164256 -2754.050363 389.030885 1 1.000000 10 0.000000
240 2 629.177325 -2714.604374 356.500510 1 1.000000 10 -3.000000
241 2 628.346522 -2714.800554 366.363637 1 1.000000 1 -3.000000
242 2 627.515719 -2714.996733 376.226764 1 1.000000 1 -3.000000
243 2 626.684917 -2715.192913 386.089892 1 1.000000 1 -3.000000
244 2 625.854114 -2715.389093 395.953019 1 1.000000 1 -3.000000
245 2 625.023311 -2715.585272 405.816146 1 1.000000 1 -3.000000
246 2 624.192508 -2715.781452 415.679274 1 1.000000 1 -3.000000
247 2 623.361706 -2715.977632 425.542401 1 1.000000 1 -3.000000
248 2 622.530903 -2716.173811 435.405528 1 1.000000 1 -3.000000
249 2 621.700100 -2716.369991 445.268656 1 1.000000 1 -3.000000
250 2 620.869297 -2716.566171 455.131783 1 1.000000 1 -3.000000
251 2 620.038495 -2716.762350 464.994910 1 1.000000 1 -3.000000
252 2 619.207692 -2716.958530 474.858037 1 1.000000 1 -3.000000
253 2 618.376889 -2717.154710 484.721165 1 1.000000 1 -3.000000
254 2 617.546087 -2717.350889 494.584292 1 1.000000 1 -3.000000
255 2 616.715284 -2717.547069 504.447419 1 1.000000 1 -3.000000
256 2 615.884481 -2717.743249 514.310547 1 1.000000 1 -3.000000
257 2 615.053678 -2717.939428 524.173674 1 1.000000 1 -3.000000
258 2 614.222876 -2718.135608 534.036801 1 1.000000 1 -3.000000
259 2 613.392073 -2718.331788 543.899929 1 1.000000 1 -3.000000
260 2 612.561270 -2718.527967 553.763056 1 1.000000 1 -3.000000
261 2 611.730467 -2718.724147 563.626183 1 1.000000 1 -3.000000
262 2 610.899665 -2718.920326 573.489311 1 1.000000 1 -3.000000
263 2 610.068862 -2719.116506 583.352438 1 1.000000 1 -3.000000
264 2 609.238059 -2719.312686 593.215565 1 1.000000 11 -3.000000
265 1 578.504345 -2683.571988 591.337656 1 1.000000 11 0.000000
266 3 588.770609 -2687.055220 558.058970 1 1.000000 11 0.000000
267 2 554.098324 -2649.978209 568.948166 1 1.000000 11 -3.000000
268 2 558.900605 -2652.085632 560.551329 1 1.000000 1 -3.000000
269 2 563.702886 -2654.193056 552.154493 1 1.000000 1 -3.000000
270 2 568.505166 -2656.300480 543.757656 1 1.000000 1 -3.000000
271 2 573.307447 -2658.407904 535.360819 1 1.000000 1 -3.000000
272 2 578.109728 -2660.515328 526.963983 1 1.000000 1 -3.000000
273 2 582.912008 -2662.622751 518.567146 1 1.000000 1 -3.000000
274 2 587.714289 -2664.730175 510.170309 1 1.000000 1 -3.000000
275 2 592.516570 -2666.837599 501.773473 1 1.000000 1 -3.000000
276 2 597.318850 -2668.945023 493.376636 1 1.000000 1 -3.000000
277 2 602.121131 -2671.052446 484.979799 1 1.000000 1 -3.000000
278 2 606.923411 -2673.159870 476.582963 1 1.000000 1 -3.000000
279 2 611.725692 -2675.267294 468.186126 1 1.000000 1 -3.000000
280 2 616.527973 -2677.374718 459.789290 1 1.000000 1 -3.000000
281 2 621.330253 -2679.482142 451.392453 1 1.000000 1 -3.000000
282 2 626.132534 -2681.589565 442.995616 1 1.000000 1 -3.000000
283 2 630.934815 -2683.696989 434.598780 1 1.000000 1 -3.000000
284 2 635.737095 -2685.804413 426.201943 1 1.000000 1 -3.000000
285 2 640.539376 -2687.911837 417.805106 1 1.000000 1 -3.000000
286 2 645.341657 -2690.019260 409.408270 1 1.000000 1 -3.000000
287 2 650.143937 -2692.126684 401.011433 1 1.000000 1 -3.000000
288 2 654.946218 -2694.234108 392.614596 1 1.000000 1 -3.000000
289 2 659.748498 -2696.341532 384.217760 1 1.000000 1 -3.000000
290 2 664.550779 -2698.448956 375.820923 1 1.000000 1 -3.000000
291 2 669.353060 -2700.556379 367.424086 1 1.000000 12 -3.000000
292 1 682.021646 -2655.300698 363.311253 1 1.000000 12 0.000000
293 3 660.972997 -2655.209090 391.274550 1 1.000000 12 0.000000
294 2 681.716731 -2609.988554 376.433819 1 1.000000 12 -3.000000
295 2 674.969650 -2612.045712 383.380400 1 1.000000 1 -3.000000
296 2 668.222569 -2614.102870 390.326982 1 1.000000 1 -3.000000
297 2 661.475488 -2616.160029 397.273563 1 1.000000 1 -3.000000
298 2 654.728407 -2618.217187 404.220145 1 1.000000 1 -3.000000
299 2 647.981325 -2620.274345 411.166726 1 1.000000 1 -3.000000
300 2 641.234244 -2622.331504 418.113308 1 1.000000 1 -3.000000
301 2 634.487163 -2624.388662 425.059889 1 1.000000 1 -3.000000
302 2 627.740082 -2626.445821 432.006471 1 1.000000 1 -3.000000
303 2 620.993001 -2628.502979 438.953052 1 1.000000 1 -3.000000
304 2 614.245919 -2630.560137 445.899634 1 1.000000 1 -3.000000
305 2 607.498838 -2632.617296 452.846215 1 1.000000 1 -3.000000
306 2 600.751757 -2634.674454 459.792797 1 1.000000 1 -3.000000
307 2 594.004676 -2636.731612 466.739378 1 1.000000 1 -3.000000
308 2 587.257595 -2638.788771 473.685960 1 1.000000 1 -3.000000
309 2 580.510513 -2640.845929 480.632541 1 1.000000 1 -3.000000
310 2 573.763432 -2642.903088 487.579123 1 1.000000 1 -3.000000
311 2 567.016351 -2644.960246 494.525704 1 1.000000 1 -3.000000
312 2 560.269270 -2647.017404 501.472286 1 1.000000 1 -3.000000
313 2 553.522189 -2649.074563 508.418867 1 1.000000 1 -3.000000
314 2 546.775107 -2651.131721 515.365449 1 1.000000 1 -3.000000
315 2 540.028026 -2653.188879 522.312030 1 1.000000 1 -3.000000
316 2 533.280945 -2655.246038 529.258612 1 1.000000 1 -3.000000
317 2 526.533864 -2657.303196 536.205193 1 1.000000 1 -3.000000
318 2 519.786783 -2659.360355 543.151775 1 1.000000 13 -3.000000
319 1 491.624903 -2625.750229 525.751974 1 1.000000 13 0.000000
320 3 520.775176 -2622.438546 506.665478 1 1.000000 13 0.000000
321 2 481.430024 -2590.098921 496.588060 1 1.000000 13 -3.000000
322 2 490.677654 -2590.338964 493.061911 1 1.000000 1 -3.000000
323 2 499.925283 -2590.579007 489.535761 1 1.000000 1 -3.000000
324 2 509.172913 -2590.819050 486.009612 1 1.000000 1 -3.000000
325 2 518.420542 -2591.059094 482.483463 1 1.000000 1 -3.000000
326 2 527.668171 -2591.299137 478.957313 1 1.000000 1 -3.000000
327 2 536.915801 -2591.539180 475.431164 1 1.000000 1 -3.000000
328 2 546.163430 -2591.779223 471.905015 1 1.000000 1 -3.000000
329 2 555.411060 -2592.019267 468.378866 1 1.000000 1 -3.000000
330 2 564.658689 -2592.259310 464.852716 1 1.000000 1 -3.000000
331 2 573.906319 -2592.499353 461.326567 1 1.000000 1 -3.000000
332 2 583.153948 -2592.739396 457.800418 1 1.000000 1 -3.000000
333 2 592.401578 -2592.979440 454.274269 1 1.000000 1 -3.000000
334 2 601.649207 -2593.219483 450.748119 1 1.000000 1 -3.000000
335 2 610.896837 -2593.459526 447.221970 1 1.000000 1 -3.000000
336 2 620.144466 -2593.699569 443.695821 1 1.000000 1 -3.000000
337 2 629.392096 -2593.939613 440.169672 1 1.000000 1 -3.000000
338 2 638.639725 -2594.179656 436.643522 1 1.000000 1 -3.000000
339 2 647.887354 -2594.419699 433.117373 1 1.000000 1 -3.000000
340 2 657.134984 -2594.659742 429.591224 1 1.000000 1 -3.000000
341 2 666.382613 -2594.899785 426.065075 1 1.000000 1 -3.000000
342 2 675.630243 -2595.139829 422.538925 1 1.000000 1 -3.000000
343 2 684.877872 -2595.379872 419.012776 1 1.000000 1 -3.000000
344 2 694.125502 -2595.619915 415.486627 1 1.000000 1 -3.000000
345 2 703.373131 -2595.859958 411.960477 1 1.000000 14 -3.000000
346 1 708.269706 -2549.956887 421.677305 1 1.000000 14 0.000000
347 3 674.730394 -2556.250084 429.456138 1 1.000000 14 0.000000
348 2 692.494060 -2507.932677 436.188677 1 1.000000 14 -3.000000
349 2 683.338720 -2511.625788 436.930762 1 1.000000 1 -3.000000
350 2 674.183381 -2515.318898 437.672846 1 1.000000 1 -3.000000
351 2 665.028041 -2519.012009 438.414931 1 1.000000 1 -3.000000
352 2 655.872701 -2522.705120 439.157015 1 1.000000 1 -3.000000
353 2 646.717362 -2526.398230 439.899100 1 1.000000 1 -3.000000
354 2 637.562022 -2530.091341 440.641185 1 1.000000 1 -3.000000
355 2 628.406682 -2533.784452 441.383269 1 1.000000 1 -3.000000
356 2 619.251343 -2537.477562 442.125354 1 1.000000 1 -3.000000
357 2 610.096003 -2541.170673 442.867438 1 1.000000 1 -3.000000
358 2 600.940663 -2544.863784 443.609523 1 1.000000 1 -3.000000
359 2 591.785324 -2548.556894 444.351607 1 1.000000 1 -3.000000
360 2 582.629984 -2552.250005 445.093692 1 1.000000 1 -3.000000
361 2 573.474645 -2555.943116 445.835776 1 1.000000 1 -3.000000
362 2 564.319305 -2559.636226 446.577861 1 1.000000 1 -3.000000
363 2 555.163965 -2563.329337 447.319945 1 1.000000 1 -3.000000
364 2 546.008626 -2567.022448 448.062030 1 1.000000 1 -3.000000
365 2 536.853286 -2570.715558 448.804114 1 1.000000 1 -3.000000
366 2 527.697946 -2574.408669 449.546199 1 1.000000 1 -3.000000
367 2 518.542607 -2578.101780 450.288283 1 1.000000 1 -3.000000
368 2 509.387267 -2581.794890 451.030368 1 1.000000 1 -3.000000
369 2 500.231927 -2585.488001 451.772452 1 1.000000 1 -3.000000
370 2 491.076588 -2589.181112 452.514537 1 1.000000 1 -3.000000
371 2 481.921248 -2592.874222 453.256621 1 1.000000 1 -3.000000
372 2 472.765908 -2596.567333 453.998706 1 1.000000 15 -3.000000
373 1 456.586374 -2562.038965 426.222824 1 1.000000 15 0.000000
374 3 490.243148 -2553.565757 430.742367 1 1.000000 15 0.000000
375 2 461.151458 -2522.288068 401.232599 1 1.000000 15 -3.000000
376 2 470.463539 -2521.331942 404.454550 1 1.000000 1 -3.000000
377 2 479.775620 -2520.375817 407.676501 1 1.000000 1 -3.000000
378 2 489.087701 -2519.419691 410.898452 1 1.000000 1 -3.000000
379 2 498.399782 -2518.463566 414.120403 1 1.000000 1 -3.000000
380 2 507.711864 -2517.507440 417.342354 1 1.000000 1 -3.000000
381 2 517.023945 -2516.551315 420.564305 1 1.000000 1 -3.000000
382 2 526.336026 -2515.595189 423.786256 1 1.000000 1 -3.000000
383 2 535.648107 -2514.639064 427.008207 1 1.000000 1 -3.000000
384 2 544.960188 -2513.682938 430.230158 1 1.000000 1 -3.000000
385 2 554.272269 -2512.726813 433.452109 1 1.000000 1 -3.000000
386 2 563.584350 -2511.770687 436.674061 1 1.000000 1 -3.000000
387 2 572.896432 -2510.814562 439.896012 1 1.000000 1 -3.000000
388 2 582.208513 -2509.858436 443.117963 1 1.000000 1 -3.000000
389 2 591.520594 -2508.902311 446.339914 1 1.000000 1 -3.000000
390 2 600.832675 -2507.946185 449.561865 1 1.000000 1 -3.000000
391 2 610.144756 -2506.990060 452.783816 1 1.000000 1 -3.000000
392 2 619.456837 -2506.033934 456.005767 1 1.000000 1 -3.000000
393 2 628.768919 -2505.077808 459.227718 1 1.000000 1 -3.000000
394 2 638.081000 -2504.121683 462.449669 1 1.000000 1 -3.000000
395 2 647.393081 -2503.165557 465.671620 1 1.000000 1 -3.000000
396 2 656.705162 -2502.209432 468.893571 1 1.000000 1 -3.000000
397 2 666.017243 -2501.253306 472.115522 1 1.000000 1 -3.000000
398 2 675.329324 -2500.297181 475.337473 1 1.000000 1 -3.000000
399 2 684.641405 -2499.341055 478.559425 1 1.000000 16 -3.000000
400 1 674.871376 -2455.804911 493.877251 1 1.000000 16 0.000000
401 3 645.383674 -2465.378980 477.634942 1 1.000000 16 0.000000
402 2 646.926368 -2418.169820 499.184002 1 1.000000 16 -3.000000
403 2 640.058592 -2422.466971 493.493823 1 1.000000 1 -3.000000
404 2 633.190816 -2426.764123 487.803643 1 1.000000 1 -3.000000
405 2 626.323040 -2431.061274 482.113464 1 1.000000 1 -3.000000
406 2 619.455264 -2435.358426 476.423284 1 1.000000 1 -3.000000
407 2 612.587488 -2439.655578 470.733105 1 1.000000 1 -3.000000
408 2 605.719712 -2443.952729 465.042926 1 1.000000 1 -3.000000
409 2 598.851936 -2448.249881 459.352746 1 1.000000 1 -3.000000
410 2 591.984160 -2452.547032 453.662567 1 1.000000 1 -3.000000
411 2 585.116384 -2456.844184 447.972387 1 1.000000 1 -3.000000
412 2 578.248608 -2461.141335 442.282208 1 1.000000 1 -3.000000
413 2 571.380832 -2465.438487 436.592028 1 1.000000 1 -3.000000
414 2 564.513056 -2469.735638 430.901849 1 1.000000 1 -3.000000
415 2 557.645280 -2474.032790 425.211670 1 1.000000 1 -3.000000
416 2 550.777504 -2478.329941 419.521490 1 1.000000 1 -3.000000
417 2 543.909728 -2482.627093 413.831311 1 1.000000 1 -3.000000
418 2 537.041952 -2486.924245 408.141131 1 1.000000 1 -3.000000
419 2 530.174176 -2491.221396 402.450952 1 1.000000 1 -3.000000
420 2 523.306400 -2495.518548 396.760773 1 1.000000 1 -3.000000
421 2 516.438624 -2499.815699 391.070593 1 1.000000 1 -3.000000
422 2 509.570848 -2504.112851 385.380414 1 1.000000 1 -3.000000
423 2 502.703072 -2508.410002 379.690234 1 1.000000 1 -3.000000
424 2 495.835296 -2512.707154 374.000055 1 1.000000 1 -3.000000
425 2 488.967520 -2517.004305 368.309876 1 1.000000 1 -3.000000
426 2 482.099744 -2521.301457 362.619696 1 1.000000 17 -3.000000
427 1 481.403130 -2483.258929 334.731241 1 1.000000 17 0.000000
428 3 502.966198 -2473.803354 360.627692 1 1.000000 17 0.000000
429 2 493.997083 -2439.388383 322.804268 1 1.000000 17 -3.000000
430 2 498.960930 -2438.497275 331.323432 1 1.000000 1 -3.000000
431 2 503.924776 -2437.606167 339.842596 1 1.000000 1 -3.000000
432 2 508.888623 -2436.715060 348.361759 1 1.000000 1 -3.000000
433 2 513.852470 -2435.823952 356.880923 1 1.000000 1 -3.000000
434 2 518.816317 -2434.932844 365.400087 1 1.000000 1 -3.000000
435 2 523.780164 -2434.041736 373.919251 1 1.000000 1 -3.000000
436 2 528.744010 -2433.150629 382.438415 1 1.000000 1 -3.000000
437 2 533.707857 -2432.259521 390.957578 1 1.000000 1 -3.000000
438 2 538.671704 -2431.368413 399.476742 1 1.000000 1 -3.000000
439 2 543.635551 -2430.477306 407.995906 1 1.000000 1 -3.000000
440 2 548.599398 -2429.586198 416.515070 1 1.000000 1 -3.000000
441 2 553.563244 -2428.695090 425.034234 1 1.000000 1 -3.000000
442 2 558.527091 -2427.803983 433.553397 1 1.000000 1 -3.000000
443 2 563.490938 -2426.912875 442.072561 1 1.000000 1 -3.000000
444 2 568.454785 -2426.021767 450.591725 1 1.000000 1 -3.000000
445 2 573.418632 -2425.130659 459.110889 1 1.000000 1 -3.000000
446 2 578.382479 -2424.239552 467.630053 1 1.000000 1 -3.000000
447 2 583.346325 -2423.348444 476.149216 1 1.000000 1 -3.000000
448 2 588.310172 -2422.457336 484.668380 1 1.000000 1 -3.000000
449 2 593.274019 -2421.566229 493.187544 1 1.000000 1 -3.000000
450 2 598.237866 -2420.675121 501.706708 1 1.000000 1 -3.000000
451 2 603.201713 -2419.784013 510.225872 1 1.000000 1 -3.000000
452 2 608.165559 -2418.892905 518.745036 1 1.000000 1 -3.000000
453 2 613.129406 -2418.001798 527.264199 1 1.000000 18 -3.000000
454 1 589.032049 -2378.679482 537.191837 1 1.000000 18 0.000000
455 3 578.139892 -2386.812297 504.939423 1 1.000000 18 0.000000
456 2 558.221225 -2344.369891 527.240444 1 1.000000 18 -3.000000
457 2 557.208562 -2347.941246 518.062757 1 1.000000 1 -3.000000
458 2 556.195898 -2351.512602 508.885071 1 1.000000 1 -3.000000
459 2 555.183235 -2355.083958 499.707384 1 1.000000 1 -3.000000
460 2 554.170572 -2358.655313 490.529697 1 1.000000 1 -3.000000
461 2 553.157909 -2362.226669 481.352011 1 1.000000 1 -3.000000
462 2 552.145246 -2365.798025 472.174324 1 1.000000 1 -3.000000
463 2 551.132582 -2369.369381 462.996638 1 1.000000 1 -3.000000
464 2 550.119919 -2372.940736 453.818951 1 1.000000 1 -3.000000
465 2 549.107256 -2376.512092 444.641264 1 1.000000 1 -3.000000