LAMMPS data file

4067 atoms
4067 ellipsoids
4516 bonds
8882 angles
0 dihedrals

3 atom types
5 bond types
12 angle types
0 dihedral types

-4631.092947 4670.465898 xlo xhi
-4631.092947 4670.465898 ylo yhi
-4631.092947 4670.465898 zlo zhi

Masses

1 196016.000000
2 1950.000000
3 19500.000000

Atoms

1 2 521.826000 -3027.900000 600.031000 1 1.000000 1 -3.000000
2 2 527.948000 -3027.470000 607.851000 1 1.000000 1 -3.000000
3 2 533.661000 -3023.640000 615.025000 1 1.000000 1 -3.000000
4 2 539.960000 -3020.260000 621.828000 1 1.000000 1 -3.000000
5 2 548.965000 -3020.080000 625.577000 1 1.000000 1 -3.000000
6 2 558.650000 -3020.700000 627.676000 1 1.000000 1 -3.000000
7 2 567.742000 -3023.830000 629.944000 1 1.000000 1 -3.000000
8 2 576.976000 -3026.710000 631.675000 1 1.000000 1 -3.000000
9 2 585.603000 -3029.790000 635.483000 1 1.000000 1 -3.000000
10 2 593.200000 -3033.680000 640.571000 1 1.000000 1 -3.000000
11 2 600.411000 -3038.910000 644.678000 1 1.000000 1 -3.000000
12 2 608.172000 -3044.060000 647.605000 1 1.000000 1 -3.000000
13 2 616.262000 -3049.660000 647.523000 1 1.000000 1 -3.000000
14 2 624.285000 -3055.570000 647.325000 1 1.000000 1 -3.000000
15 2 631.616000 -3062.340000 647.386000 1 1.000000 1 -3.000000
16 2 636.833000 -3070.400000 648.947000 1 1.000000 1 -3.000000
17 2 643.053000 -3077.800000 647.131000 1 1.000000 1 -3.000000
18 2 649.200000 -3085.520000 646.085000 1 1.000000 1 -3.000000
19 2 655.600000 -3092.860000 647.793000 1 1.000000 1 -3.000000
20 2 660.208000 -3101.530000 646.262000 1 1.000000 1 -3.000000
21 2 664.228000 -3109.670000 642.425000 1 1.000000 2 -3.000000
22 1 636.769000 -3115.470000 604.507000 1 1.000000 2 0.000000
23 3 629.580000 -3082.730000 614.525000 1 1.000000 2 0.000000
24 2 602.854000 -3102.030000 574.545000 1 1.000000 2 -3.000000
25 2 606.185000 -3092.960000 572.087000 1 1.000000 1 -3.000000
26 2 610.087000 -3084.000000 570.937000 1 1.000000 1 -3.000000
27 2 610.658000 -3074.360000 573.060000 1 1.000000 1 -3.000000
28 2 615.370000 -3066.030000 575.808000 1 1.000000 1 -3.000000
29 2 619.068000 -3057.350000 578.753000 1 1.000000 1 -3.000000
30 2 619.731000 -3048.950000 583.989000 1 1.000000 1 -3.000000
31 2 622.356000 -3043.080000 591.436000 1 1.000000 1 -3.000000
32 2 623.471000 -3038.170000 599.986000 1 1.000000 1 -3.000000
33 2 625.307000 -3034.840000 609.138000 1 1.000000 1 -3.000000
34 2 627.696000 -3032.800000 618.549000 1 1.000000 1 -3.000000
35 2 630.710000 -3030.240000 627.727000 1 1.000000 1 -3.000000
36 2 635.655000 -3028.930000 636.305000 1 1.000000 1 -3.000000
37 2 635.949000 -3029.190000 646.258000 1 1.000000 1 -3.000000
38 2 639.083000 -3029.550000 655.561000 1 1.000000 1 -3.000000
39 2 642.007000 -3031.140000 664.947000 1 1.000000 1 -3.000000
40 2 643.660000 -3032.880000 674.501000 1 1.000000 1 -3.000000
41 2 643.707000 -3033.360000 684.346000 1 1.000000 1 -3.000000
42 2 641.592000 -3030.950000 693.765000 1 1.000000 1 -3.000000
43 2 644.548000 -3027.770000 702.494000 1 1.000000 1 -3.000000
44 2 648.552000 -3026.940000 711.480000 1 1.000000 1 -3.000000
45 2 655.586000 -3026.110000 718.400000 1 1.000000 1 -3.000000
46 2 662.511000 -3027.040000 725.279000 1 1.000000 1 -3.000000
47 2 668.460000 -3030.110000 732.660000 1 1.000000 1 -3.000000
48 2 676.025000 -3032.830000 738.424000 1 1.000000 3 -3.000000
49 1 708.023000 -3014.470000 709.075000 1 1.000000 3 0.000000
50 3 677.584000 -3005.000000 694.448000 1 1.000000 3 0.000000
51 2 721.539000 -2989.390000 671.605000 1 1.000000 3 -3.000000
52 2 713.257000 -2987.200000 666.469000 1 1.000000 1 -3.000000
53 2 706.240000 -2982.140000 661.712000 1 1.000000 1 -3.000000
54 2 698.429000 -2976.230000 660.028000 1 1.000000 1 -3.000000
55 2 689.187000 -2972.660000 659.019000 1 1.000000 1 -3.000000
56 2 680.774000 -2968.050000 661.606000 1 1.000000 1 -3.000000
57 2 673.605000 -2964.900000 667.797000 1 1.000000 1 -3.000000
58 2 666.570000 -2965.830000 674.644000 1 1.000000 1 -3.000000
59 2 657.651000 -2968.170000 678.411000 1 1.000000 1 -3.000000
60 2 649.763000 -2973.880000 678.220000 1 1.000000 1 -3.000000
61 2 641.731000 -2979.720000 678.992000 1 1.000000 1 -3.000000
62 2 632.388000 -2982.950000 679.125000 1 1.000000 1 -3.000000
63 2 625.829000 -2988.870000 683.813000 1 1.000000 1 -3.000000
64 2 616.997000 -2989.450000 688.284000 1 1.000000 1 -3.000000
65 2 607.343000 -2988.750000 690.344000 1 1.000000 1 -3.000000
66 2 597.524000 -2987.570000 691.381000 1 1.000000 1 -3.000000
67 2 588.845000 -2990.650000 694.740000 1 1.000000 1 -3.000000
68 2 580.056000 -2994.380000 697.330000 1 1.000000 1 -3.000000
69 2 571.089000 -2996.070000 701.427000 1 1.000000 1 -3.000000
70 2 563.034000 -2997.280000 706.887000 1 1.000000 1 -3.000000
71 2 554.840000 -2999.080000 712.184000 1 1.000000 1 -3.000000
72 2 545.699000 -2999.890000 715.774000 1 1.000000 1 -3.000000
73 2 539.345000 -3001.910000 723.074000 1 1.000000 1 -3.000000
74 2 531.303000 -3003.390000 728.527000 1 1.000000 1 -3.000000
75 2 523.014000 -3006.410000 732.768000 1 1.000000 4 -3.000000
76 1 545.555000 -3007.020000 774.272000 1 1.000000 4 0.000000
77 3 566.992000 -2988.430000 753.709000 1 1.000000 4 0.000000
78 2 580.374000 -2994.810000 803.567000 1 1.000000 4 -3.000000
79 2 582.769000 -2986.910000 797.976000 1 1.000000 1 -3.000000
80 2 586.472000 -2978.370000 794.750000 1 1.000000 1 -3.000000
81 2 591.132000 -2973.120000 787.725000 1 1.000000 1 -3.000000
82 2 595.062000 -2970.660000 779.042000 1 1.000000 1 -3.000000
83 2 598.721000 -2968.470000 770.261000 1 1.000000 1 -3.000000
84 2 603.198000 -2963.300000 763.039000 1 1.000000 1 -3.000000
85 2 609.975000 -2959.630000 756.839000 1 1.000000 1 -3.000000
86 2 615.682000 -2956.950000 749.126000 1 1.000000 1 -3.000000
87 2 622.288000 -2952.870000 742.960000 1 1.000000 1 -3.000000
88 2 628.092000 -2949.210000 735.778000 1 1.000000 1 -3.000000
89 2 633.773000 -2943.580000 729.795000 1 1.000000 1 -3.000000
90 2 641.105000 -2937.800000 726.179000 1 1.000000 1 -3.000000
91 2 649.314000 -2932.310000 725.606000 1 1.000000 1 -3.000000
92 2 657.584000 -2927.190000 723.553000 1 1.000000 1 -3.000000
93 2 665.596000 -2924.970000 717.980000 1 1.000000 1 -3.000000
94 2 673.703000 -2920.820000 714.288000 1 1.000000 1 -3.000000
95 2 681.022000 -2914.550000 712.351000 1 1.000000 1 -3.000000
96 2 689.009000 -2908.780000 713.733000 1 1.000000 1 -3.000000
97 2 696.342000 -2902.160000 714.515000 1 1.000000 1 -3.000000
98 2 702.819000 -2894.750000 713.746000 1 1.000000 1 -3.000000
99 2 708.464000 -2886.890000 712.185000 1 1.000000 1 -3.000000
100 2 714.164000 -2878.990000 710.520000 1 1.000000 1 -3.000000
101 2 721.308000 -2874.060000 705.958000 1 1.000000 1 -3.000000
102 2 729.118000 -2868.370000 703.452000 1 1.000000 5 -3.000000
103 1 715.974000 -2835.070000 672.725000 1 1.000000 5 0.000000
104 3 689.977000 -2835.210000 696.058000 1 1.000000 5 0.000000
105 2 687.197000 -2801.260000 656.811000 1 1.000000 5 -3.000000
106 2 679.856000 -2807.860000 656.365000 1 1.000000 1 -3.000000
107 2 670.133000 -2809.580000 656.526000 1 1.000000 1 -3.000000
108 2 661.000000 -2813.350000 655.697000 1 1.000000 1 -3.000000
109 2 651.715000 -2816.690000 654.722000 1 1.000000 1 -3.000000
110 2 643.053000 -2821.550000 655.760000 1 1.000000 1 -3.000000
111 2 634.135000 -2823.530000 659.538000 1 1.000000 1 -3.000000
112 2 626.277000 -2823.890000 665.725000 1 1.000000 1 -3.000000
113 2 619.401000 -2824.200000 672.705000 1 1.000000 1 -3.000000
114 2 611.600000 -2820.780000 677.618000 1 1.000000 1 -3.000000
115 2 603.395000 -2820.100000 683.172000 1 1.000000 1 -3.000000
116 2 593.583000 -2821.470000 684.334000 1 1.000000 1 -3.000000
117 2 583.879000 -2821.550000 682.544000 1 1.000000 1 -3.000000
118 2 574.040000 -2821.780000 681.494000 1 1.000000 1 -3.000000
119 2 564.278000 -2822.530000 682.845000 1 1.000000 1 -3.000000
120 2 555.161000 -2826.260000 684.502000 1 1.000000 1 -3.000000
121 2 545.690000 -2828.990000 684.526000 1 1.000000 1 -3.000000
122 2 536.416000 -2831.950000 686.625000 1 1.000000 1 -3.000000
123 2 526.888000 -2831.100000 683.942000 1 1.000000 1 -3.000000
124 2 517.034000 -2830.240000 684.986000 1 1.000000 1 -3.000000
125 2 507.607000 -2833.020000 683.826000 1 1.000000 1 -3.000000
126 2 497.856000 -2834.700000 683.967000 1 1.000000 1 -3.000000
127 2 487.961000 -2835.860000 684.557000 1 1.000000 1 -3.000000
128 2 478.850000 -2839.630000 686.157000 1 1.000000 1 -3.000000
129 2 470.146000 -2843.870000 687.965000 1 1.000000 6 -3.000000
130 1 447.192000 -2812.520000 661.033000 1 1.000000 6 0.000000
131 3 479.645000 -2799.490000 662.647000 1 1.000000 6 0.000000
132 2 445.000000 -2774.710000 632.999000 1 1.000000 6 -3.000000
133 2 453.974000 -2776.700000 629.429000 1 1.000000 1 -3.000000
134 2 463.512000 -2779.100000 627.943000 1 1.000000 1 -3.000000
135 2 471.993000 -2779.740000 622.825000 1 1.000000 1 -3.000000
136 2 480.656000 -2783.690000 620.072000 1 1.000000 1 -3.000000
137 2 484.889000 -2788.510000 612.459000 1 1.000000 1 -3.000000
138 2 488.986000 -2792.740000 604.448000 1 1.000000 1 -3.000000
139 2 491.866000 -2798.070000 596.658000 1 1.000000 1 -3.000000
140 2 494.586000 -2804.110000 589.284000 1 1.000000 1 -3.000000
141 2 497.013000 -2811.230000 582.657000 1 1.000000 1 -3.000000
142 2 499.777000 -2819.590000 578.016000 1 1.000000 1 -3.000000
143 2 502.068000 -2827.450000 572.429000 1 1.000000 1 -3.000000
144 2 505.748000 -2835.620000 568.333000 1 1.000000 1 -3.000000
145 2 509.944000 -2844.260000 566.151000 1 1.000000 1 -3.000000
146 2 512.237000 -2852.270000 560.825000 1 1.000000 1 -3.000000
147 2 507.840000 -2859.600000 555.758000 1 1.000000 1 -3.000000
148 2 501.646000 -2867.040000 553.965000 1 1.000000 1 -3.000000
149 2 495.207000 -2874.180000 551.221000 1 1.000000 1 -3.000000
150 2 488.610000 -2881.340000 548.982000 1 1.000000 1 -3.000000
151 2 480.349000 -2886.730000 548.075000 1 1.000000 1 -3.000000
152 2 472.785000 -2892.650000 550.260000 1 1.000000 1 -3.000000
153 2 465.829000 -2897.490000 555.377000 1 1.000000 1 -3.000000
154 2 460.646000 -2904.430000 560.044000 1 1.000000 1 -3.000000
155 2 455.838000 -2912.060000 564.156000 1 1.000000 1 -3.000000
156 2 450.480000 -2920.080000 566.319000 1 1.000000 7 -3.000000
157 1 414.295000 -2891.560000 576.817000 1 1.000000 7 0.000000
158 3 433.545000 -2872.330000 554.815000 1 1.000000 7 0.000000
159 2 391.781000 -2850.130000 576.176000 1 1.000000 7 -3.000000
160 2 391.469000 -2846.950000 566.922000 1 1.000000 1 -3.000000
161 2 388.800000 -2841.690000 558.941000 1 1.000000 1 -3.000000
162 2 383.638000 -2834.010000 555.317000 1 1.000000 1 -3.000000
163 2 381.100000 -2825.110000 551.756000 1 1.000000 1 -3.000000
164 2 380.088000 -2817.380000 545.814000 1 1.000000 1 -3.000000
165 2 376.253000 -2811.620000 538.646000 1 1.000000 1 -3.000000
166 2 373.343000 -2805.080000 531.863000 1 1.000000 1 -3.000000
167 2 370.393000 -2798.740000 524.651000 1 1.000000 1 -3.000000
168 2 367.314000 -2793.330000 516.777000 1 1.000000 1 -3.000000
169 2 366.129000 -2789.190000 507.728000 1 1.000000 1 -3.000000
170 2 365.554000 -2788.370000 497.794000 1 1.000000 1 -3.000000
171 2 365.164000 -2788.320000 487.916000 1 1.000000 1 -3.000000
172 2 362.787000 -2787.510000 478.417000 1 1.000000 1 -3.000000
173 2 359.615000 -2792.700000 470.581000 1 1.000000 1 -3.000000
174 2 358.985000 -2799.840000 463.786000 1 1.000000 1 -3.000000
175 2 357.005000 -2806.680000 456.921000 1 1.000000 1 -3.000000
176 2 353.189000 -2811.390000 449.046000 1 1.000000 1 -3.000000
177 2 351.208000 -2814.200000 439.801000 1 1.000000 1 -3.000000
178 2 349.309000 -2818.450000 431.085000 1 1.000000 1 -3.000000
179 2 346.824000 -2824.370000 423.494000 1 1.000000 1 -3.000000
180 2 341.004000 -2829.120000 417.092000 1 1.000000 1 -3.000000
181 2 335.451000 -2836.220000 412.822000 1 1.000000 1 -3.000000
182 2 327.707000 -2842.140000 411.449000 1 1.000000 1 -3.000000
183 2 319.649000 -2847.580000 409.205000 1 1.000000 8 -3.000000
184 1 280.668000 -2832.720000 431.279000 1 1.000000 8 0.000000
185 3 304.116000 -2807.910000 438.986000 1 1.000000 8 0.000000
186 2 256.322000 -2802.910000 458.525000 1 1.000000 8 -3.000000
187 2 261.464000 -2795.740000 454.036000 1 1.000000 1 -3.000000
188 2 266.874000 -2787.390000 453.022000 1 1.000000 1 -3.000000
189 2 273.532000 -2780.310000 454.809000 1 1.000000 1 -3.000000
190 2 281.531000 -2774.580000 453.505000 1 1.000000 1 -3.000000
191 2 289.713000 -2768.940000 452.668000 1 1.000000 1 -3.000000
192 2 298.064000 -2764.060000 450.765000 1 1.000000 1 -3.000000
193 2 307.052000 -2760.170000 449.398000 1 1.000000 1 -3.000000
194 2 314.922000 -2754.450000 447.053000 1 1.000000 1 -3.000000
195 2 322.277000 -2748.110000 444.689000 1 1.000000 1 -3.000000
196 2 328.188000 -2740.910000 441.364000 1 1.000000 1 -3.000000
197 2 331.984000 -2732.470000 437.727000 1 1.000000 1 -3.000000
198 2 336.228000 -2724.500000 433.405000 1 1.000000 1 -3.000000
199 2 339.053000 -2716.270000 428.733000 1 1.000000 1 -3.000000
200 2 341.736000 -2708.570000 423.279000 1 1.000000 1 -3.000000
201 2 344.019000 -2699.800000 419.333000 1 1.000000 1 -3.000000
202 2 346.339000 -2690.310000 417.427000 1 1.000000 1 -3.000000
203 2 351.795000 -2682.460000 414.947000 1 1.000000 1 -3.000000
204 2 356.804000 -2674.120000 413.492000 1 1.000000 1 -3.000000
205 2 360.778000 -2665.460000 416.281000 1 1.000000 1 -3.000000
206 2 364.321000 -2656.480000 418.327000 1 1.000000 1 -3.000000
207 2 366.045000 -2647.000000 420.500000 1 1.000000 1 -3.000000
208 2 365.323000 -2638.620000 425.708000 1 1.000000 1 -3.000000
209 2 366.375000 -2629.660000 429.464000 1 1.000000 1 -3.000000
210 2 367.888000 -2621.070000 434.076000 1 1.000000 9 -3.000000
211 1 413.185000 -2617.200000 446.979000 1 1.000000 9 0.000000
212 3 414.141000 -2641.550000 421.721000 1 1.000000 9 0.000000
213 2 459.123000 -2627.220000 443.344000 1 1.000000 9 -3.000000
214 2 460.202000 -2634.320000 436.494000 1 1.000000 1 -3.000000
215 2 458.411000 -2642.250000 430.896000 1 1.000000 1 -3.000000
216 2 458.186000 -2649.100000 423.758000 1 1.000000 1 -3.000000
217 2 456.242000 -2655.910000 416.856000 1 1.000000 1 -3.000000
218 2 452.838000 -2663.260000 411.247000 1 1.000000 1 -3.000000
219 2 448.602000 -2671.870000 408.595000 1 1.000000 1 -3.000000
220 2 446.432000 -2681.390000 406.240000 1 1.000000 1 -3.000000
221 2 444.247000 -2690.440000 402.874000 1 1.000000 1 -3.000000
222 2 438.768000 -2696.830000 397.460000 1 1.000000 1 -3.000000
223 2 436.865000 -2701.560000 388.938000 1 1.000000 1 -3.000000
224 2 434.999000 -2705.290000 379.849000 1 1.000000 1 -3.000000
225 2 432.667000 -2712.150000 373.118000 1 1.000000 1 -3.000000
226 2 433.768000 -2715.980000 364.096000 1 1.000000 1 -3.000000
227 2 436.966000 -2719.620000 355.520000 1 1.000000 1 -3.000000
228 2 441.077000 -2723.360000 347.413000 1 1.000000 1 -3.000000
229 2 446.057000 -2727.860000 340.062000 1 1.000000 1 -3.000000
230 2 449.384000 -2732.330000 332.023000 1 1.000000 1 -3.000000
231 2 451.808000 -2736.110000 323.206000 1 1.000000 1 -3.000000
232 2 454.499000 -2737.530000 313.741000 1 1.000000 1 -3.000000
233 2 456.131000 -2738.930000 304.210000 1 1.000000 1 -3.000000
234 2 459.880000 -2738.510000 295.110000 1 1.000000 1 -3.000000
235 2 463.070000 -2739.880000 285.838000 1 1.000000 1 -3.000000
236 2 466.387000 -2741.200000 276.598000 1 1.000000 1 -3.000000
237 2 469.697000 -2740.180000 267.412000 1 1.000000 10 -3.000000
238 1 454.579000 -2696.090000 260.166000 1 1.000000 10 0.000000
239 3 449.425000 -2700.780000 294.393000 1 1.000000 10 0.000000
240 2 436.687000 -2654.720000 274.289000 1 1.000000 10 -3.000000
241 2 437.197000 -2658.180000 283.447000 1 1.000000 1 -3.000000
242 2 440.567000 -2660.870000 292.290000 1 1.000000 1 -3.000000
243 2 443.877000 -2660.090000 301.663000 1 1.000000 1 -3.000000
244 2 449.196000 -2659.940000 310.011000 1 1.000000 1 -3.000000
245 2 454.442000 -2662.230000 318.014000 1 1.000000 1 -3.000000
246 2 457.672000 -2665.830000 326.555000 1 1.000000 1 -3.000000
247 2 461.677000 -2667.570000 335.444000 1 1.000000 1 -3.000000
248 2 467.613000 -2666.680000 343.261000 1 1.000000 1 -3.000000
249 2 472.655000 -2667.460000 351.702000 1 1.000000 1 -3.000000
250 2 477.678000 -2667.610000 360.327000 1 1.000000 1 -3.000000
251 2 480.982000 -2665.680000 369.468000 1 1.000000 1 -3.000000
252 2 488.612000 -2666.120000 375.863000 1 1.000000 1 -3.000000
253 2 494.634000 -2672.880000 380.029000 1 1.000000 1 -3.000000
254 2 502.689000 -2676.040000 384.852000 1 1.000000 1 -3.000000
255 2 509.115000 -2681.210000 390.390000 1 1.000000 1 -3.000000
256 2 515.849000 -2686.280000 395.495000 1 1.000000 1 -3.000000
257 2 520.663000 -2692.660000 401.498000 1 1.000000 1 -3.000000
258 2 527.324000 -2695.700000 408.330000 1 1.000000 1 -3.000000
259 2 533.611000 -2699.650000 415.002000 1 1.000000 1 -3.000000
260 2 535.169000 -2703.870000 423.866000 1 1.000000 1 -3.000000
261 2 533.255000 -2707.280000 433.087000 1 1.000000 1 -3.000000
262 2 529.585000 -2710.000000 441.758000 1 1.000000 1 -3.000000
263 2 524.421000 -2710.760000 450.098000 1 1.000000 1 -3.000000
264 2 520.057000 -2711.210000 458.984000 1 1.000000 11 -3.000000
265 1 478.424000 -2726.620000 442.881000 1 1.000000 11 0.000000
266 3 499.595000 -2730.350000 415.203000 1 1.000000 11 0.000000
267 2 449.821000 -2744.050000 409.677000 1 1.000000 11 -3.000000
268 2 456.878000 -2746.250000 403.215000 1 1.000000 1 -3.000000
269 2 461.366000 -2753.020000 397.459000 1 1.000000 1 -3.000000
270 2 467.840000 -2757.260000 391.335000 1 1.000000 1 -3.000000
271 2 475.851000 -2760.160000 386.454000 1 1.000000 1 -3.000000
272 2 484.145000 -2760.030000 381.216000 1 1.000000 1 -3.000000
273 2 492.178000 -2758.550000 375.805000 1 1.000000 1 -3.000000
274 2 501.149000 -2756.020000 372.592000 1 1.000000 1 -3.000000
275 2 509.880000 -2753.580000 368.601000 1 1.000000 1 -3.000000
276 2 518.260000 -2750.190000 364.576000 1 1.000000 1 -3.000000
277 2 526.403000 -2750.230000 358.928000 1 1.000000 1 -3.000000
278 2 534.085000 -2748.930000 352.932000 1 1.000000 1 -3.000000
279 2 542.655000 -2746.690000 348.553000 1 1.000000 1 -3.000000
280 2 550.867000 -2742.080000 345.939000 1 1.000000 1 -3.000000
281 2 559.318000 -2737.810000 342.778000 1 1.000000 1 -3.000000
282 2 565.201000 -2732.140000 337.271000 1 1.000000 1 -3.000000
283 2 570.092000 -2728.850000 329.270000 1 1.000000 1 -3.000000
284 2 572.993000 -2726.650000 320.059000 1 1.000000 1 -3.000000
285 2 576.533000 -2723.080000 311.446000 1 1.000000 1 -3.000000
286 2 577.507000 -2718.770000 302.583000 1 1.000000 1 -3.000000
287 2 578.305000 -2713.870000 293.964000 1 1.000000 1 -3.000000
288 2 576.535000 -2705.330000 289.164000 1 1.000000 1 -3.000000
289 2 573.650000 -2700.430000 281.104000 1 1.000000 1 -3.000000
290 2 571.233000 -2696.700000 272.377000 1 1.000000 1 -3.000000
291 2 569.226000 -2691.610000 264.018000 1 1.000000 12 -3.000000
292 1 547.272000 -2653.370000 281.084000 1 1.000000 12 0.000000
293 3 558.196000 -2669.790000 309.831000 1 1.000000 12 0.000000
294 2 536.559000 -2622.990000 315.580000 1 1.000000 12 -3.000000
295 2 541.769000 -2624.230000 323.786000 1 1.000000 1 -3.000000
296 2 547.152000 -2626.610000 331.776000 1 1.000000 1 -3.000000
297 2 550.987000 -2629.200000 340.498000 1 1.000000 1 -3.000000
298 2 556.274000 -2631.050000 348.524000 1 1.000000 1 -3.000000
299 2 565.116000 -2631.360000 353.149000 1 1.000000 1 -3.000000
300 2 573.645000 -2630.600000 358.165000 1 1.000000 1 -3.000000
301 2 581.566000 -2626.340000 362.146000 1 1.000000 1 -3.000000
302 2 588.453000 -2628.770000 368.826000 1 1.000000 1 -3.000000
303 2 593.832000 -2629.960000 376.994000 1 1.000000 1 -3.000000
304 2 599.173000 -2632.340000 384.956000 1 1.000000 1 -3.000000
305 2 604.687000 -2636.220000 392.117000 1 1.000000 1 -3.000000
306 2 611.001000 -2639.030000 399.148000 1 1.000000 1 -3.000000
307 2 617.495000 -2640.310000 406.511000 1 1.000000 1 -3.000000
308 2 623.601000 -2641.050000 414.313000 1 1.000000 1 -3.000000
309 2 631.326000 -2641.120000 420.578000 1 1.000000 1 -3.000000
310 2 639.636000 -2642.070000 425.824000 1 1.000000 1 -3.000000
311 2 649.059000 -2640.980000 428.435000 1 1.000000 1 -3.000000
312 2 658.479000 -2639.820000 431.472000 1 1.000000 1 -3.000000
313 2 668.256000 -2639.990000 429.842000 1 1.000000 1 -3.000000
314 2 678.084000 -2640.920000 429.763000 1 1.000000 1 -3.000000
315 2 687.184000 -2644.730000 429.522000 1 1.000000 1 -3.000000
316 2 696.793000 -2646.270000 427.866000 1 1.000000 1 -3.000000
317 2 704.665000 -2651.340000 424.664000 1 1.000000 1 -3.000000
318 2 713.767000 -2654.340000 422.478000 1 1.000000 13 -3.000000
319 1 699.565000 -2693.930000 443.977000 1 1.000000 13 0.000000
320 3 677.410000 -2669.520000 456.248000 1 1.000000 13 0.000000
321 2 672.758000 -2717.970000 474.355000 1 1.000000 13 -3.000000
322 2 667.704000 -2710.160000 477.967000 1 1.000000 1 -3.000000
323 2 662.956000 -2702.160000 481.654000 1 1.000000 1 -3.000000
324 2 655.332000 -2696.840000 485.048000 1 1.000000 1 -3.000000
325 2 650.435000 -2688.320000 486.091000 1 1.000000 1 -3.000000
326 2 649.263000 -2678.830000 489.053000 1 1.000000 1 -3.000000
327 2 646.918000 -2669.350000 488.558000 1 1.000000 1 -3.000000
328 2 643.259000 -2660.030000 488.213000 1 1.000000 1 -3.000000
329 2 640.479000 -2650.560000 487.475000 1 1.000000 1 -3.000000
330 2 639.766000 -2641.020000 485.296000 1 1.000000 1 -3.000000
331 2 640.727000 -2631.170000 485.584000 1 1.000000 1 -3.000000
332 2 637.879000 -2621.720000 486.618000 1 1.000000 1 -3.000000
333 2 637.403000 -2612.350000 489.456000 1 1.000000 1 -3.000000
334 2 637.608000 -2603.580000 493.816000 1 1.000000 1 -3.000000
335 2 635.913000 -2594.030000 496.085000 1 1.000000 1 -3.000000
336 2 632.548000 -2584.860000 496.934000 1 1.000000 1 -3.000000
337 2 628.015000 -2576.930000 500.355000 1 1.000000 1 -3.000000
338 2 621.904000 -2570.460000 504.457000 1 1.000000 1 -3.000000
339 2 619.568000 -2563.180000 510.921000 1 1.000000 1 -3.000000
340 2 620.303000 -2556.940000 518.499000 1 1.000000 1 -3.000000
341 2 618.107000 -2549.840000 524.969000 1 1.000000 1 -3.000000
342 2 615.625000 -2542.330000 530.935000 1 1.000000 1 -3.000000
343 2 615.479000 -2534.570000 537.189000 1 1.000000 1 -3.000000
344 2 613.267000 -2527.800000 544.074000 1 1.000000 1 -3.000000
345 2 613.448000 -2518.640000 547.796000 1 1.000000 14 -3.000000
346 1 597.926000 -2493.540000 511.050000 1 1.000000 14 0.000000
347 3 585.341000 -2525.680000 504.604000 1 1.000000 14 0.000000
348 2 573.118000 -2487.800000 471.282000 1 1.000000 14 -3.000000
349 2 567.525000 -2495.250000 474.393000 1 1.000000 1 -3.000000
350 2 562.011000 -2503.390000 474.368000 1 1.000000 1 -3.000000
351 2 556.497000 -2511.100000 471.930000 1 1.000000 1 -3.000000
352 2 549.992000 -2515.520000 465.806000 1 1.000000 1 -3.000000
353 2 542.518000 -2517.640000 459.578000 1 1.000000 1 -3.000000
354 2 534.818000 -2520.200000 454.016000 1 1.000000 1 -3.000000
355 2 527.295000 -2520.520000 447.731000 1 1.000000 1 -3.000000
356 2 520.417000 -2523.180000 441.033000 1 1.000000 1 -3.000000
357 2 514.579000 -2523.040000 432.925000 1 1.000000 1 -3.000000
358 2 509.055000 -2524.420000 424.681000 1 1.000000 1 -3.000000
359 2 505.405000 -2526.000000 415.655000 1 1.000000 1 -3.000000
360 2 506.456000 -2526.390000 405.936000 1 1.000000 1 -3.000000
361 2 504.239000 -2527.600000 396.381000 1 1.000000 1 -3.000000
362 2 502.251000 -2530.330000 387.089000 1 1.000000 1 -3.000000
363 2 499.625000 -2535.110000 378.887000 1 1.000000 1 -3.000000
364 2 497.800000 -2538.990000 370.087000 1 1.000000 1 -3.000000
365 2 498.140000 -2541.090000 360.380000 1 1.000000 1 -3.000000
366 2 497.815000 -2542.840000 350.621000 1 1.000000 1 -3.000000
367 2 498.520000 -2543.960000 341.014000 1 1.000000 1 -3.000000
368 2 498.391000 -2547.540000 331.787000 1 1.000000 1 -3.000000
369 2 497.732000 -2551.500000 322.704000 1 1.000000 1 -3.000000
370 2 494.245000 -2555.160000 314.222000 1 1.000000 1 -3.000000
371 2 489.363000 -2558.320000 306.176000 1 1.000000 1 -3.000000
372 2 486.488000 -2562.970000 298.091000 1 1.000000 15 -3.000000
373 1 452.771000 -2533.370000 283.510000 1 1.000000 15 0.000000
374 3 463.881000 -2518.790000 313.477000 1 1.000000 15 0.000000
375 2 425.606000 -2495.000000 287.619000 1 1.000000 15 -3.000000
376 2 430.524000 -2491.580000 295.586000 1 1.000000 1 -3.000000
377 2 437.173000 -2487.130000 301.542000 1 1.000000 1 -3.000000
378 2 443.952000 -2480.620000 304.253000 1 1.000000 1 -3.000000
379 2 450.049000 -2473.440000 307.459000 1 1.000000 1 -3.000000
380 2 452.756000 -2464.590000 311.135000 1 1.000000 1 -3.000000
381 2 456.602000 -2457.290000 316.621000 1 1.000000 1 -3.000000
382 2 462.145000 -2450.580000 321.268000 1 1.000000 1 -3.000000
383 2 468.852000 -2444.670000 325.361000 1 1.000000 1 -3.000000
384 2 473.976000 -2437.390000 329.747000 1 1.000000 1 -3.000000
385 2 481.441000 -2431.000000 328.764000 1 1.000000 1 -3.000000
386 2 490.168000 -2426.340000 329.012000 1 1.000000 1 -3.000000
387 2 498.960000 -2421.980000 327.753000 1 1.000000 1 -3.000000
388 2 507.467000 -2419.630000 323.142000 1 1.000000 1 -3.000000
389 2 515.384000 -2418.950000 317.129000 1 1.000000 1 -3.000000
390 2 522.777000 -2421.020000 310.911000 1 1.000000 1 -3.000000
391 2 529.698000 -2420.200000 303.996000 1 1.000000 1 -3.000000
392 2 535.994000 -2417.620000 296.834000 1 1.000000 1 -3.000000
393 2 542.155000 -2411.950000 291.703000 1 1.000000 1 -3.000000
394 2 549.364000 -2406.480000 287.442000 1 1.000000 1 -3.000000
395 2 557.560000 -2401.340000 286.553000 1 1.000000 1 -3.000000
396 2 566.424000 -2397.320000 284.660000 1 1.000000 1 -3.000000
397 2 575.906000 -2395.970000 282.321000 1 1.000000 1 -3.000000
398 2 585.121000 -2397.860000 279.024000 1 1.000000 1 -3.000000
399 2 594.231000 -2400.740000 276.308000 1 1.000000 16 -3.000000
400 1 608.631000 -2415.960000 318.575000 1 1.000000 16 0.000000
401 3 575.639000 -2427.620000 316.700000 1 1.000000 16 0.000000
402 2 602.255000 -2437.160000 360.229000 1 1.000000 16 -3.000000
403 2 592.578000 -2436.510000 361.220000 1 1.000000 1 -3.000000
404 2 582.767000 -2436.390000 363.049000 1 1.000000 1 -3.000000
405 2 573.436000 -2434.300000 365.638000 1 1.000000 1 -3.000000
406 2 565.109000 -2429.450000 367.427000 1 1.000000 1 -3.000000
407 2 557.659000 -2423.160000 369.717000 1 1.000000 1 -3.000000
408 2 549.590000 -2418.420000 373.037000 1 1.000000 1 -3.000000
409 2 540.803000 -2414.710000 375.930000 1 1.000000 1 -3.000000
410 2 531.597000 -2411.050000 375.552000 1 1.000000 1 -3.000000
411 2 521.799000 -2411.250000 376.129000 1 1.000000 1 -3.000000
412 2 512.068000 -2410.170000 375.103000 1 1.000000 1 -3.000000
413 2 502.720000 -2408.420000 371.914000 1 1.000000 1 -3.000000
414 2 493.379000 -2408.910000 368.563000 1 1.000000 1 -3.000000
415 2 484.800000 -2412.620000 365.295000 1 1.000000 1 -3.000000
416 2 475.494000 -2416.240000 366.464000 1 1.000000 1 -3.000000
417 2 467.658000 -2421.580000 363.600000 1 1.000000 1 -3.000000
418 2 460.789000 -2427.850000 360.521000 1 1.000000 1 -3.000000
419 2 454.066000 -2434.750000 357.759000 1 1.000000 1 -3.000000
420 2 446.939000 -2441.030000 355.071000 1 1.000000 1 -3.000000
421 2 439.554000 -2446.140000 350.896000 1 1.000000 1 -3.000000
422 2 433.347000 -2452.760000 346.874000 1 1.000000 1 -3.000000
423 2 428.577000 -2460.080000 342.245000 1 1.000000 1 -3.000000
424 2 422.168000 -2465.460000 337.115000 1 1.000000 1 -3.000000
425 2 414.219000 -2469.850000 333.368000 1 1.000000 1 -3.000000
426 2 409.121000 -2475.810000 327.545000 1 1.000000 17 -3.000000
427 1 432.014000 -2503.590000 358.031000 1 1.000000 17 0.000000
428 3 452.466000 -2475.490000 356.015000 1 1.000000 17 0.000000
429 2 467.478000 -2514.080000 387.156000 1 1.000000 17 -3.000000
430 2 469.466000 -2506.580000 393.207000 1 1.000000 1 -3.000000
431 2 471.566000 -2500.130000 400.311000 1 1.000000 1 -3.000000
432 2 471.081000 -2492.170000 405.932000 1 1.000000 1 -3.000000
433 2 472.296000 -2484.130000 411.560000 1 1.000000 1 -3.000000
434 2 470.052000 -2477.350000 418.374000 1 1.000000 1 -3.000000
435 2 466.939000 -2470.370000 424.577000 1 1.000000 1 -3.000000
436 2 466.556000 -2461.220000 428.417000 1 1.000000 1 -3.000000
437 2 465.874000 -2453.630000 434.682000 1 1.000000 1 -3.000000
438 2 466.110000 -2447.510000 442.553000 1 1.000000 1 -3.000000
439 2 468.474000 -2442.380000 450.640000 1 1.000000 1 -3.000000
440 2 468.510000 -2435.870000 458.085000 1 1.000000 1 -3.000000
441 2 469.336000 -2429.850000 465.933000 1 1.000000 1 -3.000000
442 2 471.005000 -2421.490000 471.000000 1 1.000000 1 -3.000000
443 2 471.871000 -2414.420000 477.855000 1 1.000000 1 -3.000000
444 2 474.313000 -2407.670000 484.827000 1 1.000000 1 -3.000000
445 2 473.596000 -2401.430000 492.405000 1 1.000000 1 -3.000000
446 2 475.009000 -2393.900000 498.508000 1 1.000000 1 -3.000000
447 2 478.123000 -2386.300000 504.060000 1 1.000000 1 -3.000000
448 2 480.606000 -2378.510000 509.532000 1 1.000000 1 -3.000000
449 2 483.753000 -2370.270000 513.975000 1 1.000000 1 -3.000000
450 2 487.659000 -2362.650000 518.953000 1 1.000000 1 -3.000000
451 2 491.968000 -2353.860000 520.333000 1 1.000000 1 -3.000000
452 2 498.302000 -2348.120000 525.260000 1 1.000000 1 -3.000000
453 2 501.917000 -2341.980000 532.081000 1 1.000000 18 -3.000000
454 1 541.769000 -2353.450000 509.496000 1 1.000000 18 0.000000
455 3 516.880000 -2365.860000 488.177000 1 1.000000 18 0.000000
456 2 565.951000 -2369.500000 472.293000 1 1.000000 18 -3.000000
457 2 557.169000 -2373.090000 469.502000 1 1.000000 1 -3.000000
458 2 547.502000 -2374.210000 467.681000 1 1.000000 1 -3.000000
459 2 539.412000 -2369.820000 463.781000 1 1.000000 1 -3.000000
460 2 531.184000 -2365.900000 460.007000 1 1.000000 1 -3.000000
461 2 522.429000 -2361.190000 459.539000 1 1.000000 1 -3.000000
462 2 514.927000 -2355.970000 455.593000 1 1.000000 1 -3.000000
463 2 507.281000 -2350.890000 451.756000 1 1.000000 1 -3.000000
464 2 501.014000 -2344.870000 447.124000 1 1.000000 1 -3.000000
465 2 494.317000 -2339.180000 442.273000 1 1.000000 1 -3.000000