LAMMPS data file

4067 atoms
4067 ellipsoids
4516 bonds
8882 angles
0 dihedrals

3 atom types
5 bond types
12 angle types
0 dihedral types

-4631.092947 4670.465898 xlo xhi
-4631.092947 4670.465898 ylo yhi
-4631.092947 4670.465898 zlo zhi

Masses

1 196016.000000
2 1950.000000
3 19500.000000

Atoms

1 2 399.437000 -2963.420000 321.320000 1 1.000000 1 -3.000000
2 2 404.951000 -2968.370000 327.902000 1 1.000000 1 -3.000000
3 2 409.989000 -2973.740000 334.464000 1 1.000000 1 -3.000000
4 2 414.262000 -2980.340000 340.430000 1 1.000000 1 -3.000000
5 2 415.343000 -2989.770000 343.015000 1 1.000000 1 -3.000000
6 2 418.370000 -2996.680000 349.295000 1 1.000000 1 -3.000000
7 2 421.679000 -3003.670000 355.342000 1 1.000000 1 -3.000000
8 2 424.392000 -3011.890000 360.204000 1 1.000000 1 -3.000000
9 2 427.627000 -3020.770000 363.205000 1 1.000000 1 -3.000000
10 2 429.738000 -3029.730000 366.715000 1 1.000000 1 -3.000000
11 2 428.606000 -3039.390000 368.638000 1 1.000000 1 -3.000000
12 2 430.021000 -3048.960000 370.312000 1 1.000000 1 -3.000000
13 2 431.198000 -3058.740000 371.421000 1 1.000000 1 -3.000000
14 2 430.904000 -3068.550000 372.650000 1 1.000000 1 -3.000000
15 2 431.457000 -3078.070000 375.001000 1 1.000000 1 -3.000000
16 2 433.199000 -3087.840000 375.090000 1 1.000000 1 -3.000000
17 2 434.865000 -3097.540000 375.535000 1 1.000000 1 -3.000000
18 2 438.492000 -3105.910000 378.971000 1 1.000000 1 -3.000000
19 2 438.992000 -3113.040000 385.771000 1 1.000000 1 -3.000000
20 2 443.094000 -3119.120000 392.495000 1 1.000000 1 -3.000000
21 2 447.543000 -3124.900000 399.119000 1 1.000000 2 -3.000000
22 1 493.214000 -3115.500000 391.647000 1 1.000000 2 0.000000
23 3 477.586000 -3084.560000 386.598000 1 1.000000 2 0.000000
24 2 529.030000 -3087.390000 379.519000 1 1.000000 2 -3.000000
25 2 525.123000 -3082.970000 387.493000 1 1.000000 1 -3.000000
26 2 520.946000 -3075.640000 392.496000 1 1.000000 1 -3.000000
27 2 516.730000 -3067.240000 395.470000 1 1.000000 1 -3.000000
28 2 514.385000 -3057.620000 396.339000 1 1.000000 1 -3.000000
29 2 510.803000 -3048.640000 398.895000 1 1.000000 1 -3.000000
30 2 512.015000 -3039.870000 403.291000 1 1.000000 1 -3.000000
31 2 515.081000 -3030.850000 406.090000 1 1.000000 1 -3.000000
32 2 518.842000 -3021.630000 404.523000 1 1.000000 1 -3.000000
33 2 522.618000 -3012.490000 402.984000 1 1.000000 1 -3.000000
34 2 522.392000 -3002.640000 403.742000 1 1.000000 1 -3.000000
35 2 525.626000 -2993.350000 402.245000 1 1.000000 1 -3.000000
36 2 529.454000 -2984.720000 399.088000 1 1.000000 1 -3.000000
37 2 535.393000 -2978.050000 394.895000 1 1.000000 1 -3.000000
38 2 537.873000 -2970.800000 388.650000 1 1.000000 1 -3.000000
39 2 537.138000 -2963.430000 382.060000 1 1.000000 1 -3.000000
40 2 540.141000 -2958.020000 374.371000 1 1.000000 1 -3.000000
41 2 543.552000 -2954.060000 366.066000 1 1.000000 1 -3.000000
42 2 546.103000 -2948.330000 358.575000 1 1.000000 1 -3.000000
43 2 548.112000 -2941.480000 351.737000 1 1.000000 1 -3.000000
44 2 550.497000 -2934.770000 344.837000 1 1.000000 1 -3.000000
45 2 549.595000 -2928.310000 337.328000 1 1.000000 1 -3.000000
46 2 550.527000 -2922.880000 329.162000 1 1.000000 1 -3.000000
47 2 552.884000 -2918.210000 320.863000 1 1.000000 1 -3.000000
48 2 554.747000 -2910.890000 314.530000 1 1.000000 3 -3.000000
49 1 597.386000 -2928.720000 305.293000 1 1.000000 3 0.000000
50 3 593.138000 -2935.160000 339.459000 1 1.000000 3 0.000000
51 2 637.774000 -2949.900000 317.448000 1 1.000000 3 -3.000000
52 2 635.526000 -2950.910000 327.117000 1 1.000000 1 -3.000000
53 2 632.094000 -2954.810000 335.461000 1 1.000000 1 -3.000000
54 2 627.665000 -2956.500000 344.145000 1 1.000000 1 -3.000000
55 2 624.964000 -2960.980000 352.605000 1 1.000000 1 -3.000000
56 2 619.277000 -2961.090000 360.692000 1 1.000000 1 -3.000000
57 2 612.629000 -2961.380000 368.050000 1 1.000000 1 -3.000000
58 2 605.311000 -2960.890000 374.606000 1 1.000000 1 -3.000000
59 2 599.557000 -2961.780000 382.587000 1 1.000000 1 -3.000000
60 2 596.029000 -2962.460000 391.714000 1 1.000000 1 -3.000000
61 2 595.602000 -2965.380000 401.133000 1 1.000000 1 -3.000000
62 2 598.130000 -2971.380000 408.651000 1 1.000000 1 -3.000000
63 2 602.934000 -2975.590000 416.074000 1 1.000000 1 -3.000000
64 2 609.416000 -2980.350000 421.781000 1 1.000000 1 -3.000000
65 2 616.596000 -2985.800000 426.059000 1 1.000000 1 -3.000000
66 2 621.134000 -2993.430000 430.268000 1 1.000000 1 -3.000000
67 2 625.067000 -3000.480000 436.033000 1 1.000000 1 -3.000000
68 2 626.342000 -3009.700000 439.543000 1 1.000000 1 -3.000000
69 2 628.434000 -3017.720000 444.860000 1 1.000000 1 -3.000000
70 2 631.903000 -3026.470000 447.634000 1 1.000000 1 -3.000000
71 2 636.582000 -3034.500000 450.994000 1 1.000000 1 -3.000000
72 2 636.835000 -3044.060000 454.155000 1 1.000000 1 -3.000000
73 2 634.067000 -3052.700000 457.891000 1 1.000000 1 -3.000000
74 2 627.484000 -3058.980000 461.500000 1 1.000000 1 -3.000000
75 2 621.716000 -3063.400000 468.125000 1 1.000000 4 -3.000000
76 1 630.178000 -3049.920000 512.578000 1 1.000000 4 0.000000
77 3 633.839000 -3020.210000 494.461000 1 1.000000 4 0.000000
78 2 641.380000 -3018.180000 545.595000 1 1.000000 4 -3.000000
79 2 649.568000 -3015.050000 540.855000 1 1.000000 1 -3.000000
80 2 656.546000 -3010.610000 535.352000 1 1.000000 1 -3.000000
81 2 664.168000 -3007.400000 529.950000 1 1.000000 1 -3.000000
82 2 670.847000 -3003.900000 523.341000 1 1.000000 1 -3.000000
83 2 676.269000 -3002.430000 515.102000 1 1.000000 1 -3.000000
84 2 683.168000 -3000.840000 508.356000 1 1.000000 1 -3.000000
85 2 690.759000 -2999.560000 502.248000 1 1.000000 1 -3.000000
86 2 697.374000 -3000.350000 494.922000 1 1.000000 1 -3.000000
87 2 705.801000 -2998.500000 490.102000 1 1.000000 1 -3.000000
88 2 714.539000 -2996.720000 485.810000 1 1.000000 1 -3.000000
89 2 723.278000 -2994.300000 481.732000 1 1.000000 1 -3.000000
90 2 731.096000 -2991.100000 476.657000 1 1.000000 1 -3.000000
91 2 735.231000 -2987.850000 468.400000 1 1.000000 1 -3.000000
92 2 738.030000 -2979.160000 464.295000 1 1.000000 1 -3.000000
93 2 735.273000 -2971.620000 458.673000 1 1.000000 1 -3.000000
94 2 730.560000 -2963.640000 455.139000 1 1.000000 1 -3.000000
95 2 728.529000 -2954.650000 451.612000 1 1.000000 1 -3.000000
96 2 727.599000 -2945.350000 448.285000 1 1.000000 1 -3.000000
97 2 725.948000 -2936.650000 443.876000 1 1.000000 1 -3.000000
98 2 722.004000 -2927.880000 441.341000 1 1.000000 1 -3.000000
99 2 717.642000 -2919.060000 440.352000 1 1.000000 1 -3.000000
100 2 713.424000 -2910.480000 437.550000 1 1.000000 1 -3.000000
101 2 712.738000 -2901.110000 434.641000 1 1.000000 1 -3.000000
102 2 714.807000 -2892.000000 431.169000 1 1.000000 5 -3.000000
103 1 670.375000 -2884.470000 445.015000 1 1.000000 5 0.000000
104 3 680.489000 -2911.350000 464.978000 1 1.000000 5 0.000000
105 2 631.881000 -2893.930000 470.650000 1 1.000000 5 -3.000000
106 2 636.201000 -2902.440000 473.670000 1 1.000000 1 -3.000000
107 2 642.716000 -2908.120000 478.499000 1 1.000000 1 -3.000000
108 2 648.655000 -2912.800000 485.007000 1 1.000000 1 -3.000000
109 2 654.295000 -2916.950000 491.870000 1 1.000000 1 -3.000000
110 2 658.789000 -2921.990000 499.229000 1 1.000000 1 -3.000000
111 2 662.211000 -2927.100000 506.971000 1 1.000000 1 -3.000000
112 2 668.422000 -2931.580000 513.224000 1 1.000000 1 -3.000000
113 2 672.020000 -2937.140000 520.525000 1 1.000000 1 -3.000000
114 2 674.205000 -2940.170000 529.758000 1 1.000000 1 -3.000000
115 2 678.269000 -2944.790000 537.401000 1 1.000000 1 -3.000000
116 2 679.608000 -2946.420000 547.095000 1 1.000000 1 -3.000000
117 2 682.070000 -2945.810000 556.640000 1 1.000000 1 -3.000000
118 2 683.538000 -2945.210000 566.425000 1 1.000000 1 -3.000000
119 2 685.232000 -2941.290000 575.481000 1 1.000000 1 -3.000000
120 2 689.086000 -2938.380000 584.094000 1 1.000000 1 -3.000000
121 2 692.781000 -2938.180000 593.318000 1 1.000000 1 -3.000000
122 2 694.693000 -2939.640000 602.998000 1 1.000000 1 -3.000000
123 2 695.893000 -2944.110000 611.781000 1 1.000000 1 -3.000000
124 2 696.440000 -2948.120000 620.710000 1 1.000000 1 -3.000000
125 2 697.894000 -2952.770000 629.294000 1 1.000000 1 -3.000000
126 2 698.321000 -2958.730000 637.182000 1 1.000000 1 -3.000000
127 2 696.287000 -2965.870000 643.792000 1 1.000000 1 -3.000000
128 2 693.418000 -2970.560000 651.975000 1 1.000000 1 -3.000000
129 2 688.334000 -2976.610000 657.931000 1 1.000000 6 -3.000000
130 1 702.013000 -2960.540000 700.062000 1 1.000000 6 0.000000
131 3 705.911000 -2932.650000 679.391000 1 1.000000 6 0.000000
132 2 718.469000 -2927.470000 729.423000 1 1.000000 6 -3.000000
133 2 721.317000 -2919.840000 724.020000 1 1.000000 1 -3.000000
134 2 725.182000 -2911.580000 719.926000 1 1.000000 1 -3.000000
135 2 728.986000 -2904.680000 713.825000 1 1.000000 1 -3.000000
136 2 729.500000 -2898.660000 705.900000 1 1.000000 1 -3.000000
137 2 731.472000 -2890.770000 700.360000 1 1.000000 1 -3.000000
138 2 730.307000 -2884.130000 693.108000 1 1.000000 1 -3.000000
139 2 726.167000 -2879.000000 685.757000 1 1.000000 1 -3.000000
140 2 721.563000 -2872.430000 680.058000 1 1.000000 1 -3.000000
141 2 719.789000 -2869.060000 670.887000 1 1.000000 1 -3.000000
142 2 717.846000 -2869.460000 661.165000 1 1.000000 1 -3.000000
143 2 714.389000 -2868.330000 651.910000 1 1.000000 1 -3.000000
144 2 708.951000 -2865.340000 644.286000 1 1.000000 1 -3.000000
145 2 706.088000 -2863.090000 634.950000 1 1.000000 1 -3.000000
146 2 702.380000 -2861.540000 625.980000 1 1.000000 1 -3.000000
147 2 698.992000 -2858.350000 617.433000 1 1.000000 1 -3.000000
148 2 695.230000 -2853.910000 609.535000 1 1.000000 1 -3.000000
149 2 695.184000 -2847.060000 602.447000 1 1.000000 1 -3.000000
150 2 694.362000 -2840.620000 594.943000 1 1.000000 1 -3.000000
151 2 692.496000 -2833.370000 588.476000 1 1.000000 1 -3.000000
152 2 689.364000 -2826.930000 581.449000 1 1.000000 1 -3.000000
153 2 686.541000 -2820.180000 574.861000 1 1.000000 1 -3.000000
154 2 681.592000 -2813.750000 569.141000 1 1.000000 1 -3.000000
155 2 677.137000 -2807.280000 563.289000 1 1.000000 1 -3.000000
156 2 673.942000 -2799.700000 557.888000 1 1.000000 7 -3.000000
157 1 673.520000 -2763.960000 588.662000 1 1.000000 7 0.000000
158 3 693.643000 -2788.060000 604.440000 1 1.000000 7 0.000000
159 2 683.028000 -2744.280000 630.509000 1 1.000000 7 -3.000000
160 2 691.860000 -2748.530000 631.763000 1 1.000000 1 -3.000000
161 2 700.285000 -2753.210000 633.903000 1 1.000000 1 -3.000000
162 2 709.464000 -2756.630000 634.697000 1 1.000000 1 -3.000000
163 2 716.967000 -2762.810000 634.846000 1 1.000000 1 -3.000000
164 2 721.766000 -2771.320000 636.210000 1 1.000000 1 -3.000000
165 2 727.913000 -2778.860000 638.359000 1 1.000000 1 -3.000000
166 2 736.816000 -2782.830000 639.802000 1 1.000000 1 -3.000000
167 2 746.138000 -2785.670000 638.518000 1 1.000000 1 -3.000000
168 2 755.891000 -2785.440000 636.384000 1 1.000000 1 -3.000000
169 2 765.522000 -2783.520000 634.855000 1 1.000000 1 -3.000000
170 2 775.346000 -2782.840000 634.562000 1 1.000000 1 -3.000000
171 2 785.085000 -2784.130000 635.361000 1 1.000000 1 -3.000000
172 2 794.685000 -2786.180000 633.787000 1 1.000000 1 -3.000000
173 2 802.823000 -2791.800000 633.731000 1 1.000000 1 -3.000000
174 2 812.243000 -2794.750000 633.847000 1 1.000000 1 -3.000000
175 2 822.137000 -2795.200000 632.779000 1 1.000000 1 -3.000000
176 2 831.799000 -2796.280000 630.730000 1 1.000000 1 -3.000000
177 2 841.278000 -2799.180000 630.453000 1 1.000000 1 -3.000000
178 2 850.835000 -2800.400000 632.740000 1 1.000000 1 -3.000000
179 2 860.723000 -2799.800000 632.394000 1 1.000000 1 -3.000000
180 2 870.419000 -2798.360000 632.843000 1 1.000000 1 -3.000000
181 2 880.004000 -2795.570000 632.223000 1 1.000000 1 -3.000000
182 2 889.427000 -2792.410000 631.519000 1 1.000000 1 -3.000000
183 2 899.081000 -2790.200000 631.593000 1 1.000000 8 -3.000000
184 1 909.450000 -2746.130000 644.404000 1 1.000000 8 0.000000
185 3 879.844000 -2742.310000 626.286000 1 1.000000 8 0.000000
186 2 901.865000 -2699.630000 646.204000 1 1.000000 8 -3.000000
187 2 896.765000 -2703.160000 638.379000 1 1.000000 1 -3.000000
188 2 888.228000 -2705.130000 633.865000 1 1.000000 1 -3.000000
189 2 879.248000 -2706.700000 629.932000 1 1.000000 1 -3.000000
190 2 870.188000 -2704.360000 626.843000 1 1.000000 1 -3.000000
191 2 860.276000 -2704.120000 625.446000 1 1.000000 1 -3.000000
192 2 851.155000 -2705.380000 621.992000 1 1.000000 1 -3.000000
193 2 842.222000 -2709.000000 619.369000 1 1.000000 1 -3.000000
194 2 833.912000 -2713.170000 615.887000 1 1.000000 1 -3.000000
195 2 825.266000 -2715.340000 611.515000 1 1.000000 1 -3.000000
196 2 816.590000 -2717.070000 606.869000 1 1.000000 1 -3.000000
197 2 808.612000 -2716.550000 601.003000 1 1.000000 1 -3.000000
198 2 799.748000 -2716.780000 596.772000 1 1.000000 1 -3.000000
199 2 790.694000 -2718.680000 593.118000 1 1.000000 1 -3.000000
200 2 782.012000 -2719.090000 588.265000 1 1.000000 1 -3.000000
201 2 774.104000 -2721.540000 582.920000 1 1.000000 1 -3.000000
202 2 766.517000 -2723.430000 576.885000 1 1.000000 1 -3.000000
203 2 759.060000 -2725.970000 571.005000 1 1.000000 1 -3.000000
204 2 752.176000 -2728.810000 564.327000 1 1.000000 1 -3.000000
205 2 745.109000 -2732.480000 558.423000 1 1.000000 1 -3.000000
206 2 736.806000 -2735.020000 553.768000 1 1.000000 1 -3.000000
207 2 728.587000 -2738.510000 549.283000 1 1.000000 1 -3.000000
208 2 720.743000 -2741.880000 544.310000 1 1.000000 1 -3.000000
209 2 713.668000 -2743.400000 537.533000 1 1.000000 1 -3.000000
210 2 705.840000 -2746.390000 532.207000 1 1.000000 9 -3.000000
211 1 732.399000 -2761.810000 496.411000 1 1.000000 9 0.000000
212 3 753.578000 -2739.710000 513.234000 1 1.000000 9 0.000000
213 2 773.281000 -2766.480000 473.313000 1 1.000000 9 -3.000000
214 2 778.974000 -2762.600000 480.489000 1 1.000000 1 -3.000000
215 2 783.436000 -2759.500000 488.760000 1 1.000000 1 -3.000000
216 2 788.757000 -2755.960000 496.251000 1 1.000000 1 -3.000000
217 2 790.959000 -2752.080000 505.013000 1 1.000000 1 -3.000000
218 2 792.952000 -2746.090000 512.743000 1 1.000000 1 -3.000000
219 2 797.345000 -2742.900000 521.056000 1 1.000000 1 -3.000000
220 2 801.387000 -2737.070000 527.871000 1 1.000000 1 -3.000000
221 2 804.173000 -2727.710000 529.860000 1 1.000000 1 -3.000000
222 2 808.432000 -2719.160000 531.879000 1 1.000000 1 -3.000000
223 2 812.371000 -2710.160000 533.051000 1 1.000000 1 -3.000000
224 2 810.247000 -2700.660000 531.817000 1 1.000000 1 -3.000000
225 2 807.848000 -2691.570000 535.169000 1 1.000000 1 -3.000000
226 2 806.196000 -2681.990000 537.350000 1 1.000000 1 -3.000000
227 2 804.840000 -2673.830000 542.694000 1 1.000000 1 -3.000000
228 2 805.147000 -2665.440000 547.712000 1 1.000000 1 -3.000000
229 2 806.190000 -2657.910000 554.096000 1 1.000000 1 -3.000000
230 2 810.414000 -2652.240000 560.926000 1 1.000000 1 -3.000000
231 2 813.368000 -2645.250000 567.228000 1 1.000000 1 -3.000000
232 2 818.002000 -2638.860000 573.150000 1 1.000000 1 -3.000000
233 2 824.314000 -2632.540000 577.703000 1 1.000000 1 -3.000000
234 2 831.395000 -2626.830000 581.451000 1 1.000000 1 -3.000000
235 2 838.731000 -2620.660000 583.928000 1 1.000000 1 -3.000000
236 2 847.359000 -2619.060000 588.405000 1 1.000000 1 -3.000000
237 2 855.254000 -2616.630000 593.869000 1 1.000000 10 -3.000000
238 1 885.740000 -2648.320000 576.798000 1 1.000000 10 0.000000
239 3 856.362000 -2655.310000 559.270000 1 1.000000 10 0.000000
240 2 898.237000 -2684.170000 548.796000 1 1.000000 10 -3.000000
241 2 889.891000 -2680.390000 545.056000 1 1.000000 1 -3.000000
242 2 883.431000 -2674.430000 540.562000 1 1.000000 1 -3.000000
243 2 878.320000 -2667.580000 535.557000 1 1.000000 1 -3.000000
244 2 872.861000 -2663.110000 528.544000 1 1.000000 1 -3.000000
245 2 868.659000 -2663.610000 519.527000 1 1.000000 1 -3.000000
246 2 862.043000 -2661.340000 512.371000 1 1.000000 1 -3.000000
247 2 856.077000 -2659.480000 504.723000 1 1.000000 1 -3.000000
248 2 850.447000 -2657.690000 496.608000 1 1.000000 1 -3.000000
249 2 842.986000 -2657.970000 490.077000 1 1.000000 1 -3.000000
250 2 838.629000 -2661.160000 481.774000 1 1.000000 1 -3.000000
251 2 834.288000 -2665.050000 473.736000 1 1.000000 1 -3.000000
252 2 830.119000 -2668.900000 465.569000 1 1.000000 1 -3.000000
253 2 827.933000 -2675.030000 458.303000 1 1.000000 1 -3.000000
254 2 825.144000 -2682.260000 452.235000 1 1.000000 1 -3.000000
255 2 823.679000 -2687.850000 444.128000 1 1.000000 1 -3.000000
256 2 820.982000 -2695.260000 437.982000 1 1.000000 1 -3.000000
257 2 818.443000 -2699.690000 429.339000 1 1.000000 1 -3.000000
258 2 817.761000 -2703.750000 420.304000 1 1.000000 1 -3.000000
259 2 815.754000 -2707.940000 411.439000 1 1.000000 1 -3.000000
260 2 813.314000 -2712.730000 403.030000 1 1.000000 1 -3.000000
261 2 808.921000 -2717.880000 395.775000 1 1.000000 1 -3.000000
262 2 805.437000 -2724.210000 389.065000 1 1.000000 1 -3.000000
263 2 801.643000 -2729.230000 381.456000 1 1.000000 1 -3.000000
264 2 800.385000 -2731.870000 371.974000 1 1.000000 11 -3.000000
265 1 811.143000 -2772.900000 392.739000 1 1.000000 11 0.000000
266 3 802.832000 -2752.220000 419.713000 1 1.000000 11 0.000000
267 2 814.660000 -2801.740000 429.938000 1 1.000000 11 -3.000000
268 2 812.281000 -2796.020000 437.615000 1 1.000000 1 -3.000000
269 2 806.451000 -2791.040000 443.787000 1 1.000000 1 -3.000000
270 2 800.230000 -2786.530000 450.034000 1 1.000000 1 -3.000000
271 2 792.908000 -2781.240000 453.817000 1 1.000000 1 -3.000000
272 2 788.063000 -2774.030000 458.656000 1 1.000000 1 -3.000000
273 2 783.244000 -2765.530000 460.783000 1 1.000000 1 -3.000000
274 2 777.133000 -2758.600000 457.330000 1 1.000000 1 -3.000000
275 2 771.978000 -2750.610000 454.553000 1 1.000000 1 -3.000000
276 2 767.496000 -2742.480000 451.364000 1 1.000000 1 -3.000000
277 2 761.600000 -2734.780000 449.249000 1 1.000000 1 -3.000000
278 2 756.653000 -2726.320000 447.580000 1 1.000000 1 -3.000000
279 2 751.360000 -2718.360000 444.644000 1 1.000000 1 -3.000000
280 2 746.767000 -2712.860000 437.692000 1 1.000000 1 -3.000000
281 2 738.859000 -2708.780000 433.454000 1 1.000000 1 -3.000000
282 2 731.779000 -2704.960000 427.817000 1 1.000000 1 -3.000000
283 2 729.130000 -2703.440000 418.321000 1 1.000000 1 -3.000000
284 2 726.829000 -2701.830000 408.811000 1 1.000000 1 -3.000000
285 2 724.605000 -2705.080000 399.759000 1 1.000000 1 -3.000000
286 2 722.426000 -2706.730000 390.259000 1 1.000000 1 -3.000000
287 2 719.804000 -2709.720000 381.086000 1 1.000000 1 -3.000000
288 2 720.546000 -2709.940000 371.197000 1 1.000000 1 -3.000000
289 2 719.814000 -2709.070000 361.298000 1 1.000000 1 -3.000000
290 2 721.367000 -2708.640000 351.531000 1 1.000000 1 -3.000000
291 2 724.897000 -2708.610000 342.137000 1 1.000000 12 -3.000000
292 1 730.237000 -2746.980000 315.224000 1 1.000000 12 0.000000
293 3 709.361000 -2758.060000 340.829000 1 1.000000 12 0.000000
294 2 720.130000 -2791.270000 302.419000 1 1.000000 12 -3.000000
295 2 712.090000 -2790.560000 308.100000 1 1.000000 1 -3.000000
296 2 703.598000 -2791.830000 312.922000 1 1.000000 1 -3.000000
297 2 697.056000 -2795.350000 319.417000 1 1.000000 1 -3.000000
298 2 690.289000 -2796.440000 326.433000 1 1.000000 1 -3.000000
299 2 682.512000 -2796.020000 332.605000 1 1.000000 1 -3.000000
300 2 673.684000 -2793.620000 336.229000 1 1.000000 1 -3.000000
301 2 666.096000 -2790.270000 341.758000 1 1.000000 1 -3.000000
302 2 656.594000 -2788.700000 343.928000 1 1.000000 1 -3.000000
303 2 647.055000 -2786.720000 346.113000 1 1.000000 1 -3.000000
304 2 637.743000 -2789.230000 348.019000 1 1.000000 1 -3.000000
305 2 628.855000 -2790.800000 351.979000 1 1.000000 1 -3.000000
306 2 619.959000 -2793.620000 355.339000 1 1.000000 1 -3.000000
307 2 611.918000 -2797.790000 359.227000 1 1.000000 1 -3.000000
308 2 606.005000 -2803.270000 364.700000 1 1.000000 1 -3.000000
309 2 600.391000 -2806.630000 372.236000 1 1.000000 1 -3.000000
310 2 594.176000 -2810.300000 379.143000 1 1.000000 1 -3.000000
311 2 586.809000 -2815.850000 382.614000 1 1.000000 1 -3.000000
312 2 580.281000 -2822.630000 385.878000 1 1.000000 1 -3.000000
313 2 575.050000 -2829.930000 390.469000 1 1.000000 1 -3.000000
314 2 567.601000 -2834.780000 394.849000 1 1.000000 1 -3.000000
315 2 559.030000 -2839.490000 396.587000 1 1.000000 1 -3.000000
316 2 549.553000 -2842.500000 397.269000 1 1.000000 1 -3.000000
317 2 541.030000 -2846.280000 400.308000 1 1.000000 1 -3.000000
318 2 533.537000 -2852.390000 402.757000 1 1.000000 13 -3.000000
319 1 523.182000 -2824.230000 439.070000 1 1.000000 13 0.000000
320 3 537.717000 -2802.390000 415.915000 1 1.000000 13 0.000000
321 2 521.719000 -2782.600000 461.226000 1 1.000000 13 -3.000000
322 2 519.660000 -2778.680000 452.285000 1 1.000000 1 -3.000000
323 2 517.174000 -2778.640000 442.730000 1 1.000000 1 -3.000000
324 2 512.795000 -2777.690000 433.826000 1 1.000000 1 -3.000000
325 2 506.866000 -2774.750000 426.447000 1 1.000000 1 -3.000000
326 2 503.490000 -2768.630000 419.546000 1 1.000000 1 -3.000000
327 2 500.121000 -2761.460000 413.572000 1 1.000000 1 -3.000000
328 2 497.478000 -2752.930000 409.261000 1 1.000000 1 -3.000000
329 2 494.183000 -2745.210000 404.157000 1 1.000000 1 -3.000000
330 2 490.551000 -2738.390000 397.876000 1 1.000000 1 -3.000000
331 2 484.445000 -2731.940000 393.587000 1 1.000000 1 -3.000000
332 2 477.706000 -2726.380000 388.932000 1 1.000000 1 -3.000000
333 2 468.983000 -2723.570000 384.935000 1 1.000000 1 -3.000000
334 2 461.406000 -2719.620000 379.834000 1 1.000000 1 -3.000000
335 2 453.695000 -2716.930000 374.259000 1 1.000000 1 -3.000000
336 2 448.065000 -2716.970000 366.167000 1 1.000000 1 -3.000000
337 2 440.946000 -2715.370000 359.530000 1 1.000000 1 -3.000000
338 2 432.294000 -2712.010000 355.872000 1 1.000000 1 -3.000000
339 2 425.894000 -2705.520000 352.037000 1 1.000000 1 -3.000000
340 2 418.383000 -2700.300000 348.383000 1 1.000000 1 -3.000000
341 2 410.235000 -2699.880000 342.881000 1 1.000000 1 -3.000000
342 2 400.700000 -2701.520000 340.462000 1 1.000000 1 -3.000000
343 2 391.653000 -2703.750000 337.073000 1 1.000000 1 -3.000000
344 2 381.863000 -2705.770000 336.741000 1 1.000000 1 -3.000000
345 2 372.753000 -2709.220000 334.956000 1 1.000000 14 -3.000000
346 1 366.859000 -2720.170000 380.518000 1 1.000000 14 0.000000
347 3 393.566000 -2697.630000 381.195000 1 1.000000 14 0.000000
348 2 374.607000 -2714.160000 426.648000 1 1.000000 14 -3.000000
349 2 380.169000 -2706.260000 428.790000 1 1.000000 1 -3.000000
350 2 384.001000 -2697.140000 429.038000 1 1.000000 1 -3.000000
351 2 388.845000 -2688.830000 426.809000 1 1.000000 1 -3.000000
352 2 395.313000 -2682.060000 423.870000 1 1.000000 1 -3.000000
353 2 403.040000 -2676.640000 420.527000 1 1.000000 1 -3.000000
354 2 409.339000 -2671.850000 414.693000 1 1.000000 1 -3.000000
355 2 414.328000 -2666.500000 408.078000 1 1.000000 1 -3.000000
356 2 417.271000 -2660.010000 401.168000 1 1.000000 1 -3.000000
357 2 422.237000 -2652.930000 396.254000 1 1.000000 1 -3.000000
358 2 425.945000 -2645.450000 390.888000 1 1.000000 1 -3.000000
359 2 425.530000 -2638.410000 384.092000 1 1.000000 1 -3.000000
360 2 424.842000 -2630.100000 378.666000 1 1.000000 1 -3.000000
361 2 424.386000 -2620.700000 375.461000 1 1.000000 1 -3.000000
362 2 424.397000 -2610.750000 375.123000 1 1.000000 1 -3.000000
363 2 423.259000 -2600.900000 376.050000 1 1.000000 1 -3.000000
364 2 423.041000 -2593.290000 382.512000 1 1.000000 1 -3.000000
365 2 419.041000 -2587.350000 389.423000 1 1.000000 1 -3.000000
366 2 416.480000 -2582.220000 397.445000 1 1.000000 1 -3.000000
367 2 412.493000 -2580.320000 406.271000 1 1.000000 1 -3.000000
368 2 408.252000 -2579.350000 415.178000 1 1.000000 1 -3.000000
369 2 406.764000 -2578.170000 424.852000 1 1.000000 1 -3.000000
370 2 403.995000 -2575.590000 433.891000 1 1.000000 1 -3.000000
371 2 399.791000 -2570.020000 440.928000 1 1.000000 1 -3.000000
372 2 394.721000 -2562.320000 444.151000 1 1.000000 15 -3.000000
373 1 413.492000 -2572.210000 486.298000 1 1.000000 15 0.000000
374 3 427.195000 -2596.750000 465.533000 1 1.000000 15 0.000000
375 2 438.308000 -2598.920000 516.261000 1 1.000000 15 -3.000000
376 2 444.920000 -2601.520000 509.333000 1 1.000000 1 -3.000000
377 2 451.186000 -2603.350000 501.838000 1 1.000000 1 -3.000000
378 2 457.063000 -2607.670000 495.121000 1 1.000000 1 -3.000000
379 2 462.219000 -2611.010000 487.444000 1 1.000000 1 -3.000000
380 2 466.560000 -2611.450000 478.597000 1 1.000000 1 -3.000000
381 2 468.824000 -2610.910000 468.983000 1 1.000000 1 -3.000000
382 2 474.660000 -2611.440000 461.024000 1 1.000000 1 -3.000000
383 2 479.199000 -2610.870000 452.245000 1 1.000000 1 -3.000000
384 2 481.951000 -2607.290000 443.469000 1 1.000000 1 -3.000000
385 2 485.828000 -2605.560000 434.513000 1 1.000000 1 -3.000000
386 2 491.110000 -2603.530000 426.307000 1 1.000000 1 -3.000000
387 2 494.845000 -2599.980000 417.883000 1 1.000000 1 -3.000000
388 2 497.346000 -2596.070000 409.144000 1 1.000000 1 -3.000000
389 2 498.117000 -2592.550000 399.971000 1 1.000000 1 -3.000000
390 2 497.332000 -2588.010000 391.150000 1 1.000000 1 -3.000000
391 2 497.085000 -2581.150000 384.083000 1 1.000000 1 -3.000000
392 2 499.831000 -2575.090000 376.651000 1 1.000000 1 -3.000000
393 2 503.475000 -2568.290000 370.387000 1 1.000000 1 -3.000000
394 2 504.061000 -2560.500000 364.437000 1 1.000000 1 -3.000000
395 2 507.576000 -2553.840000 358.096000 1 1.000000 1 -3.000000
396 2 512.999000 -2546.770000 353.624000 1 1.000000 1 -3.000000
397 2 518.002000 -2540.930000 347.493000 1 1.000000 1 -3.000000
398 2 523.546000 -2534.900000 341.867000 1 1.000000 1 -3.000000
399 2 529.328000 -2529.220000 335.998000 1 1.000000 16 -3.000000
400 1 571.213000 -2544.280000 351.479000 1 1.000000 16 0.000000
401 3 548.526000 -2565.690000 367.225000 1 1.000000 16 0.000000
402 2 598.988000 -2571.950000 377.647000 1 1.000000 16 -3.000000
403 2 592.492000 -2575.600000 384.032000 1 1.000000 1 -3.000000
404 2 589.071000 -2577.830000 393.134000 1 1.000000 1 -3.000000
405 2 590.776000 -2578.590000 402.958000 1 1.000000 1 -3.000000
406 2 596.138000 -2578.360000 411.401000 1 1.000000 1 -3.000000
407 2 602.690000 -2575.030000 417.953000 1 1.000000 1 -3.000000
408 2 609.120000 -2573.640000 425.341000 1 1.000000 1 -3.000000
409 2 615.082000 -2571.330000 432.962000 1 1.000000 1 -3.000000
410 2 621.270000 -2567.120000 439.405000 1 1.000000 1 -3.000000
411 2 625.844000 -2561.150000 445.664000 1 1.000000 1 -3.000000
412 2 629.102000 -2554.420000 452.174000 1 1.000000 1 -3.000000
413 2 631.567000 -2545.890000 456.819000 1 1.000000 1 -3.000000
414 2 633.200000 -2537.680000 461.998000 1 1.000000 1 -3.000000
415 2 631.424000 -2530.290000 468.442000 1 1.000000 1 -3.000000
416 2 628.837000 -2522.160000 473.438000 1 1.000000 1 -3.000000
417 2 623.808000 -2515.600000 478.865000 1 1.000000 1 -3.000000
418 2 621.934000 -2509.050000 486.023000 1 1.000000 1 -3.000000
419 2 621.788000 -2503.020000 493.857000 1 1.000000 1 -3.000000
420 2 617.703000 -2498.260000 501.610000 1 1.000000 1 -3.000000
421 2 614.099000 -2493.150000 509.235000 1 1.000000 1 -3.000000
422 2 610.289000 -2485.460000 514.315000 1 1.000000 1 -3.000000
423 2 607.497000 -2479.540000 521.842000 1 1.000000 1 -3.000000
424 2 607.813000 -2473.620000 529.785000 1 1.000000 1 -3.000000
425 2 609.826000 -2468.190000 537.623000 1 1.000000 1 -3.000000
426 2 605.666000 -2460.510000 542.252000 1 1.000000 17 -3.000000
427 1 634.336000 -2433.990000 515.793000 1 1.000000 17 0.000000
428 3 629.978000 -2462.720000 496.475000 1 1.000000 17 0.000000
429 2 661.724000 -2425.740000 478.354000 1 1.000000 17 -3.000000
430 2 656.712000 -2432.840000 473.843000 1 1.000000 1 -3.000000
431 2 652.712000 -2436.660000 465.659000 1 1.000000 1 -3.000000
432 2 647.333000 -2442.060000 459.395000 1 1.000000 1 -3.000000
433 2 640.735000 -2445.200000 452.526000 1 1.000000 1 -3.000000
434 2 634.854000 -2448.660000 445.379000 1 1.000000 1 -3.000000
435 2 628.986000 -2451.650000 438.197000 1 1.000000 1 -3.000000
436 2 622.177000 -2454.840000 431.752000 1 1.000000 1 -3.000000
437 2 616.367000 -2455.720000 423.924000 1 1.000000 1 -3.000000
438 2 608.027000 -2457.810000 419.015000 1 1.000000 1 -3.000000
439 2 598.483000 -2457.380000 416.703000 1 1.000000 1 -3.000000
440 2 589.283000 -2455.130000 413.938000 1 1.000000 1 -3.000000
441 2 580.599000 -2453.220000 409.581000 1 1.000000 1 -3.000000
442 2 572.996000 -2449.420000 404.795000 1 1.000000 1 -3.000000
443 2 564.088000 -2447.260000 401.143000 1 1.000000 1 -3.000000
444 2 554.740000 -2446.650000 397.892000 1 1.000000 1 -3.000000
445 2 544.837000 -2445.500000 398.155000 1 1.000000 1 -3.000000
446 2 535.097000 -2446.380000 399.491000 1 1.000000 1 -3.000000
447 2 525.687000 -2448.860000 400.618000 1 1.000000 1 -3.000000
448 2 516.265000 -2451.770000 400.148000 1 1.000000 1 -3.000000
449 2 506.403000 -2450.620000 400.816000 1 1.000000 1 -3.000000
450 2 496.922000 -2450.490000 403.406000 1 1.000000 1 -3.000000
451 2 488.124000 -2448.360000 407.614000 1 1.000000 1 -3.000000
452 2 478.450000 -2448.510000 409.833000 1 1.000000 1 -3.000000
453 2 468.491000 -2449.970000 410.746000 1 1.000000 18 -3.000000
454 1 448.701000 -2456.260000 368.370000 1 1.000000 18 0.000000
455 3 482.806000 -2455.330000 361.033000 1 1.000000 18 0.000000
456 2 450.016000 -2466.390000 322.313000 1 1.000000 18 -3.000000
457 2 459.273000 -2469.420000 321.239000 1 1.000000 1 -3.000000
458 2 467.791000 -2474.080000 322.679000 1 1.000000 1 -3.000000
459 2 477.349000 -2476.700000 321.754000 1 1.000000 1 -3.000000
460 2 487.032000 -2477.470000 323.620000 1 1.000000 1 -3.000000
461 2 496.730000 -2477.390000 325.836000 1 1.000000 1 -3.000000
462 2 506.275000 -2476.330000 328.326000 1 1.000000 1 -3.000000
463 2 515.353000 -2475.990000 332.271000 1 1.000000 1 -3.000000
464 2 523.609000 -2476.940000 337.766000 1 1.000000 1 -3.000000
465 2 531.720000 -2474.560000 342.870000 1 1.000000 1 -3.000000