LAMMPS data file

4067 atoms
4067 ellipsoids
4516 bonds
8882 angles
0 dihedrals

3 atom types
5 bond types
12 angle types
0 dihedral types

-4631.092947 4670.465898 xlo xhi
-4631.092947 4670.465898 ylo yhi
-4631.092947 4670.465898 zlo zhi

Masses

1 196016.000000
2 1950.000000
3 19500.000000

Atoms

1 2 478.543000 -2814.640000 649.508000 1 1.000000 1 -3.000000
2 2 487.135000 -2818.810000 646.510000 1 1.000000 1 -3.000000
3 2 495.608000 -2819.650000 641.463000 1 1.000000 1 -3.000000
4 2 504.361000 -2818.580000 636.910000 1 1.000000 1 -3.000000
5 2 512.152000 -2815.810000 631.274000 1 1.000000 1 -3.000000
6 2 519.745000 -2814.090000 625.072000 1 1.000000 1 -3.000000
7 2 528.665000 -2814.030000 620.930000 1 1.000000 1 -3.000000
8 2 535.846000 -2813.730000 614.034000 1 1.000000 1 -3.000000
9 2 544.158000 -2811.980000 608.877000 1 1.000000 1 -3.000000
10 2 552.425000 -2810.720000 603.742000 1 1.000000 1 -3.000000
11 2 559.790000 -2809.770000 597.347000 1 1.000000 1 -3.000000
12 2 566.586000 -2812.040000 590.603000 1 1.000000 1 -3.000000
13 2 574.164000 -2817.090000 586.743000 1 1.000000 1 -3.000000
14 2 581.658000 -2822.680000 583.722000 1 1.000000 1 -3.000000
15 2 586.758000 -2829.920000 579.428000 1 1.000000 1 -3.000000
16 2 588.098000 -2837.730000 573.463000 1 1.000000 1 -3.000000
17 2 586.421000 -2845.610000 567.691000 1 1.000000 1 -3.000000
18 2 584.305000 -2853.260000 561.853000 1 1.000000 1 -3.000000
19 2 582.388000 -2860.810000 555.631000 1 1.000000 1 -3.000000
20 2 579.857000 -2867.140000 548.430000 1 1.000000 1 -3.000000
21 2 577.403000 -2872.320000 540.434000 1 1.000000 2 -3.000000
22 1 556.259000 -2836.350000 518.475000 1 1.000000 2 0.000000
23 3 584.596000 -2821.460000 532.668000 1 1.000000 2 0.000000
24 2 553.348000 -2791.530000 503.849000 1 1.000000 2 -3.000000
25 2 559.025000 -2788.540000 511.483000 1 1.000000 1 -3.000000
26 2 566.936000 -2784.530000 515.739000 1 1.000000 1 -3.000000
27 2 575.471000 -2780.430000 518.789000 1 1.000000 1 -3.000000
28 2 584.171000 -2780.160000 523.580000 1 1.000000 1 -3.000000
29 2 592.746000 -2778.770000 528.167000 1 1.000000 1 -3.000000
30 2 601.554000 -2780.790000 532.500000 1 1.000000 1 -3.000000
31 2 609.070000 -2785.310000 536.961000 1 1.000000 1 -3.000000
32 2 615.297000 -2788.300000 544.136000 1 1.000000 1 -3.000000
33 2 621.507000 -2788.490000 551.906000 1 1.000000 1 -3.000000
34 2 627.286000 -2791.110000 559.446000 1 1.000000 1 -3.000000
35 2 631.097000 -2796.090000 567.085000 1 1.000000 1 -3.000000
36 2 636.308000 -2800.780000 574.204000 1 1.000000 1 -3.000000
37 2 639.352000 -2801.800000 583.601000 1 1.000000 1 -3.000000
38 2 643.664000 -2802.890000 592.409000 1 1.000000 1 -3.000000
39 2 642.873000 -2800.080000 601.930000 1 1.000000 1 -3.000000
40 2 641.158000 -2793.080000 608.551000 1 1.000000 1 -3.000000
41 2 640.306000 -2787.100000 616.416000 1 1.000000 1 -3.000000
42 2 641.138000 -2780.710000 623.924000 1 1.000000 1 -3.000000
43 2 644.959000 -2774.900000 631.210000 1 1.000000 1 -3.000000
44 2 647.902000 -2772.260000 640.322000 1 1.000000 1 -3.000000
45 2 648.666000 -2768.300000 649.447000 1 1.000000 1 -3.000000
46 2 647.350000 -2763.740000 658.134000 1 1.000000 1 -3.000000
47 2 643.603000 -2761.160000 666.902000 1 1.000000 1 -3.000000
48 2 641.068000 -2754.630000 673.934000 1 1.000000 3 -3.000000
49 1 613.022000 -2787.280000 693.374000 1 1.000000 3 0.000000
50 3 623.515000 -2802.410000 663.603000 1 1.000000 3 0.000000
51 2 594.647000 -2830.640000 696.128000 1 1.000000 3 -3.000000
52 2 602.402000 -2835.540000 692.507000 1 1.000000 1 -3.000000
53 2 610.907000 -2838.660000 688.795000 1 1.000000 1 -3.000000
54 2 618.228000 -2842.750000 683.449000 1 1.000000 1 -3.000000
55 2 625.573000 -2848.060000 679.426000 1 1.000000 1 -3.000000
56 2 632.854000 -2853.550000 675.784000 1 1.000000 1 -3.000000
57 2 639.360000 -2860.070000 672.125000 1 1.000000 1 -3.000000
58 2 645.956000 -2866.670000 668.884000 1 1.000000 1 -3.000000
59 2 653.204000 -2873.170000 666.759000 1 1.000000 1 -3.000000
60 2 661.744000 -2878.170000 665.937000 1 1.000000 1 -3.000000
61 2 669.506000 -2884.150000 665.217000 1 1.000000 1 -3.000000
62 2 677.868000 -2889.070000 663.384000 1 1.000000 1 -3.000000
63 2 685.570000 -2894.420000 660.047000 1 1.000000 1 -3.000000
64 2 692.411000 -2899.720000 655.496000 1 1.000000 1 -3.000000
65 2 698.658000 -2904.810000 649.664000 1 1.000000 1 -3.000000
66 2 705.523000 -2906.900000 642.912000 1 1.000000 1 -3.000000
67 2 712.159000 -2908.950000 635.880000 1 1.000000 1 -3.000000
68 2 718.516000 -2909.080000 628.427000 1 1.000000 1 -3.000000
69 2 722.480000 -2911.540000 619.689000 1 1.000000 1 -3.000000
70 2 726.491000 -2915.720000 611.715000 1 1.000000 1 -3.000000
71 2 727.665000 -2921.470000 603.918000 1 1.000000 1 -3.000000
72 2 731.204000 -2925.900000 595.778000 1 1.000000 1 -3.000000
73 2 733.172000 -2930.580000 587.378000 1 1.000000 1 -3.000000
74 2 736.437000 -2938.290000 582.170000 1 1.000000 1 -3.000000
75 2 743.037000 -2942.180000 575.740000 1 1.000000 4 -3.000000
76 1 748.568000 -2984.130000 596.667000 1 1.000000 4 0.000000
77 3 715.008000 -2976.320000 603.147000 1 1.000000 4 0.000000
78 2 734.487000 -3019.740000 624.177000 1 1.000000 4 -3.000000
79 2 727.314000 -3013.800000 627.522000 1 1.000000 1 -3.000000
80 2 719.746000 -3007.520000 628.516000 1 1.000000 1 -3.000000
81 2 711.378000 -3002.260000 628.148000 1 1.000000 1 -3.000000
82 2 701.523000 -3003.630000 628.099000 1 1.000000 1 -3.000000
83 2 691.698000 -3003.210000 628.577000 1 1.000000 1 -3.000000
84 2 683.283000 -2997.660000 628.818000 1 1.000000 1 -3.000000
85 2 676.570000 -2990.450000 630.008000 1 1.000000 1 -3.000000
86 2 670.337000 -2983.450000 633.045000 1 1.000000 1 -3.000000
87 2 663.897000 -2978.410000 638.565000 1 1.000000 1 -3.000000
88 2 656.037000 -2974.130000 642.601000 1 1.000000 1 -3.000000
89 2 648.580000 -2972.960000 648.847000 1 1.000000 1 -3.000000
90 2 642.246000 -2969.800000 655.797000 1 1.000000 1 -3.000000
91 2 636.159000 -2966.270000 662.834000 1 1.000000 1 -3.000000
92 2 630.204000 -2959.890000 667.560000 1 1.000000 1 -3.000000
93 2 623.802000 -2953.690000 672.040000 1 1.000000 1 -3.000000
94 2 616.528000 -2950.800000 678.074000 1 1.000000 1 -3.000000
95 2 607.745000 -2946.370000 679.197000 1 1.000000 1 -3.000000
96 2 601.778000 -2942.520000 685.965000 1 1.000000 1 -3.000000
97 2 596.139000 -2941.130000 694.091000 1 1.000000 1 -3.000000
98 2 590.113000 -2938.940000 701.700000 1 1.000000 1 -3.000000
99 2 584.448000 -2937.290000 709.712000 1 1.000000 1 -3.000000
100 2 576.944000 -2932.590000 714.334000 1 1.000000 1 -3.000000
101 2 568.658000 -2929.890000 719.114000 1 1.000000 1 -3.000000
102 2 558.976000 -2929.640000 721.793000 1 1.000000 5 -3.000000
103 1 527.146000 -2941.260000 688.969000 1 1.000000 5 0.000000
104 3 557.422000 -2951.290000 674.603000 1 1.000000 5 0.000000
105 2 514.027000 -2959.430000 647.402000 1 1.000000 5 -3.000000
106 2 520.657000 -2957.240000 640.273000 1 1.000000 1 -3.000000
107 2 527.503000 -2956.360000 633.103000 1 1.000000 1 -3.000000
108 2 534.664000 -2956.320000 626.156000 1 1.000000 1 -3.000000
109 2 542.753000 -2957.960000 620.584000 1 1.000000 1 -3.000000
110 2 546.873000 -2962.070000 612.659000 1 1.000000 1 -3.000000
111 2 545.604000 -2962.010000 602.773000 1 1.000000 1 -3.000000
112 2 546.306000 -2962.190000 592.808000 1 1.000000 1 -3.000000
113 2 541.908000 -2962.300000 583.917000 1 1.000000 1 -3.000000
114 2 537.240000 -2962.340000 575.111000 1 1.000000 1 -3.000000
115 2 534.557000 -2962.910000 565.643000 1 1.000000 1 -3.000000
116 2 531.433000 -2963.010000 556.241000 1 1.000000 1 -3.000000
117 2 527.016000 -2967.180000 548.358000 1 1.000000 1 -3.000000
118 2 521.061000 -2969.390000 540.659000 1 1.000000 1 -3.000000
119 2 515.616000 -2969.490000 532.439000 1 1.000000 1 -3.000000
120 2 508.977000 -2967.790000 525.275000 1 1.000000 1 -3.000000
121 2 503.122000 -2969.320000 517.325000 1 1.000000 1 -3.000000
122 2 500.773000 -2969.060000 507.688000 1 1.000000 1 -3.000000
123 2 499.457000 -2970.150000 497.850000 1 1.000000 1 -3.000000
124 2 498.524000 -2973.330000 488.429000 1 1.000000 1 -3.000000
125 2 501.012000 -2974.020000 478.862000 1 1.000000 1 -3.000000
126 2 505.497000 -2980.030000 472.338000 1 1.000000 1 -3.000000
127 2 512.088000 -2985.760000 467.576000 1 1.000000 1 -3.000000
128 2 519.657000 -2991.560000 464.860000 1 1.000000 1 -3.000000
129 2 527.158000 -2997.670000 463.095000 1 1.000000 6 -3.000000
130 1 532.467000 -2987.130000 417.357000 1 1.000000 6 0.000000
131 3 500.041000 -2976.000000 424.643000 1 1.000000 6 0.000000
132 2 517.566000 -2969.860000 376.090000 1 1.000000 6 -3.000000
133 2 508.705000 -2966.800000 379.240000 1 1.000000 1 -3.000000
134 2 501.031000 -2963.070000 384.375000 1 1.000000 1 -3.000000
135 2 493.116000 -2959.000000 388.910000 1 1.000000 1 -3.000000
136 2 485.839000 -2953.700000 392.858000 1 1.000000 1 -3.000000
137 2 478.131000 -2948.310000 396.058000 1 1.000000 1 -3.000000
138 2 469.384000 -2944.710000 398.741000 1 1.000000 1 -3.000000
139 2 461.165000 -2939.150000 398.775000 1 1.000000 1 -3.000000
140 2 456.004000 -2931.080000 396.611000 1 1.000000 1 -3.000000
141 2 450.914000 -2923.050000 394.036000 1 1.000000 1 -3.000000
142 2 448.423000 -2914.140000 390.281000 1 1.000000 1 -3.000000
143 2 444.360000 -2905.430000 387.491000 1 1.000000 1 -3.000000
144 2 441.527000 -2896.380000 390.288000 1 1.000000 1 -3.000000
145 2 438.884000 -2887.310000 392.935000 1 1.000000 1 -3.000000
146 2 436.600000 -2879.160000 398.041000 1 1.000000 1 -3.000000
147 2 431.164000 -2872.270000 402.457000 1 1.000000 1 -3.000000
148 2 424.629000 -2865.730000 405.826000 1 1.000000 1 -3.000000
149 2 419.382000 -2857.790000 408.696000 1 1.000000 1 -3.000000
150 2 416.885000 -2849.540000 413.728000 1 1.000000 1 -3.000000
151 2 416.025000 -2842.060000 420.316000 1 1.000000 1 -3.000000
152 2 417.344000 -2834.820000 426.960000 1 1.000000 1 -3.000000
153 2 420.184000 -2826.490000 431.381000 1 1.000000 1 -3.000000
154 2 421.089000 -2819.590000 438.435000 1 1.000000 1 -3.000000
155 2 425.320000 -2812.420000 443.912000 1 1.000000 1 -3.000000
156 2 429.655000 -2806.890000 451.000000 1 1.000000 7 -3.000000
157 1 427.987000 -2765.670000 428.098000 1 1.000000 7 0.000000
158 3 433.440000 -2788.950000 402.450000 1 1.000000 7 0.000000
159 2 430.109000 -2738.790000 389.359000 1 1.000000 7 -3.000000
160 2 431.166000 -2746.040000 382.753000 1 1.000000 1 -3.000000
161 2 430.841000 -2753.380000 376.064000 1 1.000000 1 -3.000000
162 2 428.837000 -2760.350000 369.340000 1 1.000000 1 -3.000000
163 2 426.373000 -2768.760000 364.636000 1 1.000000 1 -3.000000
164 2 423.260000 -2776.990000 360.340000 1 1.000000 1 -3.000000
165 2 419.978000 -2786.360000 359.127000 1 1.000000 1 -3.000000
166 2 418.965000 -2795.690000 355.963000 1 1.000000 1 -3.000000
167 2 418.319000 -2805.470000 354.381000 1 1.000000 1 -3.000000
168 2 418.031000 -2814.810000 351.096000 1 1.000000 1 -3.000000
169 2 415.664000 -2823.390000 346.808000 1 1.000000 1 -3.000000
170 2 413.236000 -2832.950000 346.231000 1 1.000000 1 -3.000000
171 2 408.117000 -2840.540000 342.406000 1 1.000000 1 -3.000000
172 2 402.153000 -2846.430000 337.406000 1 1.000000 1 -3.000000
173 2 399.827000 -2852.680000 330.112000 1 1.000000 1 -3.000000
174 2 401.859000 -2859.940000 323.600000 1 1.000000 1 -3.000000
175 2 405.717000 -2866.590000 317.357000 1 1.000000 1 -3.000000
176 2 409.373000 -2873.020000 310.656000 1 1.000000 1 -3.000000
177 2 413.701000 -2878.970000 304.093000 1 1.000000 1 -3.000000
178 2 419.230000 -2884.800000 298.210000 1 1.000000 1 -3.000000
179 2 424.509000 -2890.230000 291.823000 1 1.000000 1 -3.000000
180 2 428.683000 -2897.530000 286.491000 1 1.000000 1 -3.000000
181 2 435.470000 -2903.290000 282.093000 1 1.000000 1 -3.000000
182 2 444.357000 -2907.180000 280.557000 1 1.000000 1 -3.000000
183 2 453.560000 -2910.950000 280.456000 1 1.000000 8 -3.000000
184 1 436.351000 -2949.630000 259.668000 1 1.000000 8 0.000000
185 3 409.087000 -2927.570000 259.350000 1 1.000000 8 0.000000
186 2 403.822000 -2973.260000 235.002000 1 1.000000 8 -3.000000
187 2 396.663000 -2966.540000 233.490000 1 1.000000 1 -3.000000
188 2 390.945000 -2958.410000 233.118000 1 1.000000 1 -3.000000
189 2 386.346000 -2949.970000 230.846000 1 1.000000 1 -3.000000
190 2 378.884000 -2943.560000 231.745000 1 1.000000 1 -3.000000
191 2 372.253000 -2937.320000 235.301000 1 1.000000 1 -3.000000
192 2 368.373000 -2928.310000 236.885000 1 1.000000 1 -3.000000
193 2 366.832000 -2918.760000 238.607000 1 1.000000 1 -3.000000
194 2 371.318000 -2910.740000 242.525000 1 1.000000 1 -3.000000
195 2 377.958000 -2903.860000 245.206000 1 1.000000 1 -3.000000
196 2 385.516000 -2897.510000 246.587000 1 1.000000 1 -3.000000
197 2 391.343000 -2889.830000 248.233000 1 1.000000 1 -3.000000
198 2 396.006000 -2881.240000 246.319000 1 1.000000 1 -3.000000
199 2 401.328000 -2873.290000 243.683000 1 1.000000 1 -3.000000
200 2 406.680000 -2865.520000 240.776000 1 1.000000 1 -3.000000
201 2 408.755000 -2855.880000 239.602000 1 1.000000 1 -3.000000
202 2 411.880000 -2847.280000 235.893000 1 1.000000 1 -3.000000
203 2 414.044000 -2837.890000 233.391000 1 1.000000 1 -3.000000
204 2 418.113000 -2828.930000 231.950000 1 1.000000 1 -3.000000
205 2 424.375000 -2821.390000 231.709000 1 1.000000 1 -3.000000
206 2 430.365000 -2813.940000 229.274000 1 1.000000 1 -3.000000
207 2 436.040000 -2806.500000 226.086000 1 1.000000 1 -3.000000
208 2 443.582000 -2801.410000 222.669000 1 1.000000 1 -3.000000
209 2 452.672000 -2798.710000 220.080000 1 1.000000 1 -3.000000
210 2 461.700000 -2800.040000 216.392000 1 1.000000 9 -3.000000
211 1 453.075000 -2779.230000 175.010000 1 1.000000 9 0.000000
212 3 424.034000 -2772.760000 193.475000 1 1.000000 9 0.000000
213 2 425.439000 -2756.990000 143.891000 1 1.000000 9 -3.000000
214 2 421.832000 -2750.820000 150.808000 1 1.000000 1 -3.000000
215 2 418.439000 -2744.960000 158.086000 1 1.000000 1 -3.000000
216 2 414.170000 -2741.180000 166.138000 1 1.000000 1 -3.000000
217 2 408.913000 -2737.390000 173.684000 1 1.000000 1 -3.000000
218 2 405.693000 -2733.330000 182.152000 1 1.000000 1 -3.000000
219 2 404.392000 -2730.120000 191.493000 1 1.000000 1 -3.000000
220 2 401.129000 -2726.180000 199.962000 1 1.000000 1 -3.000000
221 2 397.353000 -2719.610000 206.297000 1 1.000000 1 -3.000000
222 2 391.114000 -2714.190000 211.818000 1 1.000000 1 -3.000000
223 2 387.287000 -2706.610000 217.096000 1 1.000000 1 -3.000000
224 2 384.953000 -2699.480000 223.582000 1 1.000000 1 -3.000000
225 2 380.614000 -2693.400000 230.159000 1 1.000000 1 -3.000000
226 2 376.215000 -2687.170000 236.534000 1 1.000000 1 -3.000000
227 2 372.001000 -2679.450000 240.979000 1 1.000000 1 -3.000000
228 2 366.039000 -2672.570000 244.903000 1 1.000000 1 -3.000000
229 2 361.901000 -2663.680000 246.938000 1 1.000000 1 -3.000000
230 2 357.082000 -2655.650000 250.222000 1 1.000000 1 -3.000000
231 2 351.156000 -2649.890000 255.528000 1 1.000000 1 -3.000000
232 2 343.768000 -2645.610000 260.660000 1 1.000000 1 -3.000000
233 2 336.694000 -2642.150000 266.695000 1 1.000000 1 -3.000000
234 2 327.445000 -2639.070000 268.504000 1 1.000000 1 -3.000000
235 2 317.828000 -2641.090000 267.035000 1 1.000000 1 -3.000000
236 2 308.897000 -2644.900000 265.635000 1 1.000000 1 -3.000000
237 2 298.853000 -2645.330000 266.187000 1 1.000000 10 -3.000000
238 1 303.941000 -2685.880000 289.748000 1 1.000000 10 0.000000
239 3 334.124000 -2669.420000 295.578000 1 1.000000 10 0.000000
240 2 327.041000 -2715.860000 317.926000 1 1.000000 10 -3.000000
241 2 334.004000 -2709.140000 320.022000 1 1.000000 1 -3.000000
242 2 339.601000 -2701.340000 322.289000 1 1.000000 1 -3.000000
243 2 342.697000 -2693.470000 327.451000 1 1.000000 1 -3.000000
244 2 348.828000 -2686.280000 330.502000 1 1.000000 1 -3.000000
245 2 354.703000 -2679.980000 335.255000 1 1.000000 1 -3.000000
246 2 360.495000 -2672.410000 338.272000 1 1.000000 1 -3.000000
247 2 364.791000 -2663.920000 341.269000 1 1.000000 1 -3.000000
248 2 369.063000 -2656.510000 346.099000 1 1.000000 1 -3.000000
249 2 374.862000 -2650.230000 351.249000 1 1.000000 1 -3.000000
250 2 380.978000 -2647.310000 358.609000 1 1.000000 1 -3.000000
251 2 388.807000 -2646.870000 364.682000 1 1.000000 1 -3.000000
252 2 394.822000 -2648.040000 372.442000 1 1.000000 1 -3.000000
253 2 401.516000 -2646.390000 379.495000 1 1.000000 1 -3.000000
254 2 408.811000 -2645.360000 385.994000 1 1.000000 1 -3.000000
255 2 415.252000 -2644.230000 393.442000 1 1.000000 1 -3.000000
256 2 423.247000 -2643.040000 399.071000 1 1.000000 1 -3.000000
257 2 428.767000 -2642.280000 407.231000 1 1.000000 1 -3.000000
258 2 433.347000 -2645.840000 415.213000 1 1.000000 1 -3.000000
259 2 436.327000 -2650.670000 423.089000 1 1.000000 1 -3.000000
260 2 443.329000 -2654.590000 429.109000 1 1.000000 1 -3.000000
261 2 449.855000 -2661.270000 432.527000 1 1.000000 1 -3.000000
262 2 457.093000 -2667.780000 433.115000 1 1.000000 1 -3.000000
263 2 463.037000 -2671.440000 440.152000 1 1.000000 1 -3.000000
264 2 468.699000 -2676.030000 446.918000 1 1.000000 11 -3.000000
265 1 505.323000 -2652.530000 428.597000 1 1.000000 11 0.000000
266 3 477.881000 -2632.870000 419.573000 1 1.000000 11 0.000000
267 2 525.223000 -2616.320000 405.883000 1 1.000000 11 -3.000000
268 2 517.205000 -2610.420000 406.497000 1 1.000000 1 -3.000000
269 2 510.709000 -2603.380000 404.321000 1 1.000000 1 -3.000000
270 2 505.402000 -2595.040000 404.516000 1 1.000000 1 -3.000000
271 2 500.504000 -2586.790000 406.704000 1 1.000000 1 -3.000000
272 2 494.888000 -2579.820000 410.827000 1 1.000000 1 -3.000000
273 2 490.499000 -2572.650000 415.944000 1 1.000000 1 -3.000000
274 2 482.160000 -2567.460000 417.172000 1 1.000000 1 -3.000000
275 2 473.906000 -2562.520000 419.578000 1 1.000000 1 -3.000000
276 2 466.328000 -2556.470000 420.800000 1 1.000000 1 -3.000000
277 2 457.612000 -2551.850000 421.515000 1 1.000000 1 -3.000000
278 2 448.830000 -2547.540000 423.375000 1 1.000000 1 -3.000000
279 2 439.869000 -2545.070000 426.604000 1 1.000000 1 -3.000000
280 2 431.748000 -2542.850000 431.549000 1 1.000000 1 -3.000000
281 2 423.664000 -2543.110000 437.336000 1 1.000000 1 -3.000000
282 2 415.065000 -2542.470000 442.080000 1 1.000000 1 -3.000000
283 2 408.359000 -2542.270000 449.390000 1 1.000000 1 -3.000000
284 2 402.115000 -2542.080000 457.078000 1 1.000000 1 -3.000000
285 2 396.319000 -2543.020000 465.147000 1 1.000000 1 -3.000000
286 2 390.791000 -2544.950000 473.087000 1 1.000000 1 -3.000000
287 2 384.343000 -2546.440000 480.460000 1 1.000000 1 -3.000000
288 2 380.061000 -2546.530000 489.223000 1 1.000000 1 -3.000000
289 2 374.018000 -2547.090000 497.105000 1 1.000000 1 -3.000000
290 2 367.084000 -2549.810000 503.773000 1 1.000000 1 -3.000000
291 2 359.591000 -2553.740000 508.989000 1 1.000000 12 -3.000000
292 1 325.650000 -2521.900000 516.919000 1 1.000000 12 0.000000
293 3 351.646000 -2502.960000 502.991000 1 1.000000 12 0.000000
294 2 307.386000 -2478.310000 515.335000 1 1.000000 12 -3.000000
295 2 315.358000 -2475.580000 509.991000 1 1.000000 1 -3.000000
296 2 322.545000 -2469.270000 507.696000 1 1.000000 1 -3.000000
297 2 329.934000 -2462.720000 507.426000 1 1.000000 1 -3.000000
298 2 338.559000 -2458.460000 505.029000 1 1.000000 1 -3.000000
299 2 348.062000 -2455.930000 503.524000 1 1.000000 1 -3.000000
300 2 357.556000 -2456.220000 500.812000 1 1.000000 1 -3.000000
301 2 367.215000 -2457.950000 500.747000 1 1.000000 1 -3.000000
302 2 376.395000 -2460.690000 503.275000 1 1.000000 1 -3.000000
303 2 386.179000 -2461.410000 503.364000 1 1.000000 1 -3.000000
304 2 395.384000 -2459.070000 500.884000 1 1.000000 1 -3.000000
305 2 405.219000 -2457.850000 499.794000 1 1.000000 1 -3.000000
306 2 415.179000 -2457.990000 499.694000 1 1.000000 1 -3.000000
307 2 425.027000 -2458.160000 498.283000 1 1.000000 1 -3.000000
308 2 432.628000 -2460.170000 492.339000 1 1.000000 1 -3.000000
309 2 438.892000 -2464.920000 486.281000 1 1.000000 1 -3.000000
310 2 442.146000 -2469.100000 477.998000 1 1.000000 1 -3.000000
311 2 446.865000 -2474.720000 471.380000 1 1.000000 1 -3.000000
312 2 453.480000 -2480.690000 466.843000 1 1.000000 1 -3.000000
313 2 460.794000 -2485.440000 462.243000 1 1.000000 1 -3.000000
314 2 467.125000 -2492.270000 458.752000 1 1.000000 1 -3.000000
315 2 470.411000 -2500.900000 455.328000 1 1.000000 1 -3.000000
316 2 471.175000 -2509.820000 451.139000 1 1.000000 1 -3.000000
317 2 470.166000 -2519.420000 448.653000 1 1.000000 1 -3.000000
318 2 470.296000 -2529.160000 450.252000 1 1.000000 13 -3.000000
319 1 516.800000 -2533.660000 443.618000 1 1.000000 13 0.000000
320 3 510.308000 -2501.120000 432.934000 1 1.000000 13 0.000000
321 2 559.354000 -2517.870000 430.899000 1 1.000000 13 -3.000000
322 2 556.661000 -2509.980000 436.130000 1 1.000000 1 -3.000000
323 2 555.305000 -2500.380000 438.763000 1 1.000000 1 -3.000000
324 2 553.499000 -2492.030000 443.709000 1 1.000000 1 -3.000000
325 2 552.948000 -2482.860000 447.448000 1 1.000000 1 -3.000000
326 2 557.240000 -2474.660000 450.763000 1 1.000000 1 -3.000000
327 2 561.265000 -2465.850000 453.077000 1 1.000000 1 -3.000000
328 2 565.361000 -2458.060000 457.467000 1 1.000000 1 -3.000000
329 2 570.834000 -2452.700000 463.854000 1 1.000000 1 -3.000000
330 2 574.595000 -2445.580000 469.621000 1 1.000000 1 -3.000000
331 2 576.417000 -2437.790000 475.371000 1 1.000000 1 -3.000000
332 2 578.474000 -2430.410000 481.554000 1 1.000000 1 -3.000000
333 2 579.326000 -2425.260000 489.950000 1 1.000000 1 -3.000000
334 2 581.963000 -2418.990000 497.060000 1 1.000000 1 -3.000000
335 2 581.601000 -2411.880000 504.027000 1 1.000000 1 -3.000000
336 2 580.598000 -2405.140000 511.251000 1 1.000000 1 -3.000000
337 2 579.588000 -2402.220000 520.563000 1 1.000000 1 -3.000000
338 2 581.403000 -2403.030000 530.282000 1 1.000000 1 -3.000000
339 2 582.014000 -2406.870000 539.410000 1 1.000000 1 -3.000000
340 2 580.790000 -2409.930000 548.646000 1 1.000000 1 -3.000000
341 2 582.022000 -2414.880000 557.134000 1 1.000000 1 -3.000000
342 2 580.905000 -2419.050000 566.028000 1 1.000000 1 -3.000000
343 2 579.249000 -2422.680000 575.040000 1 1.000000 1 -3.000000
344 2 576.738000 -2429.110000 582.138000 1 1.000000 1 -3.000000
345 2 577.446000 -2435.330000 589.865000 1 1.000000 14 -3.000000
346 1 587.018000 -2479.820000 577.404000 1 1.000000 14 0.000000
347 3 566.417000 -2468.530000 551.425000 1 1.000000 14 0.000000
348 2 582.435000 -2517.850000 549.886000 1 1.000000 14 -3.000000
349 2 577.626000 -2513.760000 542.068000 1 1.000000 1 -3.000000
350 2 573.202000 -2509.780000 534.223000 1 1.000000 1 -3.000000
351 2 568.557000 -2504.310000 527.452000 1 1.000000 1 -3.000000
352 2 562.507000 -2499.870000 520.947000 1 1.000000 1 -3.000000
353 2 558.149000 -2494.200000 514.035000 1 1.000000 1 -3.000000
354 2 556.330000 -2485.110000 510.576000 1 1.000000 1 -3.000000
355 2 550.425000 -2477.260000 510.528000 1 1.000000 1 -3.000000
356 2 544.618000 -2469.130000 510.809000 1 1.000000 1 -3.000000
357 2 539.384000 -2460.870000 512.204000 1 1.000000 1 -3.000000
358 2 533.639000 -2452.770000 510.833000 1 1.000000 1 -3.000000
359 2 530.840000 -2443.600000 507.760000 1 1.000000 1 -3.000000
360 2 526.167000 -2435.630000 504.039000 1 1.000000 1 -3.000000
361 2 520.189000 -2428.050000 501.866000 1 1.000000 1 -3.000000
362 2 515.673000 -2420.000000 498.519000 1 1.000000 1 -3.000000
363 2 510.915000 -2412.530000 494.267000 1 1.000000 1 -3.000000
364 2 504.162000 -2405.370000 492.813000 1 1.000000 1 -3.000000
365 2 496.194000 -2399.500000 491.501000 1 1.000000 1 -3.000000
366 2 488.280000 -2395.160000 487.259000 1 1.000000 1 -3.000000
367 2 481.463000 -2391.720000 480.933000 1 1.000000 1 -3.000000
368 2 475.051000 -2387.660000 474.557000 1 1.000000 1 -3.000000
369 2 467.905000 -2383.760000 468.835000 1 1.000000 1 -3.000000
370 2 460.834000 -2378.980000 463.896000 1 1.000000 1 -3.000000
371 2 454.081000 -2373.770000 458.868000 1 1.000000 1 -3.000000
372 2 447.214000 -2366.630000 457.668000 1 1.000000 15 -3.000000
373 1 444.136000 -2335.780000 493.136000 1 1.000000 15 0.000000
374 3 476.794000 -2347.740000 495.899000 1 1.000000 15 0.000000
375 2 461.510000 -2311.380000 529.629000 1 1.000000 15 -3.000000
376 2 470.267000 -2310.460000 525.199000 1 1.000000 1 -3.000000
377 2 479.112000 -2308.290000 521.284000 1 1.000000 1 -3.000000
378 2 486.720000 -2309.010000 515.092000 1 1.000000 1 -3.000000
379 2 495.691000 -2311.600000 511.947000 1 1.000000 1 -3.000000
380 2 503.043000 -2315.900000 507.015000 1 1.000000 1 -3.000000
381 2 510.709000 -2320.910000 503.593000 1 1.000000 1 -3.000000
382 2 519.129000 -2323.700000 499.179000 1 1.000000 1 -3.000000
383 2 526.228000 -2326.290000 492.859000 1 1.000000 1 -3.000000
384 2 534.386000 -2329.780000 488.640000 1 1.000000 1 -3.000000
385 2 540.267000 -2335.550000 482.805000 1 1.000000 1 -3.000000
386 2 543.787000 -2341.100000 475.449000 1 1.000000 1 -3.000000
387 2 542.260000 -2344.950000 466.334000 1 1.000000 1 -3.000000
388 2 540.274000 -2351.320000 458.957000 1 1.000000 1 -3.000000
389 2 534.625000 -2356.080000 452.369000 1 1.000000 1 -3.000000
390 2 529.270000 -2360.180000 444.995000 1 1.000000 1 -3.000000
391 2 522.480000 -2363.270000 438.637000 1 1.000000 1 -3.000000
392 2 515.777000 -2365.380000 431.655000 1 1.000000 1 -3.000000
393 2 507.036000 -2368.590000 428.416000 1 1.000000 1 -3.000000
394 2 498.562000 -2373.410000 427.077000 1 1.000000 1 -3.000000
395 2 490.557000 -2378.280000 423.830000 1 1.000000 1 -3.000000
396 2 483.108000 -2384.820000 422.843000 1 1.000000 1 -3.000000
397 2 475.298000 -2390.020000 420.221000 1 1.000000 1 -3.000000
398 2 466.304000 -2392.320000 416.688000 1 1.000000 1 -3.000000
399 2 457.143000 -2391.210000 412.845000 1 1.000000 16 -3.000000
400 1 446.746000 -2436.830000 406.783000 1 1.000000 16 0.000000
401 3 481.574000 -2436.350000 405.149000 1 1.000000 16 0.000000
402 2 457.919000 -2482.520000 403.679000 1 1.000000 16 -3.000000
403 2 467.636000 -2484.820000 404.012000 1 1.000000 1 -3.000000
404 2 476.914000 -2486.990000 406.306000 1 1.000000 1 -3.000000
405 2 486.795000 -2486.110000 407.147000 1 1.000000 1 -3.000000
406 2 494.185000 -2479.780000 408.570000 1 1.000000 1 -3.000000
407 2 500.650000 -2473.260000 412.177000 1 1.000000 1 -3.000000
408 2 505.259000 -2464.740000 414.620000 1 1.000000 1 -3.000000
409 2 511.548000 -2457.860000 418.112000 1 1.000000 1 -3.000000
410 2 519.446000 -2452.610000 420.703000 1 1.000000 1 -3.000000
411 2 525.437000 -2445.160000 423.567000 1 1.000000 1 -3.000000
412 2 530.894000 -2437.710000 426.923000 1 1.000000 1 -3.000000
413 2 535.426000 -2429.010000 427.903000 1 1.000000 1 -3.000000
414 2 540.876000 -2420.880000 426.193000 1 1.000000 1 -3.000000
415 2 548.370000 -2414.270000 426.274000 1 1.000000 1 -3.000000
416 2 555.447000 -2407.300000 426.299000 1 1.000000 1 -3.000000
417 2 563.633000 -2402.150000 424.887000 1 1.000000 1 -3.000000
418 2 570.646000 -2395.370000 423.235000 1 1.000000 1 -3.000000
419 2 579.314000 -2390.910000 421.635000 1 1.000000 1 -3.000000
420 2 586.383000 -2383.970000 422.873000 1 1.000000 1 -3.000000
421 2 592.458000 -2377.530000 427.263000 1 1.000000 1 -3.000000
422 2 597.030000 -2371.260000 433.492000 1 1.000000 1 -3.000000
423 2 600.777000 -2363.080000 437.859000 1 1.000000 1 -3.000000
424 2 602.627000 -2357.020000 445.561000 1 1.000000 1 -3.000000
425 2 600.348000 -2352.650000 454.196000 1 1.000000 1 -3.000000
426 2 597.748000 -2348.900000 462.936000 1 1.000000 17 -3.000000
427 1 643.999000 -2358.180000 463.361000 1 1.000000 17 0.000000
428 3 636.279000 -2358.300000 429.224000 1 1.000000 17 0.000000
429 2 685.653000 -2366.420000 442.891000 1 1.000000 17 -3.000000
430 2 683.235000 -2369.290000 433.744000 1 1.000000 1 -3.000000
431 2 680.516000 -2370.970000 424.323000 1 1.000000 1 -3.000000
432 2 681.198000 -2370.310000 414.431000 1 1.000000 1 -3.000000
433 2 679.316000 -2370.650000 404.780000 1 1.000000 1 -3.000000
434 2 675.495000 -2371.850000 395.746000 1 1.000000 1 -3.000000
435 2 671.297000 -2372.950000 386.965000 1 1.000000 1 -3.000000
436 2 668.818000 -2374.070000 377.422000 1 1.000000 1 -3.000000
437 2 666.394000 -2372.490000 367.894000 1 1.000000 1 -3.000000
438 2 662.732000 -2367.630000 360.123000 1 1.000000 1 -3.000000
439 2 654.854000 -2366.160000 354.489000 1 1.000000 1 -3.000000
440 2 647.839000 -2364.130000 347.710000 1 1.000000 1 -3.000000
441 2 642.481000 -2364.110000 339.264000 1 1.000000 1 -3.000000
442 2 638.965000 -2367.370000 330.648000 1 1.000000 1 -3.000000
443 2 637.640000 -2371.890000 322.036000 1 1.000000 1 -3.000000
444 2 636.509000 -2377.980000 314.357000 1 1.000000 1 -3.000000
445 2 631.971000 -2383.750000 307.749000 1 1.000000 1 -3.000000
446 2 625.435000 -2388.900000 302.610000 1 1.000000 1 -3.000000
447 2 617.675000 -2390.920000 297.043000 1 1.000000 1 -3.000000
448 2 609.332000 -2392.560000 291.992000 1 1.000000 1 -3.000000
449 2 599.745000 -2393.210000 289.496000 1 1.000000 1 -3.000000
450 2 590.655000 -2394.300000 285.683000 1 1.000000 1 -3.000000
451 2 581.564000 -2395.860000 282.154000 1 1.000000 1 -3.000000
452 2 574.312000 -2402.190000 280.132000 1 1.000000 1 -3.000000
453 2 566.176000 -2407.950000 280.342000 1 1.000000 18 -3.000000
454 1 535.014000 -2378.930000 300.617000 1 1.000000 18 0.000000
455 3 561.257000 -2357.500000 291.813000 1 1.000000 18 0.000000
456 2 519.976000 -2336.580000 315.061000 1 1.000000 18 -3.000000
457 2 525.838000 -2330.020000 310.819000 1 1.000000 1 -3.000000
458 2 532.565000 -2324.620000 306.068000 1 1.000000 1 -3.000000
459 2 539.443000 -2320.610000 300.099000 1 1.000000 1 -3.000000
460 2 546.714000 -2317.190000 294.432000 1 1.000000 1 -3.000000
461 2 554.972000 -2315.690000 289.346000 1 1.000000 1 -3.000000
462 2 563.498000 -2315.000000 284.087000 1 1.000000 1 -3.000000
463 2 571.925000 -2315.570000 278.980000 1 1.000000 1 -3.000000
464 2 578.753000 -2320.870000 274.127000 1 1.000000 1 -3.000000
465 2 587.472000 -2325.070000 272.351000 1 1.000000 1 -3.000000