LAMMPS data file

4067 atoms
4067 ellipsoids
4516 bonds
8882 angles
0 dihedrals

3 atom types
5 bond types
12 angle types
0 dihedral types

-4631.092947 4670.465898 xlo xhi
-4631.092947 4670.465898 ylo yhi
-4631.092947 4670.465898 zlo zhi

Masses

1 196016.000000
2 1950.000000
3 19500.000000

Atoms

1 2 695.645000 -2955.400000 437.669000 1 1.000000 1 -3.000000
2 2 703.752000 -2959.690000 440.960000 1 1.000000 1 -3.000000
3 2 711.389000 -2963.660000 446.005000 1 1.000000 1 -3.000000
4 2 717.108000 -2970.500000 450.229000 1 1.000000 1 -3.000000
5 2 721.196000 -2979.150000 452.377000 1 1.000000 1 -3.000000
6 2 725.944000 -2987.740000 450.546000 1 1.000000 1 -3.000000
7 2 730.585000 -2996.380000 449.945000 1 1.000000 1 -3.000000
8 2 735.282000 -3003.660000 445.435000 1 1.000000 1 -3.000000
9 2 738.187000 -3012.790000 442.855000 1 1.000000 1 -3.000000
10 2 741.254000 -3021.750000 440.269000 1 1.000000 1 -3.000000
11 2 743.599000 -3029.610000 434.697000 1 1.000000 1 -3.000000
12 2 747.807000 -3038.260000 431.567000 1 1.000000 1 -3.000000
13 2 754.497000 -3045.320000 429.970000 1 1.000000 1 -3.000000
14 2 758.979000 -3053.970000 428.356000 1 1.000000 1 -3.000000
15 2 764.031000 -3062.450000 427.160000 1 1.000000 1 -3.000000
16 2 770.660000 -3069.270000 424.381000 1 1.000000 1 -3.000000
17 2 776.084000 -3077.300000 426.162000 1 1.000000 1 -3.000000
18 2 783.808000 -3083.540000 425.470000 1 1.000000 1 -3.000000
19 2 790.899000 -3090.560000 425.897000 1 1.000000 1 -3.000000
20 2 795.975000 -3098.700000 428.498000 1 1.000000 1 -3.000000
21 2 799.573000 -3107.910000 428.616000 1 1.000000 2 -3.000000
22 1 779.144000 -3122.910000 468.345000 1 1.000000 2 0.000000
23 3 759.453000 -3095.580000 459.215000 1 1.000000 2 0.000000
24 2 746.260000 -3121.460000 502.142000 1 1.000000 2 -3.000000
25 2 741.672000 -3113.670000 498.312000 1 1.000000 1 -3.000000
26 2 736.499000 -3107.110000 493.034000 1 1.000000 1 -3.000000
27 2 731.133000 -3100.140000 488.664000 1 1.000000 1 -3.000000
28 2 726.244000 -3093.200000 483.817000 1 1.000000 1 -3.000000
29 2 721.647000 -3087.600000 477.182000 1 1.000000 1 -3.000000
30 2 716.832000 -3082.120000 470.640000 1 1.000000 1 -3.000000
31 2 709.268000 -3078.440000 465.508000 1 1.000000 1 -3.000000
32 2 701.161000 -3077.430000 459.858000 1 1.000000 1 -3.000000
33 2 693.207000 -3079.690000 454.348000 1 1.000000 1 -3.000000
34 2 685.293000 -3081.120000 448.540000 1 1.000000 1 -3.000000
35 2 679.587000 -3083.290000 440.740000 1 1.000000 1 -3.000000
36 2 673.348000 -3083.810000 433.091000 1 1.000000 1 -3.000000
37 2 667.260000 -3086.490000 425.842000 1 1.000000 1 -3.000000
38 2 662.774000 -3091.070000 418.341000 1 1.000000 1 -3.000000
39 2 655.191000 -3095.460000 413.569000 1 1.000000 1 -3.000000
40 2 646.616000 -3098.180000 409.358000 1 1.000000 1 -3.000000
41 2 639.586000 -3102.460000 403.705000 1 1.000000 1 -3.000000
42 2 632.410000 -3104.700000 397.154000 1 1.000000 1 -3.000000
43 2 627.655000 -3110.830000 391.019000 1 1.000000 1 -3.000000
44 2 623.130000 -3116.320000 384.287000 1 1.000000 1 -3.000000
45 2 620.935000 -3121.280000 376.061000 1 1.000000 1 -3.000000
46 2 617.045000 -3124.790000 367.648000 1 1.000000 1 -3.000000
47 2 612.279000 -3126.140000 358.988000 1 1.000000 1 -3.000000
48 2 608.751000 -3124.080000 349.972000 1 1.000000 3 -3.000000
49 1 600.082000 -3082.020000 369.365000 1 1.000000 3 0.000000
50 3 596.472000 -3104.230000 396.399000 1 1.000000 3 0.000000
51 2 584.968000 -3054.350000 404.539000 1 1.000000 3 -3.000000
52 2 586.593000 -3059.520000 412.758000 1 1.000000 1 -3.000000
53 2 586.156000 -3066.400000 419.820000 1 1.000000 1 -3.000000
54 2 585.218000 -3075.010000 424.505000 1 1.000000 1 -3.000000
55 2 580.546000 -3082.410000 429.039000 1 1.000000 1 -3.000000
56 2 574.029000 -3086.180000 435.324000 1 1.000000 1 -3.000000
57 2 564.749000 -3087.640000 438.573000 1 1.000000 1 -3.000000
58 2 555.893000 -3091.790000 439.725000 1 1.000000 1 -3.000000
59 2 546.361000 -3093.970000 440.515000 1 1.000000 1 -3.000000
60 2 536.436000 -3094.200000 440.048000 1 1.000000 1 -3.000000
61 2 526.778000 -3095.510000 442.044000 1 1.000000 1 -3.000000
62 2 517.491000 -3092.520000 442.576000 1 1.000000 1 -3.000000
63 2 508.182000 -3092.040000 445.646000 1 1.000000 1 -3.000000
64 2 499.484000 -3088.550000 449.153000 1 1.000000 1 -3.000000
65 2 492.014000 -3082.140000 450.163000 1 1.000000 1 -3.000000
66 2 487.088000 -3073.610000 451.553000 1 1.000000 1 -3.000000
67 2 483.903000 -3064.290000 450.002000 1 1.000000 1 -3.000000
68 2 484.511000 -3054.540000 448.554000 1 1.000000 1 -3.000000
69 2 485.573000 -3044.760000 450.071000 1 1.000000 1 -3.000000
70 2 487.349000 -3035.150000 449.308000 1 1.000000 1 -3.000000
71 2 487.570000 -3025.180000 449.091000 1 1.000000 1 -3.000000
72 2 486.330000 -3015.620000 446.446000 1 1.000000 1 -3.000000
73 2 484.905000 -3007.110000 441.414000 1 1.000000 1 -3.000000
74 2 485.848000 -2997.810000 438.207000 1 1.000000 1 -3.000000
75 2 488.595000 -2989.370000 433.983000 1 1.000000 4 -3.000000
76 1 535.544000 -2985.690000 431.772000 1 1.000000 4 0.000000
77 3 530.613000 -3018.270000 443.443000 1 1.000000 4 0.000000
78 2 579.509000 -3002.380000 435.765000 1 1.000000 4 -3.000000
79 2 574.780000 -3008.420000 442.058000 1 1.000000 1 -3.000000
80 2 572.788000 -3017.210000 446.239000 1 1.000000 1 -3.000000
81 2 569.832000 -3025.410000 450.996000 1 1.000000 1 -3.000000
82 2 567.531000 -3033.970000 455.413000 1 1.000000 1 -3.000000
83 2 566.760000 -3042.400000 460.369000 1 1.000000 1 -3.000000
84 2 562.099000 -3047.910000 467.227000 1 1.000000 1 -3.000000
85 2 557.437000 -3048.290000 475.935000 1 1.000000 1 -3.000000
86 2 551.921000 -3044.840000 483.262000 1 1.000000 1 -3.000000
87 2 546.901000 -3044.150000 491.798000 1 1.000000 1 -3.000000
88 2 544.947000 -3041.030000 500.958000 1 1.000000 1 -3.000000
89 2 541.729000 -3036.540000 509.188000 1 1.000000 1 -3.000000
90 2 539.172000 -3033.420000 518.250000 1 1.000000 1 -3.000000
91 2 537.251000 -3026.430000 525.084000 1 1.000000 1 -3.000000
92 2 537.767000 -3018.740000 531.150000 1 1.000000 1 -3.000000
93 2 538.458000 -3009.700000 534.939000 1 1.000000 1 -3.000000
94 2 536.877000 -3001.680000 540.716000 1 1.000000 1 -3.000000
95 2 535.006000 -2994.500000 547.252000 1 1.000000 1 -3.000000
96 2 535.773000 -2989.630000 555.764000 1 1.000000 1 -3.000000
97 2 535.390000 -2987.000000 565.295000 1 1.000000 1 -3.000000
98 2 533.828000 -2984.720000 574.728000 1 1.000000 1 -3.000000
99 2 534.916000 -2981.430000 583.983000 1 1.000000 1 -3.000000
100 2 537.019000 -2980.480000 593.599000 1 1.000000 1 -3.000000
101 2 543.012000 -2980.160000 601.461000 1 1.000000 1 -3.000000
102 2 551.169000 -2977.460000 606.506000 1 1.000000 5 -3.000000
103 1 528.124000 -2938.700000 620.323000 1 1.000000 5 0.000000
104 3 505.037000 -2954.520000 599.267000 1 1.000000 5 0.000000
105 2 490.628000 -2910.290000 622.323000 1 1.000000 5 -3.000000
106 2 486.122000 -2915.330000 615.091000 1 1.000000 1 -3.000000
107 2 482.819000 -2920.900000 607.517000 1 1.000000 1 -3.000000
108 2 481.380000 -2928.470000 601.284000 1 1.000000 1 -3.000000
109 2 479.385000 -2937.110000 596.874000 1 1.000000 1 -3.000000
110 2 476.707000 -2943.300000 589.644000 1 1.000000 1 -3.000000
111 2 476.875000 -2949.240000 581.649000 1 1.000000 1 -3.000000
112 2 476.654000 -2956.300000 574.722000 1 1.000000 1 -3.000000
113 2 478.019000 -2961.990000 566.835000 1 1.000000 1 -3.000000
114 2 480.253000 -2964.000000 557.326000 1 1.000000 1 -3.000000
115 2 479.109000 -2964.200000 547.529000 1 1.000000 1 -3.000000
116 2 477.715000 -2963.480000 537.893000 1 1.000000 1 -3.000000
117 2 477.147000 -2963.570000 528.099000 1 1.000000 1 -3.000000
118 2 475.048000 -2968.050000 519.321000 1 1.000000 1 -3.000000
119 2 472.585000 -2972.020000 510.677000 1 1.000000 1 -3.000000
120 2 472.813000 -2974.370000 501.067000 1 1.000000 1 -3.000000
121 2 472.869000 -2977.290000 491.642000 1 1.000000 1 -3.000000
122 2 475.633000 -2981.410000 483.086000 1 1.000000 1 -3.000000
123 2 475.669000 -2986.800000 474.832000 1 1.000000 1 -3.000000
124 2 472.005000 -2988.450000 465.737000 1 1.000000 1 -3.000000
125 2 467.823000 -2991.890000 457.460000 1 1.000000 1 -3.000000
126 2 461.734000 -2995.180000 450.304000 1 1.000000 1 -3.000000
127 2 459.134000 -3001.650000 443.197000 1 1.000000 1 -3.000000
128 2 457.596000 -3008.750000 436.495000 1 1.000000 1 -3.000000
129 2 456.201000 -3016.850000 430.943000 1 1.000000 6 -3.000000
130 1 446.828000 -2986.330000 396.203000 1 1.000000 6 0.000000
131 3 468.501000 -2968.350000 417.011000 1 1.000000 6 0.000000
132 2 454.676000 -2946.570000 371.961000 1 1.000000 6 -3.000000
133 2 455.003000 -2940.320000 379.632000 1 1.000000 1 -3.000000
134 2 455.844000 -2933.400000 386.433000 1 1.000000 1 -3.000000
135 2 456.565000 -2929.610000 395.553000 1 1.000000 1 -3.000000
136 2 459.660000 -2924.880000 403.679000 1 1.000000 1 -3.000000
137 2 463.118000 -2919.940000 411.566000 1 1.000000 1 -3.000000
138 2 467.794000 -2915.120000 418.912000 1 1.000000 1 -3.000000
139 2 474.214000 -2908.920000 423.304000 1 1.000000 1 -3.000000
140 2 480.774000 -2904.270000 428.842000 1 1.000000 1 -3.000000
141 2 487.257000 -2898.420000 433.886000 1 1.000000 1 -3.000000
142 2 492.852000 -2891.900000 438.796000 1 1.000000 1 -3.000000
143 2 499.339000 -2885.260000 442.052000 1 1.000000 1 -3.000000
144 2 505.773000 -2878.610000 445.546000 1 1.000000 1 -3.000000
145 2 512.433000 -2873.150000 450.499000 1 1.000000 1 -3.000000
146 2 520.394000 -2869.090000 454.559000 1 1.000000 1 -3.000000
147 2 527.922000 -2862.960000 456.866000 1 1.000000 1 -3.000000
148 2 536.072000 -2857.160000 456.849000 1 1.000000 1 -3.000000
149 2 543.135000 -2851.900000 452.336000 1 1.000000 1 -3.000000
150 2 548.508000 -2848.150000 444.999000 1 1.000000 1 -3.000000
151 2 553.851000 -2846.200000 436.891000 1 1.000000 1 -3.000000
152 2 560.794000 -2844.450000 430.120000 1 1.000000 1 -3.000000
153 2 566.830000 -2843.820000 422.362000 1 1.000000 1 -3.000000
154 2 573.824000 -2843.300000 415.359000 1 1.000000 1 -3.000000
155 2 578.554000 -2845.280000 407.005000 1 1.000000 1 -3.000000
156 2 584.175000 -2844.290000 398.760000 1 1.000000 7 -3.000000
157 1 614.754000 -2810.580000 411.284000 1 1.000000 7 0.000000
158 3 596.184000 -2815.730000 440.496000 1 1.000000 7 0.000000
159 2 632.112000 -2778.260000 440.994000 1 1.000000 7 -3.000000
160 2 629.129000 -2780.040000 450.176000 1 1.000000 1 -3.000000
161 2 626.117000 -2785.010000 458.255000 1 1.000000 1 -3.000000
162 2 625.722000 -2793.950000 462.462000 1 1.000000 1 -3.000000
163 2 625.538000 -2802.090000 468.025000 1 1.000000 1 -3.000000
164 2 627.560000 -2810.090000 473.402000 1 1.000000 1 -3.000000
165 2 630.146000 -2818.890000 477.004000 1 1.000000 1 -3.000000
166 2 632.885000 -2826.840000 482.045000 1 1.000000 1 -3.000000
167 2 635.022000 -2834.240000 488.252000 1 1.000000 1 -3.000000
168 2 638.449000 -2842.760000 492.014000 1 1.000000 1 -3.000000
169 2 643.184000 -2849.200000 497.674000 1 1.000000 1 -3.000000
170 2 645.561000 -2856.660000 503.712000 1 1.000000 1 -3.000000
171 2 648.070000 -2862.840000 511.003000 1 1.000000 1 -3.000000
172 2 652.463000 -2867.710000 518.504000 1 1.000000 1 -3.000000
173 2 659.101000 -2872.980000 523.593000 1 1.000000 1 -3.000000
174 2 664.348000 -2878.810000 529.529000 1 1.000000 1 -3.000000
175 2 671.360000 -2882.700000 535.323000 1 1.000000 1 -3.000000
176 2 677.113000 -2888.460000 541.008000 1 1.000000 1 -3.000000
177 2 682.668000 -2894.150000 546.782000 1 1.000000 1 -3.000000
178 2 687.575000 -2900.100000 553.206000 1 1.000000 1 -3.000000
179 2 695.083000 -2905.060000 557.528000 1 1.000000 1 -3.000000
180 2 703.326000 -2908.450000 561.548000 1 1.000000 1 -3.000000
181 2 710.632000 -2910.340000 568.038000 1 1.000000 1 -3.000000
182 2 718.217000 -2911.490000 574.262000 1 1.000000 1 -3.000000
183 2 727.564000 -2912.630000 577.373000 1 1.000000 8 -3.000000
184 1 752.904000 -2881.070000 553.093000 1 1.000000 8 0.000000
185 3 720.147000 -2869.020000 550.491000 1 1.000000 8 0.000000
186 2 757.487000 -2844.080000 524.192000 1 1.000000 8 -3.000000
187 2 748.566000 -2839.640000 524.504000 1 1.000000 1 -3.000000
188 2 740.602000 -2833.800000 524.853000 1 1.000000 1 -3.000000
189 2 731.685000 -2830.890000 527.972000 1 1.000000 1 -3.000000
190 2 722.542000 -2828.030000 530.791000 1 1.000000 1 -3.000000
191 2 713.405000 -2824.790000 532.995000 1 1.000000 1 -3.000000
192 2 705.621000 -2824.120000 539.130000 1 1.000000 1 -3.000000
193 2 696.923000 -2825.150000 543.731000 1 1.000000 1 -3.000000
194 2 688.617000 -2829.190000 547.367000 1 1.000000 1 -3.000000
195 2 680.637000 -2833.570000 551.350000 1 1.000000 1 -3.000000
196 2 672.200000 -2836.850000 555.499000 1 1.000000 1 -3.000000
197 2 664.073000 -2841.700000 558.370000 1 1.000000 1 -3.000000
198 2 654.934000 -2844.720000 560.558000 1 1.000000 1 -3.000000
199 2 647.126000 -2850.270000 562.900000 1 1.000000 1 -3.000000
200 2 640.654000 -2857.640000 563.990000 1 1.000000 1 -3.000000
201 2 635.191000 -2865.360000 566.501000 1 1.000000 1 -3.000000
202 2 629.616000 -2873.500000 564.876000 1 1.000000 1 -3.000000
203 2 623.984000 -2881.650000 563.980000 1 1.000000 1 -3.000000
204 2 616.048000 -2886.640000 560.882000 1 1.000000 1 -3.000000
205 2 607.635000 -2891.090000 558.266000 1 1.000000 1 -3.000000
206 2 598.049000 -2892.110000 556.144000 1 1.000000 1 -3.000000
207 2 588.371000 -2892.660000 554.771000 1 1.000000 1 -3.000000
208 2 578.703000 -2891.980000 552.582000 1 1.000000 1 -3.000000
209 2 569.146000 -2894.190000 550.896000 1 1.000000 1 -3.000000
210 2 559.662000 -2896.550000 549.989000 1 1.000000 9 -3.000000
211 1 550.067000 -2853.370000 566.269000 1 1.000000 9 0.000000
212 3 584.231000 -2851.750000 559.067000 1 1.000000 9 0.000000
213 2 561.139000 -2808.560000 576.142000 1 1.000000 9 -3.000000
214 2 569.479000 -2809.720000 570.836000 1 1.000000 1 -3.000000
215 2 577.051000 -2808.420000 564.506000 1 1.000000 1 -3.000000
216 2 583.746000 -2809.350000 557.330000 1 1.000000 1 -3.000000
217 2 589.115000 -2810.690000 549.235000 1 1.000000 1 -3.000000
218 2 595.836000 -2809.460000 542.268000 1 1.000000 1 -3.000000
219 2 602.678000 -2807.330000 535.572000 1 1.000000 1 -3.000000
220 2 608.986000 -2808.480000 528.053000 1 1.000000 1 -3.000000
221 2 617.791000 -2809.210000 523.486000 1 1.000000 1 -3.000000
222 2 627.262000 -2806.850000 521.729000 1 1.000000 1 -3.000000
223 2 636.796000 -2808.060000 524.091000 1 1.000000 1 -3.000000
224 2 645.266000 -2806.330000 528.872000 1 1.000000 1 -3.000000
225 2 653.709000 -2804.800000 533.681000 1 1.000000 1 -3.000000
226 2 661.258000 -2799.920000 537.868000 1 1.000000 1 -3.000000
227 2 669.597000 -2794.500000 539.242000 1 1.000000 1 -3.000000
228 2 676.382000 -2787.340000 540.008000 1 1.000000 1 -3.000000
229 2 681.050000 -2779.110000 543.125000 1 1.000000 1 -3.000000
230 2 686.400000 -2770.730000 542.705000 1 1.000000 1 -3.000000
231 2 692.190000 -2763.010000 544.647000 1 1.000000 1 -3.000000
232 2 698.729000 -2756.100000 547.376000 1 1.000000 1 -3.000000
233 2 702.214000 -2747.870000 551.656000 1 1.000000 1 -3.000000
234 2 707.999000 -2741.970000 557.239000 1 1.000000 1 -3.000000
235 2 712.320000 -2737.330000 564.960000 1 1.000000 1 -3.000000
236 2 715.552000 -2733.910000 573.702000 1 1.000000 1 -3.000000
237 2 718.533000 -2730.650000 582.424000 1 1.000000 10 -3.000000
238 1 679.286000 -2731.630000 608.490000 1 1.000000 10 0.000000
239 3 671.774000 -2752.990000 581.966000 1 1.000000 10 0.000000
240 2 636.354000 -2747.780000 619.483000 1 1.000000 10 -3.000000
241 2 634.104000 -2750.450000 610.162000 1 1.000000 1 -3.000000
242 2 633.088000 -2754.970000 601.394000 1 1.000000 1 -3.000000
243 2 631.624000 -2759.440000 592.761000 1 1.000000 1 -3.000000
244 2 626.794000 -2764.610000 585.976000 1 1.000000 1 -3.000000
245 2 621.593000 -2766.880000 577.834000 1 1.000000 1 -3.000000
246 2 616.776000 -2770.500000 569.942000 1 1.000000 1 -3.000000
247 2 610.272000 -2773.380000 563.249000 1 1.000000 1 -3.000000
248 2 606.484000 -2776.790000 554.775000 1 1.000000 1 -3.000000
249 2 602.668000 -2777.750000 545.668000 1 1.000000 1 -3.000000
250 2 598.302000 -2778.910000 536.935000 1 1.000000 1 -3.000000
251 2 590.558000 -2779.160000 530.743000 1 1.000000 1 -3.000000
252 2 583.692000 -2779.680000 523.650000 1 1.000000 1 -3.000000
253 2 574.830000 -2779.620000 519.363000 1 1.000000 1 -3.000000
254 2 567.113000 -2778.740000 513.318000 1 1.000000 1 -3.000000
255 2 558.328000 -2778.730000 508.726000 1 1.000000 1 -3.000000
256 2 550.837000 -2777.770000 502.422000 1 1.000000 1 -3.000000
257 2 542.590000 -2778.610000 497.035000 1 1.000000 1 -3.000000
258 2 534.180000 -2778.910000 492.024000 1 1.000000 1 -3.000000
259 2 525.039000 -2778.900000 488.251000 1 1.000000 1 -3.000000
260 2 515.265000 -2778.560000 486.625000 1 1.000000 1 -3.000000
261 2 505.518000 -2779.350000 485.000000 1 1.000000 1 -3.000000
262 2 497.320000 -2782.210000 489.830000 1 1.000000 1 -3.000000
263 2 489.560000 -2785.910000 494.830000 1 1.000000 1 -3.000000
264 2 481.765000 -2788.670000 500.352000 1 1.000000 11 -3.000000
265 1 499.222000 -2769.390000 539.726000 1 1.000000 11 0.000000
266 3 497.440000 -2742.370000 517.695000 1 1.000000 11 0.000000
267 2 514.955000 -2733.330000 565.716000 1 1.000000 11 -3.000000
268 2 511.041000 -2726.960000 559.177000 1 1.000000 1 -3.000000
269 2 514.421000 -2719.620000 553.556000 1 1.000000 1 -3.000000
270 2 521.126000 -2713.310000 549.639000 1 1.000000 1 -3.000000
271 2 527.213000 -2705.910000 547.301000 1 1.000000 1 -3.000000
272 2 533.196000 -2698.790000 543.894000 1 1.000000 1 -3.000000
273 2 537.180000 -2691.780000 538.063000 1 1.000000 1 -3.000000
274 2 538.246000 -2684.780000 531.067000 1 1.000000 1 -3.000000
275 2 538.266000 -2677.610000 524.188000 1 1.000000 1 -3.000000
276 2 540.167000 -2669.350000 518.975000 1 1.000000 1 -3.000000
277 2 542.459000 -2661.230000 513.962000 1 1.000000 1 -3.000000
278 2 541.649000 -2652.160000 510.026000 1 1.000000 1 -3.000000
279 2 545.837000 -2643.130000 510.866000 1 1.000000 1 -3.000000
280 2 551.634000 -2635.940000 514.155000 1 1.000000 1 -3.000000
281 2 555.508000 -2627.580000 517.608000 1 1.000000 1 -3.000000
282 2 558.880000 -2618.670000 520.599000 1 1.000000 1 -3.000000
283 2 561.051000 -2609.470000 523.354000 1 1.000000 1 -3.000000
284 2 565.119000 -2600.510000 524.892000 1 1.000000 1 -3.000000
285 2 570.577000 -2593.060000 528.347000 1 1.000000 1 -3.000000
286 2 575.190000 -2586.070000 533.538000 1 1.000000 1 -3.000000
287 2 577.201000 -2576.900000 536.905000 1 1.000000 1 -3.000000
288 2 580.124000 -2567.620000 539.338000 1 1.000000 1 -3.000000
289 2 583.795000 -2559.410000 543.634000 1 1.000000 1 -3.000000
290 2 589.343000 -2553.770000 549.734000 1 1.000000 1 -3.000000
291 2 593.664000 -2550.020000 557.891000 1 1.000000 12 -3.000000
292 1 637.307000 -2567.800000 555.588000 1 1.000000 12 0.000000
293 3 617.688000 -2593.070000 541.390000 1 1.000000 12 0.000000
294 2 668.745000 -2601.330000 544.926000 1 1.000000 12 -3.000000
295 2 663.231000 -2608.600000 540.795000 1 1.000000 1 -3.000000
296 2 656.483000 -2615.310000 537.718000 1 1.000000 1 -3.000000
297 2 649.421000 -2622.010000 535.929000 1 1.000000 1 -3.000000
298 2 642.451000 -2628.590000 533.787000 1 1.000000 1 -3.000000
299 2 633.901000 -2632.980000 531.569000 1 1.000000 1 -3.000000
300 2 626.359000 -2633.800000 525.183000 1 1.000000 1 -3.000000
301 2 618.627000 -2630.790000 519.750000 1 1.000000 1 -3.000000
302 2 610.663000 -2629.410000 514.091000 1 1.000000 1 -3.000000
303 2 603.421000 -2627.280000 507.511000 1 1.000000 1 -3.000000
304 2 597.455000 -2625.780000 499.719000 1 1.000000 1 -3.000000
305 2 589.808000 -2622.940000 494.164000 1 1.000000 1 -3.000000
306 2 582.032000 -2620.070000 488.658000 1 1.000000 1 -3.000000
307 2 574.977000 -2617.370000 482.308000 1 1.000000 1 -3.000000
308 2 569.467000 -2616.350000 474.303000 1 1.000000 1 -3.000000
309 2 561.245000 -2614.950000 468.888000 1 1.000000 1 -3.000000
310 2 555.239000 -2616.220000 461.064000 1 1.000000 1 -3.000000
311 2 548.807000 -2615.870000 453.488000 1 1.000000 1 -3.000000
312 2 544.356000 -2613.300000 445.152000 1 1.000000 1 -3.000000
313 2 536.959000 -2616.810000 439.512000 1 1.000000 1 -3.000000
314 2 531.372000 -2619.960000 432.048000 1 1.000000 1 -3.000000
315 2 523.952000 -2620.380000 425.431000 1 1.000000 1 -3.000000
316 2 516.633000 -2618.800000 419.025000 1 1.000000 1 -3.000000
317 2 510.627000 -2616.510000 411.410000 1 1.000000 1 -3.000000
318 2 504.811000 -2614.850000 403.538000 1 1.000000 13 -3.000000
319 1 498.156000 -2569.540000 415.107000 1 1.000000 13 0.000000
320 3 530.362000 -2576.220000 427.207000 1 1.000000 13 0.000000
321 2 509.834000 -2529.570000 437.314000 1 1.000000 13 -3.000000
322 2 513.968000 -2532.580000 445.822000 1 1.000000 1 -3.000000
323 2 516.292000 -2533.390000 455.321000 1 1.000000 1 -3.000000
324 2 518.652000 -2530.860000 464.602000 1 1.000000 1 -3.000000
325 2 519.587000 -2528.390000 474.141000 1 1.000000 1 -3.000000
326 2 518.738000 -2523.510000 482.896000 1 1.000000 1 -3.000000
327 2 520.407000 -2515.530000 488.564000 1 1.000000 1 -3.000000
328 2 522.504000 -2509.710000 496.307000 1 1.000000 1 -3.000000
329 2 524.592000 -2504.700000 504.643000 1 1.000000 1 -3.000000
330 2 525.990000 -2500.480000 513.464000 1 1.000000 1 -3.000000
331 2 524.141000 -2495.450000 521.725000 1 1.000000 1 -3.000000
332 2 523.121000 -2489.130000 529.217000 1 1.000000 1 -3.000000
333 2 519.670000 -2482.070000 535.290000 1 1.000000 1 -3.000000
334 2 515.194000 -2477.700000 543.008000 1 1.000000 1 -3.000000
335 2 512.819000 -2477.130000 552.621000 1 1.000000 1 -3.000000
336 2 511.154000 -2476.620000 562.301000 1 1.000000 1 -3.000000
337 2 508.959000 -2476.250000 572.036000 1 1.000000 1 -3.000000
338 2 504.630000 -2476.540000 580.896000 1 1.000000 1 -3.000000
339 2 501.437000 -2480.270000 589.519000 1 1.000000 1 -3.000000
340 2 496.607000 -2483.730000 597.431000 1 1.000000 1 -3.000000
341 2 489.612000 -2486.950000 603.694000 1 1.000000 1 -3.000000
342 2 482.190000 -2489.530000 609.786000 1 1.000000 1 -3.000000
343 2 475.806000 -2495.860000 614.011000 1 1.000000 1 -3.000000
344 2 470.720000 -2504.020000 616.542000 1 1.000000 1 -3.000000
345 2 465.424000 -2511.770000 619.624000 1 1.000000 14 -3.000000
346 1 460.735000 -2498.040000 664.527000 1 1.000000 14 0.000000
347 3 452.943000 -2469.040000 646.529000 1 1.000000 14 0.000000
348 2 452.578000 -2466.100000 698.301000 1 1.000000 14 -3.000000
349 2 454.875000 -2456.720000 696.105000 1 1.000000 1 -3.000000
350 2 459.474000 -2448.120000 693.859000 1 1.000000 1 -3.000000
351 2 465.783000 -2441.060000 690.906000 1 1.000000 1 -3.000000
352 2 473.599000 -2435.070000 691.546000 1 1.000000 1 -3.000000
353 2 481.552000 -2429.290000 692.613000 1 1.000000 1 -3.000000
354 2 490.005000 -2424.430000 691.393000 1 1.000000 1 -3.000000
355 2 498.039000 -2418.870000 692.767000 1 1.000000 1 -3.000000
356 2 504.790000 -2411.940000 694.132000 1 1.000000 1 -3.000000
357 2 512.421000 -2406.130000 696.714000 1 1.000000 1 -3.000000
358 2 519.674000 -2400.040000 699.244000 1 1.000000 1 -3.000000
359 2 527.199000 -2396.780000 704.691000 1 1.000000 1 -3.000000
360 2 534.183000 -2391.610000 709.318000 1 1.000000 1 -3.000000
361 2 539.035000 -2382.990000 709.745000 1 1.000000 1 -3.000000
362 2 544.373000 -2374.880000 711.711000 1 1.000000 1 -3.000000
363 2 549.137000 -2367.740000 716.720000 1 1.000000 1 -3.000000
364 2 555.755000 -2360.420000 717.666000 1 1.000000 1 -3.000000
365 2 562.084000 -2353.570000 721.099000 1 1.000000 1 -3.000000
366 2 565.478000 -2347.960000 728.557000 1 1.000000 1 -3.000000
367 2 564.733000 -2344.210000 737.652000 1 1.000000 1 -3.000000
368 2 561.245000 -2338.540000 744.901000 1 1.000000 1 -3.000000
369 2 557.551000 -2333.270000 752.443000 1 1.000000 1 -3.000000
370 2 551.749000 -2331.030000 760.202000 1 1.000000 1 -3.000000
371 2 545.994000 -2327.490000 767.498000 1 1.000000 1 -3.000000
372 2 544.396000 -2321.480000 775.095000 1 1.000000 15 -3.000000
373 1 572.186000 -2283.340000 775.768000 1 1.000000 15 0.000000
374 3 586.104000 -2302.910000 750.373000 1 1.000000 15 0.000000
375 2 609.188000 -2257.770000 761.731000 1 1.000000 15 -3.000000
376 2 610.660000 -2263.370000 753.730000 1 1.000000 1 -3.000000
377 2 614.140000 -2269.550000 746.645000 1 1.000000 1 -3.000000
378 2 616.922000 -2274.140000 738.392000 1 1.000000 1 -3.000000
379 2 617.461000 -2276.950000 728.978000 1 1.000000 1 -3.000000
380 2 616.404000 -2280.570000 719.840000 1 1.000000 1 -3.000000
381 2 616.087000 -2287.070000 712.465000 1 1.000000 1 -3.000000
382 2 617.121000 -2295.520000 707.493000 1 1.000000 1 -3.000000
383 2 615.258000 -2303.330000 701.510000 1 1.000000 1 -3.000000
384 2 611.035000 -2305.350000 692.965000 1 1.000000 1 -3.000000
385 2 603.362000 -2305.990000 686.509000 1 1.000000 1 -3.000000
386 2 597.275000 -2308.320000 678.826000 1 1.000000 1 -3.000000
387 2 592.645000 -2313.910000 672.046000 1 1.000000 1 -3.000000
388 2 585.614000 -2315.690000 665.334000 1 1.000000 1 -3.000000
389 2 580.171000 -2319.380000 658.039000 1 1.000000 1 -3.000000
390 2 575.183000 -2325.490000 651.978000 1 1.000000 1 -3.000000
391 2 569.960000 -2332.060000 646.642000 1 1.000000 1 -3.000000
392 2 565.391000 -2337.910000 639.957000 1 1.000000 1 -3.000000
393 2 557.823000 -2342.380000 635.309000 1 1.000000 1 -3.000000
394 2 549.292000 -2346.960000 633.265000 1 1.000000 1 -3.000000
395 2 540.848000 -2350.030000 629.079000 1 1.000000 1 -3.000000
396 2 533.511000 -2353.250000 623.176000 1 1.000000 1 -3.000000
397 2 526.604000 -2355.860000 616.589000 1 1.000000 1 -3.000000
398 2 519.298000 -2356.970000 609.950000 1 1.000000 1 -3.000000
399 2 510.524000 -2357.150000 605.317000 1 1.000000 16 -3.000000
400 1 534.240000 -2364.740000 565.326000 1 1.000000 16 0.000000
401 3 558.269000 -2350.020000 586.019000 1 1.000000 16 0.000000
402 2 571.750000 -2360.200000 536.951000 1 1.000000 16 -3.000000
403 2 578.739000 -2355.710000 542.443000 1 1.000000 1 -3.000000
404 2 585.028000 -2350.400000 548.138000 1 1.000000 1 -3.000000
405 2 590.950000 -2344.450000 553.272000 1 1.000000 1 -3.000000
406 2 594.974000 -2337.230000 558.744000 1 1.000000 1 -3.000000
407 2 595.475000 -2331.750000 566.951000 1 1.000000 1 -3.000000
408 2 597.677000 -2327.560000 575.595000 1 1.000000 1 -3.000000
409 2 598.599000 -2321.590000 583.437000 1 1.000000 1 -3.000000
410 2 602.918000 -2315.550000 590.105000 1 1.000000 1 -3.000000
411 2 608.100000 -2309.000000 595.605000 1 1.000000 1 -3.000000
412 2 612.301000 -2302.740000 601.979000 1 1.000000 1 -3.000000
413 2 619.185000 -2296.520000 605.536000 1 1.000000 1 -3.000000
414 2 623.725000 -2289.550000 610.949000 1 1.000000 1 -3.000000
415 2 629.834000 -2285.430000 617.687000 1 1.000000 1 -3.000000
416 2 635.892000 -2282.390000 624.762000 1 1.000000 1 -3.000000
417 2 640.691000 -2277.470000 631.948000 1 1.000000 1 -3.000000
418 2 643.298000 -2270.230000 638.288000 1 1.000000 1 -3.000000
419 2 645.658000 -2264.020000 645.476000 1 1.000000 1 -3.000000
420 2 646.117000 -2257.950000 653.264000 1 1.000000 1 -3.000000
421 2 646.625000 -2253.280000 662.046000 1 1.000000 1 -3.000000
422 2 648.426000 -2245.700000 668.297000 1 1.000000 1 -3.000000
423 2 650.512000 -2236.940000 672.265000 1 1.000000 1 -3.000000
424 2 653.836000 -2228.550000 676.323000 1 1.000000 1 -3.000000
425 2 655.219000 -2219.110000 679.036000 1 1.000000 1 -3.000000
426 2 657.434000 -2209.880000 681.884000 1 1.000000 17 -3.000000
427 1 682.292000 -2195.670000 644.420000 1 1.000000 17 0.000000
428 3 665.258000 -2223.770000 632.527000 1 1.000000 17 0.000000
429 2 698.884000 -2200.470000 600.495000 1 1.000000 17 -3.000000
430 2 691.671000 -2206.080000 596.563000 1 1.000000 1 -3.000000
431 2 684.060000 -2211.910000 594.041000 1 1.000000 1 -3.000000
432 2 677.822000 -2218.650000 590.192000 1 1.000000 1 -3.000000
433 2 671.622000 -2226.180000 588.299000 1 1.000000 1 -3.000000
434 2 664.630000 -2233.230000 587.846000 1 1.000000 1 -3.000000
435 2 656.520000 -2238.720000 589.477000 1 1.000000 1 -3.000000
436 2 648.176000 -2243.820000 590.635000 1 1.000000 1 -3.000000
437 2 641.153000 -2249.620000 594.397000 1 1.000000 1 -3.000000
438 2 633.330000 -2253.570000 599.019000 1 1.000000 1 -3.000000
439 2 625.509000 -2257.670000 603.573000 1 1.000000 1 -3.000000
440 2 616.524000 -2255.380000 607.154000 1 1.000000 1 -3.000000
441 2 608.160000 -2253.010000 611.831000 1 1.000000 1 -3.000000
442 2 601.163000 -2249.700000 618.017000 1 1.000000 1 -3.000000
443 2 594.178000 -2248.000000 624.710000 1 1.000000 1 -3.000000
444 2 585.133000 -2248.000000 628.624000 1 1.000000 1 -3.000000
445 2 576.017000 -2249.330000 632.496000 1 1.000000 1 -3.000000
446 2 567.773000 -2249.440000 638.106000 1 1.000000 1 -3.000000
447 2 560.327000 -2249.810000 644.610000 1 1.000000 1 -3.000000
448 2 551.406000 -2251.010000 648.908000 1 1.000000 1 -3.000000
449 2 542.320000 -2251.460000 652.873000 1 1.000000 1 -3.000000
450 2 533.322000 -2251.380000 656.955000 1 1.000000 1 -3.000000
451 2 525.699000 -2249.240000 663.030000 1 1.000000 1 -3.000000
452 2 517.013000 -2246.550000 666.965000 1 1.000000 1 -3.000000
453 2 508.497000 -2242.960000 670.258000 1 1.000000 18 -3.000000
454 1 490.907000 -2223.730000 631.004000 1 1.000000 18 0.000000
455 3 509.764000 -2250.590000 618.944000 1 1.000000 18 0.000000
456 2 485.688000 -2220.440000 584.232000 1 1.000000 18 -3.000000
457 2 494.353000 -2225.120000 584.710000 1 1.000000 1 -3.000000
458 2 502.524000 -2230.630000 585.440000 1 1.000000 1 -3.000000
459 2 511.801000 -2232.620000 588.483000 1 1.000000 1 -3.000000
460 2 521.008000 -2229.610000 589.986000 1 1.000000 1 -3.000000
461 2 530.349000 -2226.890000 587.614000 1 1.000000 1 -3.000000
462 2 539.515000 -2223.780000 585.269000 1 1.000000 1 -3.000000
463 2 549.391000 -2223.100000 585.273000 1 1.000000 1 -3.000000
464 2 558.985000 -2221.280000 585.618000 1 1.000000 1 -3.000000
465 2 568.730000 -2219.530000 584.650000 1 1.000000 1 -3.000000