LAMMPS data file

4067 atoms
4067 ellipsoids
4516 bonds
8882 angles
0 dihedrals

3 atom types
5 bond types
12 angle types
0 dihedral types

-4631.092947 4670.465898 xlo xhi
-4631.092947 4670.465898 ylo yhi
-4631.092947 4670.465898 zlo zhi

Masses

1 196016.000000
2 1950.000000
3 19500.000000

Atoms

1 2 764.175000 -3042.620000 354.112000 1 1.000000 1 -3.000000
2 2 761.953000 -3047.690000 345.906000 1 1.000000 1 -3.000000
3 2 757.952000 -3050.810000 337.262000 1 1.000000 1 -3.000000
4 2 753.162000 -3053.880000 329.239000 1 1.000000 1 -3.000000
5 2 748.641000 -3053.200000 320.408000 1 1.000000 1 -3.000000
6 2 744.310000 -3053.590000 311.566000 1 1.000000 1 -3.000000
7 2 742.697000 -3050.280000 302.333000 1 1.000000 1 -3.000000
8 2 744.114000 -3046.520000 293.291000 1 1.000000 1 -3.000000
9 2 745.779000 -3045.750000 283.616000 1 1.000000 1 -3.000000
10 2 746.276000 -3042.540000 274.241000 1 1.000000 1 -3.000000
11 2 743.800000 -3035.140000 268.154000 1 1.000000 1 -3.000000
12 2 741.020000 -3027.320000 262.876000 1 1.000000 1 -3.000000
13 2 737.930000 -3020.260000 256.710000 1 1.000000 1 -3.000000
14 2 734.401000 -3013.420000 250.330000 1 1.000000 1 -3.000000
15 2 728.761000 -3007.190000 245.055000 1 1.000000 1 -3.000000
16 2 724.330000 -3002.210000 237.768000 1 1.000000 1 -3.000000
17 2 724.107000 -2997.270000 229.262000 1 1.000000 1 -3.000000
18 2 726.408000 -2993.340000 220.455000 1 1.000000 1 -3.000000
19 2 729.453000 -2989.390000 211.930000 1 1.000000 1 -3.000000
20 2 733.696000 -2982.300000 206.600000 1 1.000000 1 -3.000000
21 2 739.189000 -2975.430000 202.017000 1 1.000000 2 -3.000000
22 1 764.594000 -2978.850000 241.586000 1 1.000000 2 0.000000
23 3 731.653000 -2980.480000 253.079000 1 1.000000 2 0.000000
24 2 769.842000 -2984.050000 288.200000 1 1.000000 2 -3.000000
25 2 761.348000 -2989.160000 288.692000 1 1.000000 1 -3.000000
26 2 754.070000 -2995.560000 286.967000 1 1.000000 1 -3.000000
27 2 744.998000 -2999.250000 288.547000 1 1.000000 1 -3.000000
28 2 735.437000 -3002.370000 288.795000 1 1.000000 1 -3.000000
29 2 725.758000 -3003.020000 290.309000 1 1.000000 1 -3.000000
30 2 718.757000 -3005.550000 296.831000 1 1.000000 1 -3.000000
31 2 709.829000 -3004.580000 300.852000 1 1.000000 1 -3.000000
32 2 702.020000 -3001.880000 306.301000 1 1.000000 1 -3.000000
33 2 693.032000 -2999.690000 309.730000 1 1.000000 1 -3.000000
34 2 684.437000 -2996.470000 313.608000 1 1.000000 1 -3.000000
35 2 676.473000 -2990.660000 315.609000 1 1.000000 1 -3.000000
36 2 669.422000 -2983.840000 314.871000 1 1.000000 1 -3.000000
37 2 663.880000 -2977.090000 309.933000 1 1.000000 1 -3.000000
38 2 658.107000 -2970.060000 305.670000 1 1.000000 1 -3.000000
39 2 651.489000 -2962.990000 303.333000 1 1.000000 1 -3.000000
40 2 645.256000 -2957.600000 297.946000 1 1.000000 1 -3.000000
41 2 637.367000 -2954.280000 292.924000 1 1.000000 1 -3.000000
42 2 629.577000 -2949.890000 288.945000 1 1.000000 1 -3.000000
43 2 620.826000 -2946.840000 285.416000 1 1.000000 1 -3.000000
44 2 612.480000 -2942.610000 282.196000 1 1.000000 1 -3.000000
45 2 602.824000 -2941.480000 280.886000 1 1.000000 1 -3.000000
46 2 593.868000 -2938.230000 278.135000 1 1.000000 1 -3.000000
47 2 584.009000 -2937.300000 277.559000 1 1.000000 1 -3.000000
48 2 574.064000 -2937.330000 277.848000 1 1.000000 3 -3.000000
49 1 562.008000 -2963.760000 315.055000 1 1.000000 3 0.000000
50 3 597.040000 -2964.170000 315.865000 1 1.000000 3 0.000000
51 2 571.640000 -2990.200000 352.913000 1 1.000000 3 -3.000000
52 2 579.895000 -2985.060000 351.769000 1 1.000000 1 -3.000000
53 2 589.152000 -2981.690000 352.033000 1 1.000000 1 -3.000000
54 2 598.766000 -2979.510000 351.963000 1 1.000000 1 -3.000000
55 2 608.472000 -2980.790000 352.859000 1 1.000000 1 -3.000000
56 2 618.244000 -2979.110000 352.383000 1 1.000000 1 -3.000000
57 2 627.521000 -2975.760000 353.134000 1 1.000000 1 -3.000000
58 2 634.745000 -2970.340000 357.273000 1 1.000000 1 -3.000000
59 2 642.755000 -2965.660000 360.898000 1 1.000000 1 -3.000000
60 2 650.033000 -2962.270000 366.840000 1 1.000000 1 -3.000000
61 2 657.798000 -2957.170000 370.322000 1 1.000000 1 -3.000000
62 2 664.725000 -2952.380000 375.362000 1 1.000000 1 -3.000000
63 2 672.029000 -2948.690000 380.913000 1 1.000000 1 -3.000000
64 2 678.443000 -2944.840000 387.336000 1 1.000000 1 -3.000000
65 2 685.641000 -2944.790000 394.156000 1 1.000000 1 -3.000000
66 2 692.409000 -2942.750000 401.180000 1 1.000000 1 -3.000000
67 2 698.357000 -2941.690000 409.028000 1 1.000000 1 -3.000000
68 2 703.967000 -2943.270000 416.946000 1 1.000000 1 -3.000000
69 2 711.759000 -2942.900000 423.053000 1 1.000000 1 -3.000000
70 2 721.264000 -2943.120000 425.951000 1 1.000000 1 -3.000000
71 2 730.138000 -2946.030000 429.292000 1 1.000000 1 -3.000000
72 2 738.963000 -2950.290000 430.692000 1 1.000000 1 -3.000000
73 2 748.666000 -2952.150000 430.873000 1 1.000000 1 -3.000000
74 2 758.299000 -2951.430000 433.005000 1 1.000000 1 -3.000000
75 2 767.828000 -2950.560000 435.874000 1 1.000000 4 -3.000000
76 1 752.515000 -2933.360000 477.066000 1 1.000000 4 0.000000
77 3 724.752000 -2951.020000 465.009000 1 1.000000 4 0.000000
78 2 720.341000 -2927.360000 511.000000 1 1.000000 4 -3.000000
79 2 711.347000 -2928.060000 506.992000 1 1.000000 1 -3.000000
80 2 704.313000 -2930.890000 500.585000 1 1.000000 1 -3.000000
81 2 695.862000 -2933.260000 496.108000 1 1.000000 1 -3.000000
82 2 686.136000 -2934.110000 494.841000 1 1.000000 1 -3.000000
83 2 676.284000 -2934.380000 494.420000 1 1.000000 1 -3.000000
84 2 666.955000 -2935.100000 497.914000 1 1.000000 1 -3.000000
85 2 657.980000 -2933.790000 501.871000 1 1.000000 1 -3.000000
86 2 649.153000 -2933.620000 506.576000 1 1.000000 1 -3.000000
87 2 640.138000 -2932.630000 510.625000 1 1.000000 1 -3.000000
88 2 631.466000 -2932.600000 515.440000 1 1.000000 1 -3.000000
89 2 622.033000 -2932.020000 518.493000 1 1.000000 1 -3.000000
90 2 612.582000 -2933.730000 521.164000 1 1.000000 1 -3.000000
91 2 603.101000 -2934.720000 523.762000 1 1.000000 1 -3.000000
92 2 593.361000 -2935.860000 525.940000 1 1.000000 1 -3.000000
93 2 584.955000 -2940.110000 528.845000 1 1.000000 1 -3.000000
94 2 579.398000 -2946.690000 533.435000 1 1.000000 1 -3.000000
95 2 576.697000 -2956.120000 535.111000 1 1.000000 1 -3.000000
96 2 572.141000 -2964.590000 537.617000 1 1.000000 1 -3.000000
97 2 571.525000 -2973.410000 541.938000 1 1.000000 1 -3.000000
98 2 570.121000 -2982.220000 546.437000 1 1.000000 1 -3.000000
99 2 567.271000 -2991.210000 549.527000 1 1.000000 1 -3.000000
100 2 563.471000 -3000.080000 551.676000 1 1.000000 1 -3.000000
101 2 562.717000 -3009.940000 552.409000 1 1.000000 1 -3.000000
102 2 564.649000 -3018.600000 556.835000 1 1.000000 5 -3.000000
103 1 590.985000 -3035.270000 521.416000 1 1.000000 5 0.000000
104 3 602.495000 -3002.570000 525.413000 1 1.000000 5 0.000000
105 2 625.791000 -3032.310000 489.730000 1 1.000000 5 -3.000000
106 2 629.454000 -3024.190000 494.009000 1 1.000000 1 -3.000000
107 2 634.974000 -3017.260000 498.302000 1 1.000000 1 -3.000000
108 2 640.070000 -3012.920000 505.725000 1 1.000000 1 -3.000000
109 2 646.642000 -3010.770000 512.980000 1 1.000000 1 -3.000000
110 2 653.688000 -3009.430000 519.999000 1 1.000000 1 -3.000000
111 2 658.385000 -3007.850000 528.525000 1 1.000000 1 -3.000000
112 2 662.325000 -3006.950000 537.620000 1 1.000000 1 -3.000000
113 2 664.149000 -3005.570000 547.280000 1 1.000000 1 -3.000000
114 2 666.231000 -3002.860000 556.557000 1 1.000000 1 -3.000000
115 2 671.677000 -3001.110000 564.584000 1 1.000000 1 -3.000000
116 2 678.250000 -3001.430000 572.118000 1 1.000000 1 -3.000000
117 2 683.611000 -3003.290000 580.145000 1 1.000000 1 -3.000000
118 2 688.856000 -3005.400000 588.300000 1 1.000000 1 -3.000000
119 2 695.887000 -3011.090000 592.584000 1 1.000000 1 -3.000000
120 2 703.471000 -3016.750000 595.410000 1 1.000000 1 -3.000000
121 2 711.577000 -3020.510000 599.998000 1 1.000000 1 -3.000000
122 2 720.170000 -3022.980000 604.232000 1 1.000000 1 -3.000000
123 2 728.761000 -3027.240000 606.715000 1 1.000000 1 -3.000000
124 2 737.267000 -3031.740000 608.772000 1 1.000000 1 -3.000000
125 2 745.812000 -3036.630000 610.483000 1 1.000000 1 -3.000000
126 2 754.723000 -3041.040000 610.655000 1 1.000000 1 -3.000000
127 2 764.138000 -3044.160000 609.991000 1 1.000000 1 -3.000000
128 2 773.592000 -3047.090000 609.130000 1 1.000000 1 -3.000000
129 2 782.920000 -3048.060000 606.201000 1 1.000000 6 -3.000000
130 1 787.804000 -3028.400000 563.621000 1 1.000000 6 0.000000
131 3 757.608000 -3015.120000 575.118000 1 1.000000 6 0.000000
132 2 773.295000 -3001.620000 527.557000 1 1.000000 6 -3.000000
133 2 765.553000 -2998.520000 532.915000 1 1.000000 1 -3.000000
134 2 757.795000 -2993.740000 536.433000 1 1.000000 1 -3.000000
135 2 751.294000 -2988.480000 542.034000 1 1.000000 1 -3.000000
136 2 744.602000 -2983.220000 547.020000 1 1.000000 1 -3.000000
137 2 738.028000 -2979.250000 553.221000 1 1.000000 1 -3.000000
138 2 731.691000 -2973.270000 557.907000 1 1.000000 1 -3.000000
139 2 725.788000 -2966.630000 562.258000 1 1.000000 1 -3.000000
140 2 721.028000 -2960.240000 568.056000 1 1.000000 1 -3.000000
141 2 716.978000 -2957.510000 576.631000 1 1.000000 1 -3.000000
142 2 713.911000 -2955.850000 585.855000 1 1.000000 1 -3.000000
143 2 711.543000 -2955.400000 595.423000 1 1.000000 1 -3.000000
144 2 707.821000 -2957.070000 604.402000 1 1.000000 1 -3.000000
145 2 705.406000 -2960.260000 613.534000 1 1.000000 1 -3.000000
146 2 705.355000 -2961.920000 623.354000 1 1.000000 1 -3.000000
147 2 703.161000 -2960.220000 632.772000 1 1.000000 1 -3.000000
148 2 697.309000 -2958.990000 640.628000 1 1.000000 1 -3.000000
149 2 690.695000 -2957.320000 647.719000 1 1.000000 1 -3.000000
150 2 682.980000 -2957.320000 653.925000 1 1.000000 1 -3.000000
151 2 674.117000 -2960.520000 656.806000 1 1.000000 1 -3.000000
152 2 664.612000 -2963.260000 658.087000 1 1.000000 1 -3.000000
153 2 654.801000 -2965.200000 658.610000 1 1.000000 1 -3.000000
154 2 647.053000 -2967.330000 664.568000 1 1.000000 1 -3.000000
155 2 640.334000 -2968.760000 671.680000 1 1.000000 1 -3.000000
156 2 633.820000 -2973.990000 676.831000 1 1.000000 7 -3.000000
157 1 646.215000 -2963.830000 721.215000 1 1.000000 7 0.000000
158 3 666.575000 -2942.670000 702.154000 1 1.000000 7 0.000000
159 2 674.208000 -2943.620000 753.433000 1 1.000000 7 -3.000000
160 2 673.365000 -2935.280000 748.177000 1 1.000000 1 -3.000000
161 2 673.765000 -2926.380000 743.847000 1 1.000000 1 -3.000000
162 2 675.655000 -2918.910000 737.672000 1 1.000000 1 -3.000000
163 2 677.782000 -2910.870000 732.267000 1 1.000000 1 -3.000000
164 2 679.916000 -2903.610000 725.829000 1 1.000000 1 -3.000000
165 2 681.944000 -2896.830000 719.108000 1 1.000000 1 -3.000000
166 2 686.863000 -2889.620000 714.557000 1 1.000000 1 -3.000000
167 2 692.134000 -2882.150000 710.529000 1 1.000000 1 -3.000000
168 2 694.927000 -2873.030000 708.346000 1 1.000000 1 -3.000000
169 2 697.049000 -2863.920000 705.089000 1 1.000000 1 -3.000000
170 2 697.657000 -2854.050000 704.185000 1 1.000000 1 -3.000000
171 2 698.826000 -2845.040000 700.674000 1 1.000000 1 -3.000000
172 2 700.653000 -2836.690000 695.681000 1 1.000000 1 -3.000000
173 2 700.324000 -2828.220000 690.462000 1 1.000000 1 -3.000000
174 2 702.948000 -2818.920000 688.004000 1 1.000000 1 -3.000000
175 2 704.307000 -2809.960000 684.119000 1 1.000000 1 -3.000000
176 2 703.890000 -2801.420000 679.255000 1 1.000000 1 -3.000000
177 2 701.814000 -2793.380000 673.928000 1 1.000000 1 -3.000000
178 2 698.591000 -2785.730000 668.528000 1 1.000000 1 -3.000000
179 2 697.562000 -2776.120000 666.129000 1 1.000000 1 -3.000000
180 2 696.490000 -2768.320000 660.083000 1 1.000000 1 -3.000000
181 2 694.462000 -2759.550000 655.592000 1 1.000000 1 -3.000000
182 2 689.147000 -2753.160000 650.395000 1 1.000000 1 -3.000000
183 2 684.371000 -2745.990000 645.524000 1 1.000000 8 -3.000000
184 1 718.961000 -2717.450000 660.069000 1 1.000000 8 0.000000
185 3 734.284000 -2748.910000 659.241000 1 1.000000 8 0.000000
186 2 762.570000 -2708.550000 675.657000 1 1.000000 8 -3.000000
187 2 766.024000 -2712.770000 667.412000 1 1.000000 1 -3.000000
188 2 767.706000 -2715.530000 658.057000 1 1.000000 1 -3.000000
189 2 770.290000 -2720.040000 649.687000 1 1.000000 1 -3.000000
190 2 775.233000 -2723.260000 641.642000 1 1.000000 1 -3.000000
191 2 774.574000 -2723.730000 631.766000 1 1.000000 1 -3.000000
192 2 776.072000 -2725.720000 622.188000 1 1.000000 1 -3.000000
193 2 774.389000 -2726.760000 612.526000 1 1.000000 1 -3.000000
194 2 773.970000 -2725.090000 602.679000 1 1.000000 1 -3.000000
195 2 771.736000 -2722.380000 593.394000 1 1.000000 1 -3.000000
196 2 770.750000 -2719.090000 584.111000 1 1.000000 1 -3.000000
197 2 772.761000 -2713.320000 576.214000 1 1.000000 1 -3.000000
198 2 775.660000 -2707.790000 568.418000 1 1.000000 1 -3.000000
199 2 778.922000 -2699.670000 563.941000 1 1.000000 1 -3.000000
200 2 777.385000 -2690.920000 559.477000 1 1.000000 1 -3.000000
201 2 774.590000 -2682.590000 554.857000 1 1.000000 1 -3.000000
202 2 769.317000 -2675.420000 550.763000 1 1.000000 1 -3.000000
203 2 764.304000 -2667.390000 547.691000 1 1.000000 1 -3.000000
204 2 760.860000 -2659.750000 542.524000 1 1.000000 1 -3.000000
205 2 758.606000 -2650.010000 541.394000 1 1.000000 1 -3.000000
206 2 757.890000 -2642.040000 535.548000 1 1.000000 1 -3.000000
207 2 757.689000 -2632.800000 531.831000 1 1.000000 1 -3.000000
208 2 754.502000 -2624.600000 527.233000 1 1.000000 1 -3.000000
209 2 754.658000 -2616.240000 522.231000 1 1.000000 1 -3.000000
210 2 749.780000 -2609.700000 516.554000 1 1.000000 9 -3.000000
211 1 753.804000 -2631.070000 474.697000 1 1.000000 9 0.000000
212 3 747.239000 -2657.540000 496.588000 1 1.000000 9 0.000000
213 2 751.626000 -2668.410000 446.009000 1 1.000000 9 -3.000000
214 2 751.018000 -2675.080000 453.278000 1 1.000000 1 -3.000000
215 2 748.977000 -2681.690000 460.403000 1 1.000000 1 -3.000000
216 2 743.486000 -2687.410000 466.197000 1 1.000000 1 -3.000000
217 2 739.175000 -2691.810000 473.894000 1 1.000000 1 -3.000000
218 2 733.895000 -2694.150000 481.796000 1 1.000000 1 -3.000000
219 2 726.649000 -2698.490000 486.972000 1 1.000000 1 -3.000000
220 2 719.371000 -2702.500000 492.336000 1 1.000000 1 -3.000000
221 2 712.662000 -2708.170000 496.968000 1 1.000000 1 -3.000000
222 2 708.207000 -2716.080000 501.098000 1 1.000000 1 -3.000000
223 2 706.247000 -2724.760000 505.322000 1 1.000000 1 -3.000000
224 2 703.372000 -2734.150000 506.297000 1 1.000000 1 -3.000000
225 2 699.162000 -2743.040000 506.426000 1 1.000000 1 -3.000000
226 2 694.638000 -2751.780000 505.871000 1 1.000000 1 -3.000000
227 2 692.345000 -2760.010000 500.940000 1 1.000000 1 -3.000000
228 2 689.034000 -2767.700000 495.752000 1 1.000000 1 -3.000000
229 2 687.205000 -2776.450000 491.621000 1 1.000000 1 -3.000000
230 2 688.595000 -2784.980000 486.953000 1 1.000000 1 -3.000000
231 2 687.673000 -2794.700000 485.067000 1 1.000000 1 -3.000000
232 2 689.076000 -2803.620000 481.050000 1 1.000000 1 -3.000000
233 2 687.428000 -2812.300000 476.535000 1 1.000000 1 -3.000000
234 2 682.114000 -2820.630000 477.897000 1 1.000000 1 -3.000000
235 2 677.429000 -2829.120000 476.411000 1 1.000000 1 -3.000000
236 2 673.195000 -2838.120000 476.739000 1 1.000000 1 -3.000000
237 2 669.431000 -2847.290000 475.891000 1 1.000000 10 -3.000000
238 1 645.819000 -2843.140000 516.509000 1 1.000000 10 0.000000
239 3 657.972000 -2810.750000 511.158000 1 1.000000 10 0.000000
240 2 633.029000 -2820.100000 555.672000 1 1.000000 10 -3.000000
241 2 633.677000 -2811.290000 551.183000 1 1.000000 1 -3.000000
242 2 635.716000 -2803.560000 545.339000 1 1.000000 1 -3.000000
243 2 638.327000 -2794.260000 542.904000 1 1.000000 1 -3.000000
244 2 636.482000 -2784.590000 543.387000 1 1.000000 1 -3.000000
245 2 634.374000 -2775.010000 542.188000 1 1.000000 1 -3.000000
246 2 632.938000 -2765.230000 543.373000 1 1.000000 1 -3.000000
247 2 633.083000 -2755.390000 543.002000 1 1.000000 1 -3.000000
248 2 630.459000 -2746.120000 541.159000 1 1.000000 1 -3.000000
249 2 624.661000 -2738.140000 541.228000 1 1.000000 1 -3.000000
250 2 618.262000 -2730.770000 539.751000 1 1.000000 1 -3.000000
251 2 610.278000 -2725.030000 538.271000 1 1.000000 1 -3.000000
252 2 602.653000 -2718.860000 538.608000 1 1.000000 1 -3.000000
253 2 598.621000 -2709.870000 539.448000 1 1.000000 1 -3.000000
254 2 594.004000 -2701.080000 539.447000 1 1.000000 1 -3.000000
255 2 591.356000 -2691.730000 541.096000 1 1.000000 1 -3.000000
256 2 587.337000 -2682.920000 542.783000 1 1.000000 1 -3.000000
257 2 584.559000 -2673.440000 543.337000 1 1.000000 1 -3.000000
258 2 585.475000 -2663.880000 546.143000 1 1.000000 1 -3.000000
259 2 588.706000 -2655.830000 550.847000 1 1.000000 1 -3.000000
260 2 591.275000 -2648.260000 556.679000 1 1.000000 1 -3.000000
261 2 594.311000 -2640.790000 562.313000 1 1.000000 1 -3.000000
262 2 595.696000 -2631.320000 564.442000 1 1.000000 1 -3.000000
263 2 597.946000 -2621.680000 565.649000 1 1.000000 1 -3.000000
264 2 595.851000 -2612.090000 567.188000 1 1.000000 11 -3.000000
265 1 636.328000 -2596.860000 548.439000 1 1.000000 11 0.000000
266 3 636.507000 -2631.000000 541.160000 1 1.000000 11 0.000000
267 2 678.489000 -2603.340000 528.016000 1 1.000000 11 -3.000000
268 2 677.668000 -2611.000000 521.953000 1 1.000000 1 -3.000000
269 2 678.715000 -2619.950000 517.686000 1 1.000000 1 -3.000000
270 2 676.834000 -2629.190000 514.590000 1 1.000000 1 -3.000000
271 2 671.033000 -2637.000000 512.782000 1 1.000000 1 -3.000000
272 2 666.667000 -2644.660000 508.321000 1 1.000000 1 -3.000000
273 2 661.001000 -2651.900000 504.860000 1 1.000000 1 -3.000000
274 2 654.599000 -2659.140000 502.886000 1 1.000000 1 -3.000000
275 2 648.058000 -2664.450000 497.731000 1 1.000000 1 -3.000000
276 2 640.462000 -2668.750000 493.038000 1 1.000000 1 -3.000000
277 2 633.239000 -2672.060000 486.981000 1 1.000000 1 -3.000000
278 2 626.014000 -2675.530000 481.242000 1 1.000000 1 -3.000000
279 2 619.528000 -2675.570000 473.750000 1 1.000000 1 -3.000000
280 2 614.490000 -2676.290000 465.391000 1 1.000000 1 -3.000000
281 2 609.033000 -2681.300000 458.729000 1 1.000000 1 -3.000000
282 2 603.218000 -2687.290000 453.288000 1 1.000000 1 -3.000000
283 2 598.400000 -2694.470000 448.334000 1 1.000000 1 -3.000000
284 2 594.612000 -2703.550000 448.912000 1 1.000000 1 -3.000000
285 2 592.588000 -2712.770000 451.793000 1 1.000000 1 -3.000000
286 2 590.362000 -2722.160000 449.905000 1 1.000000 1 -3.000000
287 2 588.467000 -2731.680000 448.278000 1 1.000000 1 -3.000000
288 2 590.013000 -2741.430000 447.361000 1 1.000000 1 -3.000000
289 2 589.831000 -2751.220000 446.535000 1 1.000000 1 -3.000000
290 2 592.000000 -2760.850000 445.800000 1 1.000000 1 -3.000000
291 2 593.847000 -2769.440000 441.146000 1 1.000000 12 -3.000000
292 1 566.420000 -2787.890000 474.835000 1 1.000000 12 0.000000
293 3 557.776000 -2753.960000 475.257000 1 1.000000 12 0.000000
294 2 531.736000 -2785.910000 506.731000 1 1.000000 12 -3.000000
295 2 529.452000 -2776.340000 505.341000 1 1.000000 1 -3.000000
296 2 525.940000 -2767.420000 503.326000 1 1.000000 1 -3.000000
297 2 520.059000 -2759.770000 501.195000 1 1.000000 1 -3.000000
298 2 513.212000 -2753.330000 498.183000 1 1.000000 1 -3.000000
299 2 505.576000 -2747.260000 496.386000 1 1.000000 1 -3.000000
300 2 497.171000 -2742.160000 495.532000 1 1.000000 1 -3.000000
301 2 489.144000 -2736.470000 496.292000 1 1.000000 1 -3.000000
302 2 480.594000 -2732.290000 493.152000 1 1.000000 1 -3.000000
303 2 474.493000 -2724.750000 491.572000 1 1.000000 1 -3.000000
304 2 471.001000 -2716.110000 494.752000 1 1.000000 1 -3.000000
305 2 464.021000 -2709.200000 496.563000 1 1.000000 1 -3.000000
306 2 457.380000 -2702.040000 495.558000 1 1.000000 1 -3.000000
307 2 450.838000 -2696.880000 490.208000 1 1.000000 1 -3.000000
308 2 444.119000 -2691.180000 485.585000 1 1.000000 1 -3.000000
309 2 435.215000 -2686.780000 483.826000 1 1.000000 1 -3.000000
310 2 425.474000 -2684.980000 482.922000 1 1.000000 1 -3.000000
311 2 415.540000 -2685.260000 483.167000 1 1.000000 1 -3.000000
312 2 405.567000 -2685.840000 484.363000 1 1.000000 1 -3.000000
313 2 395.710000 -2685.970000 485.586000 1 1.000000 1 -3.000000
314 2 386.006000 -2685.880000 488.016000 1 1.000000 1 -3.000000
315 2 377.336000 -2682.360000 491.132000 1 1.000000 1 -3.000000
316 2 367.837000 -2679.460000 491.732000 1 1.000000 1 -3.000000
317 2 360.115000 -2673.330000 492.383000 1 1.000000 1 -3.000000
318 2 351.641000 -2668.300000 492.962000 1 1.000000 13 -3.000000
319 1 366.797000 -2623.610000 493.347000 1 1.000000 13 0.000000
320 3 395.065000 -2641.580000 482.498000 1 1.000000 13 0.000000
321 2 398.772000 -2589.840000 485.092000 1 1.000000 13 -3.000000
322 2 407.916000 -2593.580000 485.085000 1 1.000000 1 -3.000000
323 2 417.359000 -2596.410000 485.449000 1 1.000000 1 -3.000000
324 2 426.936000 -2598.260000 486.394000 1 1.000000 1 -3.000000
325 2 436.626000 -2600.040000 484.948000 1 1.000000 1 -3.000000
326 2 446.190000 -2598.690000 482.647000 1 1.000000 1 -3.000000
327 2 455.973000 -2598.790000 481.314000 1 1.000000 1 -3.000000
328 2 465.509000 -2597.930000 478.591000 1 1.000000 1 -3.000000
329 2 474.525000 -2598.640000 474.337000 1 1.000000 1 -3.000000
330 2 482.622000 -2600.390000 468.844000 1 1.000000 1 -3.000000
331 2 490.676000 -2603.660000 464.472000 1 1.000000 1 -3.000000
332 2 498.181000 -2607.960000 459.431000 1 1.000000 1 -3.000000
333 2 506.245000 -2611.660000 454.923000 1 1.000000 1 -3.000000
334 2 511.490000 -2617.720000 449.134000 1 1.000000 1 -3.000000
335 2 512.418000 -2623.900000 441.675000 1 1.000000 1 -3.000000
336 2 508.645000 -2627.730000 433.304000 1 1.000000 1 -3.000000
337 2 505.641000 -2631.070000 424.332000 1 1.000000 1 -3.000000
338 2 506.884000 -2632.720000 414.659000 1 1.000000 1 -3.000000
339 2 507.748000 -2633.690000 404.766000 1 1.000000 1 -3.000000
340 2 508.004000 -2637.120000 395.508000 1 1.000000 1 -3.000000
341 2 509.750000 -2644.070000 388.692000 1 1.000000 1 -3.000000
342 2 514.458000 -2648.450000 381.255000 1 1.000000 1 -3.000000
343 2 519.957000 -2653.910000 375.107000 1 1.000000 1 -3.000000
344 2 525.283000 -2661.600000 371.819000 1 1.000000 1 -3.000000
345 2 529.519000 -2668.980000 366.879000 1 1.000000 14 -3.000000
346 1 490.394000 -2695.340000 367.054000 1 1.000000 14 0.000000
347 3 478.423000 -2663.330000 359.159000 1 1.000000 14 0.000000
348 2 443.898000 -2701.910000 363.137000 1 1.000000 14 -3.000000
349 2 443.910000 -2693.590000 357.820000 1 1.000000 1 -3.000000
350 2 442.235000 -2684.700000 353.827000 1 1.000000 1 -3.000000
351 2 440.665000 -2676.760000 348.157000 1 1.000000 1 -3.000000
352 2 439.905000 -2668.700000 342.411000 1 1.000000 1 -3.000000
353 2 441.008000 -2659.050000 340.883000 1 1.000000 1 -3.000000
354 2 442.975000 -2649.880000 337.246000 1 1.000000 1 -3.000000
355 2 445.270000 -2640.630000 334.351000 1 1.000000 1 -3.000000
356 2 450.293000 -2632.060000 333.277000 1 1.000000 1 -3.000000
357 2 455.824000 -2624.160000 335.378000 1 1.000000 1 -3.000000
358 2 460.457000 -2616.250000 339.113000 1 1.000000 1 -3.000000
359 2 464.490000 -2607.190000 338.860000 1 1.000000 1 -3.000000
360 2 472.365000 -2601.170000 339.031000 1 1.000000 1 -3.000000
361 2 480.392000 -2595.460000 337.328000 1 1.000000 1 -3.000000
362 2 489.890000 -2592.770000 335.904000 1 1.000000 1 -3.000000
363 2 498.666000 -2589.280000 332.988000 1 1.000000 1 -3.000000
364 2 508.333000 -2587.980000 331.817000 1 1.000000 1 -3.000000
365 2 517.787000 -2585.060000 330.815000 1 1.000000 1 -3.000000
366 2 527.313000 -2582.060000 330.263000 1 1.000000 1 -3.000000
367 2 536.634000 -2578.940000 329.818000 1 1.000000 1 -3.000000
368 2 546.117000 -2579.550000 327.419000 1 1.000000 1 -3.000000
369 2 554.403000 -2582.380000 322.705000 1 1.000000 1 -3.000000
370 2 562.452000 -2581.440000 317.258000 1 1.000000 1 -3.000000
371 2 570.126000 -2579.570000 311.191000 1 1.000000 1 -3.000000
372 2 577.396000 -2579.420000 304.415000 1 1.000000 15 -3.000000
373 1 558.708000 -2607.950000 271.780000 1 1.000000 15 0.000000
374 3 530.684000 -2595.910000 289.029000 1 1.000000 15 0.000000
375 2 522.703000 -2627.750000 248.666000 1 1.000000 15 -3.000000
376 2 519.369000 -2618.640000 250.859000 1 1.000000 1 -3.000000
377 2 515.320000 -2609.670000 252.690000 1 1.000000 1 -3.000000
378 2 510.754000 -2600.980000 254.681000 1 1.000000 1 -3.000000
379 2 503.848000 -2594.530000 257.822000 1 1.000000 1 -3.000000
380 2 496.047000 -2590.060000 261.931000 1 1.000000 1 -3.000000
381 2 487.730000 -2584.600000 261.413000 1 1.000000 1 -3.000000
382 2 481.535000 -2576.810000 261.896000 1 1.000000 1 -3.000000
383 2 474.896000 -2569.460000 263.506000 1 1.000000 1 -3.000000
384 2 469.008000 -2561.870000 266.254000 1 1.000000 1 -3.000000
385 2 461.454000 -2558.190000 271.427000 1 1.000000 1 -3.000000
386 2 453.659000 -2556.940000 277.236000 1 1.000000 1 -3.000000
387 2 444.266000 -2557.030000 280.590000 1 1.000000 1 -3.000000
388 2 437.160000 -2558.810000 287.167000 1 1.000000 1 -3.000000
389 2 430.600000 -2559.730000 294.417000 1 1.000000 1 -3.000000
390 2 424.438000 -2561.630000 301.891000 1 1.000000 1 -3.000000
391 2 419.585000 -2564.920000 309.892000 1 1.000000 1 -3.000000
392 2 415.323000 -2569.020000 317.856000 1 1.000000 1 -3.000000
393 2 409.347000 -2572.450000 324.899000 1 1.000000 1 -3.000000
394 2 402.406000 -2575.780000 331.047000 1 1.000000 1 -3.000000
395 2 394.950000 -2579.220000 336.412000 1 1.000000 1 -3.000000
396 2 388.281000 -2582.470000 342.862000 1 1.000000 1 -3.000000
397 2 381.761000 -2583.150000 350.518000 1 1.000000 1 -3.000000
398 2 374.182000 -2584.430000 356.582000 1 1.000000 1 -3.000000
399 2 365.820000 -2585.780000 361.710000 1 1.000000 16 -3.000000
400 1 391.428000 -2596.620000 399.823000 1 1.000000 16 0.000000
401 3 412.511000 -2575.240000 381.796000 1 1.000000 16 0.000000
402 2 429.899000 -2594.090000 426.943000 1 1.000000 16 -3.000000
403 2 432.612000 -2585.170000 423.723000 1 1.000000 1 -3.000000
404 2 437.264000 -2577.010000 420.482000 1 1.000000 1 -3.000000
405 2 441.941000 -2570.330000 414.965000 1 1.000000 1 -3.000000
406 2 445.656000 -2562.580000 410.135000 1 1.000000 1 -3.000000
407 2 451.142000 -2555.670000 405.676000 1 1.000000 1 -3.000000
408 2 457.874000 -2548.720000 403.682000 1 1.000000 1 -3.000000
409 2 461.619000 -2540.790000 399.155000 1 1.000000 1 -3.000000
410 2 461.446000 -2531.960000 394.407000 1 1.000000 1 -3.000000
411 2 459.170000 -2523.420000 390.001000 1 1.000000 1 -3.000000
412 2 459.211000 -2516.880000 382.469000 1 1.000000 1 -3.000000
413 2 459.242000 -2510.680000 374.737000 1 1.000000 1 -3.000000
414 2 456.936000 -2503.860000 368.025000 1 1.000000 1 -3.000000
415 2 454.201000 -2496.080000 362.458000 1 1.000000 1 -3.000000
416 2 450.935000 -2490.330000 355.148000 1 1.000000 1 -3.000000
417 2 447.195000 -2485.300000 347.614000 1 1.000000 1 -3.000000
418 2 444.093000 -2479.560000 340.123000 1 1.000000 1 -3.000000
419 2 439.262000 -2477.530000 331.702000 1 1.000000 1 -3.000000
420 2 435.540000 -2477.360000 322.492000 1 1.000000 1 -3.000000
421 2 432.875000 -2475.010000 313.254000 1 1.000000 1 -3.000000
422 2 434.225000 -2473.110000 303.509000 1 1.000000 1 -3.000000
423 2 431.816000 -2472.020000 293.967000 1 1.000000 1 -3.000000
424 2 425.763000 -2472.470000 286.078000 1 1.000000 1 -3.000000
425 2 419.322000 -2475.980000 279.463000 1 1.000000 1 -3.000000
426 2 411.754000 -2477.910000 273.358000 1 1.000000 17 -3.000000
427 1 372.905000 -2451.180000 275.619000 1 1.000000 17 0.000000
428 3 398.709000 -2427.860000 278.086000 1 1.000000 17 0.000000
429 2 349.972000 -2410.170000 279.878000 1 1.000000 17 -3.000000
430 2 357.414000 -2407.820000 285.889000 1 1.000000 1 -3.000000
431 2 366.707000 -2408.890000 289.055000 1 1.000000 1 -3.000000
432 2 375.521000 -2408.930000 293.421000 1 1.000000 1 -3.000000
433 2 384.333000 -2407.680000 297.846000 1 1.000000 1 -3.000000
434 2 391.349000 -2402.090000 301.768000 1 1.000000 1 -3.000000
435 2 395.335000 -2394.520000 306.920000 1 1.000000 1 -3.000000
436 2 402.124000 -2388.960000 311.614000 1 1.000000 1 -3.000000
437 2 409.250000 -2382.750000 314.489000 1 1.000000 1 -3.000000
438 2 413.317000 -2376.060000 320.596000 1 1.000000 1 -3.000000
439 2 416.475000 -2368.430000 326.084000 1 1.000000 1 -3.000000
440 2 419.040000 -2359.030000 327.956000 1 1.000000 1 -3.000000
441 2 422.058000 -2349.940000 330.621000 1 1.000000 1 -3.000000
442 2 423.683000 -2340.700000 333.736000 1 1.000000 1 -3.000000
443 2 423.800000 -2332.040000 338.719000 1 1.000000 1 -3.000000
444 2 426.135000 -2324.430000 344.636000 1 1.000000 1 -3.000000
445 2 427.693000 -2318.170000 352.160000 1 1.000000 1 -3.000000
446 2 428.058000 -2313.210000 360.642000 1 1.000000 1 -3.000000
447 2 428.717000 -2309.560000 369.933000 1 1.000000 1 -3.000000
448 2 431.121000 -2305.240000 378.599000 1 1.000000 1 -3.000000
449 2 433.940000 -2299.590000 386.202000 1 1.000000 1 -3.000000
450 2 438.162000 -2295.840000 394.306000 1 1.000000 1 -3.000000
451 2 438.666000 -2292.060000 403.599000 1 1.000000 1 -3.000000
452 2 438.996000 -2286.850000 411.984000 1 1.000000 1 -3.000000
453 2 442.525000 -2282.730000 420.404000 1 1.000000 18 -3.000000
454 1 438.256000 -2323.810000 443.156000 1 1.000000 18 0.000000
455 3 437.064000 -2333.170000 409.408000 1 1.000000 18 0.000000
456 2 433.193000 -2370.690000 445.245000 1 1.000000 18 -3.000000
457 2 441.428000 -2372.670000 440.172000 1 1.000000 1 -3.000000
458 2 450.626000 -2374.490000 436.874000 1 1.000000 1 -3.000000
459 2 459.644000 -2377.900000 434.405000 1 1.000000 1 -3.000000
460 2 469.508000 -2379.400000 433.755000 1 1.000000 1 -3.000000
461 2 479.330000 -2379.310000 435.173000 1 1.000000 1 -3.000000
462 2 489.191000 -2379.560000 435.024000 1 1.000000 1 -3.000000
463 2 498.341000 -2383.160000 435.030000 1 1.000000 1 -3.000000
464 2 507.734000 -2384.890000 432.228000 1 1.000000 1 -3.000000
465 2 515.034000 -2390.780000 429.181000 1 1.000000 1 -3.000000