LAMMPS data file

4067 atoms
4067 ellipsoids
4516 bonds
8882 angles
0 dihedrals

3 atom types
5 bond types
12 angle types
0 dihedral types

-4631.092947 4670.465898 xlo xhi
-4631.092947 4670.465898 ylo yhi
-4631.092947 4670.465898 zlo zhi

Masses

1 196016.000000
2 1950.000000
3 19500.000000

Atoms

1 2 899.377000 -3226.430000 670.961000 1 1.000000 1 -3.000000
2 2 901.309000 -3220.990000 662.796000 1 1.000000 1 -3.000000
3 2 901.190000 -3218.290000 653.304000 1 1.000000 1 -3.000000
4 2 904.179000 -3211.260000 647.007000 1 1.000000 1 -3.000000
5 2 907.147000 -3203.620000 641.537000 1 1.000000 1 -3.000000
6 2 911.742000 -3196.610000 636.334000 1 1.000000 1 -3.000000
7 2 916.192000 -3188.290000 633.074000 1 1.000000 1 -3.000000
8 2 919.174000 -3180.070000 628.264000 1 1.000000 1 -3.000000
9 2 919.623000 -3170.770000 624.695000 1 1.000000 1 -3.000000
10 2 920.266000 -3161.700000 620.619000 1 1.000000 1 -3.000000
11 2 921.646000 -3152.580000 616.981000 1 1.000000 1 -3.000000
12 2 923.341000 -3143.370000 613.818000 1 1.000000 1 -3.000000
13 2 924.534000 -3134.220000 610.268000 1 1.000000 1 -3.000000
14 2 925.890000 -3124.600000 608.571000 1 1.000000 1 -3.000000
15 2 928.203000 -3115.230000 606.345000 1 1.000000 1 -3.000000
16 2 930.459000 -3106.060000 603.544000 1 1.000000 1 -3.000000
17 2 929.591000 -3097.030000 599.747000 1 1.000000 1 -3.000000
18 2 927.277000 -3088.270000 595.720000 1 1.000000 1 -3.000000
19 2 927.448000 -3079.900000 590.382000 1 1.000000 1 -3.000000
20 2 930.812000 -3071.460000 586.336000 1 1.000000 1 -3.000000
21 2 933.449000 -3063.430000 581.308000 1 1.000000 2 -3.000000
22 1 969.787000 -3076.320000 554.100000 1 1.000000 2 0.000000
23 3 964.454000 -3104.240000 574.358000 1 1.000000 2 0.000000
24 2 1002.490000 -3106.800000 538.935000 1 1.000000 2 -3.000000
25 2 999.232000 -3112.950000 546.054000 1 1.000000 1 -3.000000
26 2 994.948000 -3117.800000 553.522000 1 1.000000 1 -3.000000
27 2 991.322000 -3124.310000 560.177000 1 1.000000 1 -3.000000
28 2 988.610000 -3133.610000 562.266000 1 1.000000 1 -3.000000
29 2 985.044000 -3140.840000 567.951000 1 1.000000 1 -3.000000
30 2 980.990000 -3148.770000 571.977000 1 1.000000 1 -3.000000
31 2 977.313000 -3155.190000 578.501000 1 1.000000 1 -3.000000
32 2 973.355000 -3162.760000 583.562000 1 1.000000 1 -3.000000
33 2 968.310000 -3170.190000 587.492000 1 1.000000 1 -3.000000
34 2 965.742000 -3179.280000 590.215000 1 1.000000 1 -3.000000
35 2 963.763000 -3188.010000 594.587000 1 1.000000 1 -3.000000
36 2 962.470000 -3194.680000 601.794000 1 1.000000 1 -3.000000
37 2 960.773000 -3199.780000 610.054000 1 1.000000 1 -3.000000
38 2 957.680000 -3205.730000 617.423000 1 1.000000 1 -3.000000
39 2 955.161000 -3213.580000 622.837000 1 1.000000 1 -3.000000
40 2 953.541000 -3221.620000 628.635000 1 1.000000 1 -3.000000
41 2 945.956000 -3226.730000 632.360000 1 1.000000 1 -3.000000
42 2 941.266000 -3233.310000 638.101000 1 1.000000 1 -3.000000
43 2 940.239000 -3242.400000 641.908000 1 1.000000 1 -3.000000
44 2 939.562000 -3250.720000 647.407000 1 1.000000 1 -3.000000
45 2 938.491000 -3257.280000 654.697000 1 1.000000 1 -3.000000
46 2 939.971000 -3262.500000 663.020000 1 1.000000 1 -3.000000
47 2 940.232000 -3266.130000 672.272000 1 1.000000 1 -3.000000
48 2 938.375000 -3268.650000 681.651000 1 1.000000 3 -3.000000
49 1 900.955000 -3244.990000 697.934000 1 1.000000 3 0.000000
50 3 899.089000 -3240.230000 663.386000 1 1.000000 3 0.000000
51 2 861.281000 -3219.910000 692.733000 1 1.000000 3 -3.000000
52 2 860.392000 -3218.790000 682.994000 1 1.000000 1 -3.000000
53 2 860.332000 -3218.100000 673.063000 1 1.000000 1 -3.000000
54 2 861.394000 -3215.640000 663.581000 1 1.000000 1 -3.000000
55 2 860.024000 -3210.520000 655.067000 1 1.000000 1 -3.000000
56 2 856.952000 -3206.640000 646.542000 1 1.000000 1 -3.000000
57 2 853.491000 -3202.220000 638.393000 1 1.000000 1 -3.000000
58 2 848.840000 -3198.100000 630.602000 1 1.000000 1 -3.000000
59 2 846.568000 -3193.890000 621.892000 1 1.000000 1 -3.000000
60 2 846.673000 -3193.620000 612.101000 1 1.000000 1 -3.000000
61 2 846.633000 -3191.000000 602.403000 1 1.000000 1 -3.000000
62 2 846.044000 -3189.360000 592.673000 1 1.000000 1 -3.000000
63 2 842.560000 -3189.270000 583.329000 1 1.000000 1 -3.000000
64 2 840.839000 -3191.130000 573.695000 1 1.000000 1 -3.000000
65 2 836.732000 -3195.500000 565.730000 1 1.000000 1 -3.000000
66 2 831.770000 -3198.220000 557.612000 1 1.000000 1 -3.000000
67 2 827.230000 -3201.180000 549.268000 1 1.000000 1 -3.000000
68 2 823.257000 -3208.480000 543.761000 1 1.000000 1 -3.000000
69 2 821.498000 -3217.890000 541.188000 1 1.000000 1 -3.000000
70 2 816.578000 -3226.150000 539.557000 1 1.000000 1 -3.000000
71 2 811.894000 -3234.670000 538.078000 1 1.000000 1 -3.000000
72 2 804.825000 -3241.700000 537.727000 1 1.000000 1 -3.000000
73 2 798.198000 -3249.090000 536.614000 1 1.000000 1 -3.000000
74 2 795.951000 -3257.130000 531.525000 1 1.000000 1 -3.000000
75 2 790.004000 -3264.870000 529.519000 1 1.000000 4 -3.000000
76 1 803.194000 -3250.810000 486.475000 1 1.000000 4 0.000000
77 3 823.848000 -3232.050000 507.818000 1 1.000000 4 0.000000
78 2 828.013000 -3223.920000 456.555000 1 1.000000 4 -3.000000
79 2 828.937000 -3216.400000 462.992000 1 1.000000 1 -3.000000
80 2 826.789000 -3208.740000 468.800000 1 1.000000 1 -3.000000
81 2 827.408000 -3201.160000 475.064000 1 1.000000 1 -3.000000
82 2 827.673000 -3192.280000 479.153000 1 1.000000 1 -3.000000
83 2 828.077000 -3184.050000 484.638000 1 1.000000 1 -3.000000
84 2 830.227000 -3174.640000 487.024000 1 1.000000 1 -3.000000
85 2 833.158000 -3165.500000 489.519000 1 1.000000 1 -3.000000
86 2 829.727000 -3156.800000 492.725000 1 1.000000 1 -3.000000
87 2 826.937000 -3148.700000 497.539000 1 1.000000 1 -3.000000
88 2 825.347000 -3139.810000 501.617000 1 1.000000 1 -3.000000
89 2 824.030000 -3130.990000 506.010000 1 1.000000 1 -3.000000
90 2 822.629000 -3121.550000 508.490000 1 1.000000 1 -3.000000
91 2 823.971000 -3113.260000 513.799000 1 1.000000 1 -3.000000
92 2 825.247000 -3104.500000 518.390000 1 1.000000 1 -3.000000
93 2 827.490000 -3096.370000 523.566000 1 1.000000 1 -3.000000
94 2 831.136000 -3087.180000 523.034000 1 1.000000 1 -3.000000
95 2 835.007000 -3078.070000 523.126000 1 1.000000 1 -3.000000
96 2 838.342000 -3068.750000 521.761000 1 1.000000 1 -3.000000
97 2 837.984000 -3058.960000 520.265000 1 1.000000 1 -3.000000
98 2 835.819000 -3049.530000 518.984000 1 1.000000 1 -3.000000
99 2 832.578000 -3040.380000 517.190000 1 1.000000 1 -3.000000
100 2 828.485000 -3031.390000 517.069000 1 1.000000 1 -3.000000
101 2 827.529000 -3021.560000 517.093000 1 1.000000 1 -3.000000
102 2 827.315000 -3011.740000 515.542000 1 1.000000 5 -3.000000
103 1 808.190000 -3013.730000 472.485000 1 1.000000 5 0.000000
104 3 801.922000 -3045.560000 485.543000 1 1.000000 5 0.000000
105 2 783.493000 -3034.620000 438.144000 1 1.000000 5 -3.000000
106 2 779.094000 -3039.540000 445.597000 1 1.000000 1 -3.000000
107 2 775.063000 -3047.670000 449.517000 1 1.000000 1 -3.000000
108 2 772.243000 -3056.340000 453.572000 1 1.000000 1 -3.000000
109 2 768.402000 -3062.550000 460.240000 1 1.000000 1 -3.000000
110 2 763.479000 -3067.780000 466.985000 1 1.000000 1 -3.000000
111 2 761.078000 -3073.370000 474.771000 1 1.000000 1 -3.000000
112 2 759.114000 -3078.520000 482.798000 1 1.000000 1 -3.000000
113 2 754.039000 -3080.810000 491.099000 1 1.000000 1 -3.000000
114 2 748.912000 -3083.430000 499.179000 1 1.000000 1 -3.000000
115 2 745.686000 -3086.440000 508.156000 1 1.000000 1 -3.000000
116 2 740.094000 -3087.670000 516.289000 1 1.000000 1 -3.000000
117 2 739.923000 -3087.060000 526.184000 1 1.000000 1 -3.000000
118 2 740.022000 -3090.630000 535.431000 1 1.000000 1 -3.000000
119 2 740.368000 -3094.440000 544.533000 1 1.000000 1 -3.000000
120 2 739.835000 -3098.010000 553.725000 1 1.000000 1 -3.000000
121 2 739.161000 -3101.110000 563.139000 1 1.000000 1 -3.000000
122 2 738.792000 -3104.990000 572.183000 1 1.000000 1 -3.000000
123 2 739.982000 -3109.180000 581.056000 1 1.000000 1 -3.000000
124 2 738.376000 -3110.400000 590.702000 1 1.000000 1 -3.000000
125 2 736.325000 -3108.330000 600.279000 1 1.000000 1 -3.000000
126 2 734.124000 -3106.810000 609.936000 1 1.000000 1 -3.000000
127 2 731.992000 -3105.230000 619.443000 1 1.000000 1 -3.000000
128 2 729.441000 -3100.660000 627.749000 1 1.000000 1 -3.000000
129 2 725.550000 -3100.180000 636.861000 1 1.000000 6 -3.000000
130 1 680.102000 -3105.670000 625.331000 1 1.000000 6 0.000000
131 3 696.850000 -3125.010000 601.511000 1 1.000000 6 0.000000
132 2 645.054000 -3122.170000 598.394000 1 1.000000 6 -3.000000
133 2 650.280000 -3126.230000 591.046000 1 1.000000 1 -3.000000
134 2 655.320000 -3127.950000 582.652000 1 1.000000 1 -3.000000
135 2 658.067000 -3131.590000 573.849000 1 1.000000 1 -3.000000
136 2 662.490000 -3132.770000 565.195000 1 1.000000 1 -3.000000
137 2 667.788000 -3133.060000 556.751000 1 1.000000 1 -3.000000
138 2 671.291000 -3131.970000 547.447000 1 1.000000 1 -3.000000
139 2 673.901000 -3132.460000 538.051000 1 1.000000 1 -3.000000
140 2 673.503000 -3132.110000 528.201000 1 1.000000 1 -3.000000
141 2 669.254000 -3131.240000 519.381000 1 1.000000 1 -3.000000
142 2 664.866000 -3126.840000 511.664000 1 1.000000 1 -3.000000
143 2 657.495000 -3122.470000 506.818000 1 1.000000 1 -3.000000
144 2 650.406000 -3115.670000 505.035000 1 1.000000 1 -3.000000
145 2 643.183000 -3109.680000 502.122000 1 1.000000 1 -3.000000
146 2 637.289000 -3101.720000 503.498000 1 1.000000 1 -3.000000
147 2 629.645000 -3095.520000 504.469000 1 1.000000 1 -3.000000
148 2 620.793000 -3091.570000 506.520000 1 1.000000 1 -3.000000
149 2 612.532000 -3086.080000 506.700000 1 1.000000 1 -3.000000
150 2 603.331000 -3082.710000 505.698000 1 1.000000 1 -3.000000
151 2 594.286000 -3078.480000 506.591000 1 1.000000 1 -3.000000
152 2 586.089000 -3073.120000 508.441000 1 1.000000 1 -3.000000
153 2 577.716000 -3068.030000 509.807000 1 1.000000 1 -3.000000
154 2 568.882000 -3063.650000 509.095000 1 1.000000 1 -3.000000
155 2 562.735000 -3056.290000 506.158000 1 1.000000 1 -3.000000
156 2 554.396000 -3051.580000 503.931000 1 1.000000 7 -3.000000
157 1 555.255000 -3005.020000 496.065000 1 1.000000 7 0.000000
158 3 584.770000 -3010.620000 514.143000 1 1.000000 7 0.000000
159 2 574.665000 -2962.100000 498.564000 1 1.000000 7 -3.000000
160 2 582.271000 -2966.770000 502.793000 1 1.000000 1 -3.000000
161 2 591.748000 -2969.210000 504.579000 1 1.000000 1 -3.000000
162 2 601.462000 -2969.580000 506.117000 1 1.000000 1 -3.000000
163 2 610.854000 -2967.910000 509.033000 1 1.000000 1 -3.000000
164 2 620.323000 -2965.020000 510.096000 1 1.000000 1 -3.000000
165 2 629.301000 -2962.240000 513.032000 1 1.000000 1 -3.000000
166 2 638.412000 -2958.400000 512.999000 1 1.000000 1 -3.000000
167 2 647.256000 -2954.980000 515.681000 1 1.000000 1 -3.000000
168 2 655.759000 -2950.110000 516.552000 1 1.000000 1 -3.000000
169 2 665.073000 -2946.960000 516.445000 1 1.000000 1 -3.000000
170 2 672.914000 -2941.160000 514.972000 1 1.000000 1 -3.000000
171 2 682.345000 -2938.400000 513.423000 1 1.000000 1 -3.000000
172 2 691.149000 -2934.790000 510.841000 1 1.000000 1 -3.000000
173 2 698.528000 -2932.680000 504.633000 1 1.000000 1 -3.000000
174 2 704.584000 -2930.110000 497.299000 1 1.000000 1 -3.000000
175 2 709.941000 -2927.350000 489.252000 1 1.000000 1 -3.000000
176 2 713.942000 -2922.480000 481.497000 1 1.000000 1 -3.000000
177 2 716.806000 -2915.750000 474.751000 1 1.000000 1 -3.000000
178 2 714.284000 -2908.010000 469.021000 1 1.000000 1 -3.000000
179 2 711.990000 -2902.890000 460.939000 1 1.000000 1 -3.000000
180 2 710.426000 -2898.640000 452.303000 1 1.000000 1 -3.000000
181 2 709.853000 -2892.900000 444.362000 1 1.000000 1 -3.000000
182 2 708.998000 -2889.380000 435.143000 1 1.000000 1 -3.000000
183 2 710.805000 -2888.390000 425.463000 1 1.000000 8 -3.000000
184 1 752.164000 -2910.540000 430.349000 1 1.000000 8 0.000000
185 3 742.238000 -2904.560000 463.389000 1 1.000000 8 0.000000
186 2 786.840000 -2929.910000 455.921000 1 1.000000 8 -3.000000
187 2 779.786000 -2928.930000 462.581000 1 1.000000 1 -3.000000
188 2 773.803000 -2930.490000 470.320000 1 1.000000 1 -3.000000
189 2 770.307000 -2932.800000 479.414000 1 1.000000 1 -3.000000
190 2 765.746000 -2933.550000 488.074000 1 1.000000 1 -3.000000
191 2 759.962000 -2933.340000 496.139000 1 1.000000 1 -3.000000
192 2 753.425000 -2930.420000 502.979000 1 1.000000 1 -3.000000
193 2 750.317000 -2923.070000 508.856000 1 1.000000 1 -3.000000
194 2 749.011000 -2915.800000 515.355000 1 1.000000 1 -3.000000
195 2 747.213000 -2907.540000 520.383000 1 1.000000 1 -3.000000
196 2 742.908000 -2900.540000 525.869000 1 1.000000 1 -3.000000
197 2 740.358000 -2897.440000 534.972000 1 1.000000 1 -3.000000
198 2 735.408000 -2892.400000 542.022000 1 1.000000 1 -3.000000
199 2 730.638000 -2886.980000 548.771000 1 1.000000 1 -3.000000
200 2 725.004000 -2881.410000 554.576000 1 1.000000 1 -3.000000
201 2 718.141000 -2876.460000 559.633000 1 1.000000 1 -3.000000
202 2 709.099000 -2874.190000 562.849000 1 1.000000 1 -3.000000
203 2 699.632000 -2872.320000 565.028000 1 1.000000 1 -3.000000
204 2 691.423000 -2868.100000 568.607000 1 1.000000 1 -3.000000
205 2 684.000000 -2865.400000 574.639000 1 1.000000 1 -3.000000
206 2 676.306000 -2861.440000 579.503000 1 1.000000 1 -3.000000
207 2 673.229000 -2858.320000 588.416000 1 1.000000 1 -3.000000
208 2 671.458000 -2853.080000 596.561000 1 1.000000 1 -3.000000
209 2 669.980000 -2844.760000 601.759000 1 1.000000 1 -3.000000
210 2 665.818000 -2838.180000 607.893000 1 1.000000 9 -3.000000
211 1 639.514000 -2800.260000 598.030000 1 1.000000 9 0.000000
212 3 653.029000 -2809.000000 566.814000 1 1.000000 9 0.000000
213 2 619.957000 -2768.900000 568.647000 1 1.000000 9 -3.000000
214 2 614.221000 -2775.080000 563.391000 1 1.000000 1 -3.000000
215 2 608.389000 -2781.560000 558.520000 1 1.000000 1 -3.000000
216 2 602.473000 -2787.370000 553.143000 1 1.000000 1 -3.000000
217 2 595.492000 -2793.090000 549.211000 1 1.000000 1 -3.000000
218 2 589.888000 -2801.180000 550.209000 1 1.000000 1 -3.000000
219 2 585.821000 -2810.230000 551.249000 1 1.000000 1 -3.000000
220 2 579.949000 -2818.040000 551.287000 1 1.000000 1 -3.000000
221 2 571.641000 -2823.150000 550.350000 1 1.000000 1 -3.000000
222 2 563.475000 -2828.570000 551.079000 1 1.000000 1 -3.000000
223 2 554.938000 -2833.630000 550.915000 1 1.000000 1 -3.000000
224 2 545.430000 -2833.410000 548.125000 1 1.000000 1 -3.000000
225 2 537.078000 -2837.510000 544.831000 1 1.000000 1 -3.000000
226 2 528.550000 -2841.310000 541.903000 1 1.000000 1 -3.000000
227 2 519.431000 -2844.330000 539.279000 1 1.000000 1 -3.000000
228 2 510.795000 -2847.620000 535.865000 1 1.000000 1 -3.000000
229 2 503.137000 -2852.340000 531.828000 1 1.000000 1 -3.000000
230 2 494.264000 -2855.980000 529.331000 1 1.000000 1 -3.000000
231 2 487.019000 -2860.950000 524.855000 1 1.000000 1 -3.000000
232 2 480.785000 -2866.990000 519.819000 1 1.000000 1 -3.000000
233 2 474.703000 -2871.840000 513.827000 1 1.000000 1 -3.000000
234 2 467.733000 -2877.890000 510.475000 1 1.000000 1 -3.000000
235 2 459.511000 -2883.360000 509.710000 1 1.000000 1 -3.000000
236 2 450.204000 -2887.050000 509.125000 1 1.000000 1 -3.000000
237 2 441.678000 -2891.800000 508.371000 1 1.000000 10 -3.000000
238 1 411.560000 -2856.510000 517.156000 1 1.000000 10 0.000000
239 3 441.771000 -2840.110000 510.899000 1 1.000000 10 0.000000
240 2 399.894000 -2810.960000 521.018000 1 1.000000 10 -3.000000
241 2 408.270000 -2808.020000 516.224000 1 1.000000 1 -3.000000
242 2 416.173000 -2804.380000 511.350000 1 1.000000 1 -3.000000
243 2 424.430000 -2801.010000 507.027000 1 1.000000 1 -3.000000
244 2 432.628000 -2799.470000 501.648000 1 1.000000 1 -3.000000
245 2 442.341000 -2797.460000 500.530000 1 1.000000 1 -3.000000
246 2 452.112000 -2797.870000 500.499000 1 1.000000 1 -3.000000
247 2 461.590000 -2800.650000 499.415000 1 1.000000 1 -3.000000
248 2 469.892000 -2802.710000 494.707000 1 1.000000 1 -3.000000
249 2 477.911000 -2804.850000 489.249000 1 1.000000 1 -3.000000
250 2 486.095000 -2808.750000 485.305000 1 1.000000 1 -3.000000
251 2 495.291000 -2809.800000 481.675000 1 1.000000 1 -3.000000
252 2 503.349000 -2812.470000 476.683000 1 1.000000 1 -3.000000
253 2 509.039000 -2817.100000 470.060000 1 1.000000 1 -3.000000
254 2 516.923000 -2820.750000 465.211000 1 1.000000 1 -3.000000
255 2 524.021000 -2825.080000 459.786000 1 1.000000 1 -3.000000
256 2 530.920000 -2830.650000 455.379000 1 1.000000 1 -3.000000
257 2 535.700000 -2837.160000 449.600000 1 1.000000 1 -3.000000
258 2 542.184000 -2844.290000 446.999000 1 1.000000 1 -3.000000
259 2 546.582000 -2852.670000 444.501000 1 1.000000 1 -3.000000
260 2 550.635000 -2859.710000 438.601000 1 1.000000 1 -3.000000
261 2 552.860000 -2866.850000 432.293000 1 1.000000 1 -3.000000
262 2 555.281000 -2872.200000 424.310000 1 1.000000 1 -3.000000
263 2 558.747000 -2878.960000 417.899000 1 1.000000 1 -3.000000
264 2 558.661000 -2887.440000 412.712000 1 1.000000 11 -3.000000
265 1 603.641000 -2886.270000 427.036000 1 1.000000 11 0.000000
266 3 589.220000 -2859.210000 443.958000 1 1.000000 11 0.000000
267 2 640.285000 -2866.780000 449.609000 1 1.000000 11 -3.000000
268 2 637.221000 -2857.730000 451.997000 1 1.000000 1 -3.000000
269 2 632.972000 -2849.790000 456.066000 1 1.000000 1 -3.000000
270 2 626.314000 -2844.680000 461.134000 1 1.000000 1 -3.000000
271 2 620.062000 -2840.440000 467.579000 1 1.000000 1 -3.000000
272 2 613.459000 -2835.630000 473.102000 1 1.000000 1 -3.000000
273 2 605.148000 -2831.390000 476.052000 1 1.000000 1 -3.000000
274 2 599.005000 -2823.700000 474.992000 1 1.000000 1 -3.000000
275 2 593.913000 -2818.360000 468.343000 1 1.000000 1 -3.000000
276 2 590.371000 -2812.870000 461.015000 1 1.000000 1 -3.000000
277 2 589.524000 -2808.210000 452.450000 1 1.000000 1 -3.000000
278 2 586.028000 -2800.930000 446.769000 1 1.000000 1 -3.000000
279 2 580.337000 -2795.310000 440.820000 1 1.000000 1 -3.000000
280 2 575.850000 -2788.240000 435.458000 1 1.000000 1 -3.000000
281 2 576.206000 -2779.370000 431.136000 1 1.000000 1 -3.000000
282 2 576.260000 -2772.890000 423.624000 1 1.000000 1 -3.000000
283 2 577.362000 -2765.440000 417.189000 1 1.000000 1 -3.000000
284 2 579.287000 -2758.460000 410.568000 1 1.000000 1 -3.000000
285 2 582.724000 -2753.370000 402.673000 1 1.000000 1 -3.000000
286 2 584.606000 -2748.600000 394.273000 1 1.000000 1 -3.000000
287 2 587.206000 -2743.780000 385.992000 1 1.000000 1 -3.000000
288 2 586.264000 -2738.480000 377.654000 1 1.000000 1 -3.000000
289 2 585.545000 -2737.320000 367.856000 1 1.000000 1 -3.000000
290 2 583.023000 -2736.440000 358.292000 1 1.000000 1 -3.000000
291 2 585.965000 -2738.280000 349.113000 1 1.000000 12 -3.000000
292 1 547.689000 -2764.500000 340.418000 1 1.000000 12 0.000000
293 3 548.813000 -2763.300000 375.333000 1 1.000000 12 0.000000
294 2 509.718000 -2789.270000 353.370000 1 1.000000 12 -3.000000
295 2 508.022000 -2783.850000 361.441000 1 1.000000 1 -3.000000
296 2 506.253000 -2777.770000 369.014000 1 1.000000 1 -3.000000
297 2 506.564000 -2773.990000 378.185000 1 1.000000 1 -3.000000
298 2 503.596000 -2771.050000 387.134000 1 1.000000 1 -3.000000
299 2 502.367000 -2765.590000 395.262000 1 1.000000 1 -3.000000
300 2 499.612000 -2761.020000 403.678000 1 1.000000 1 -3.000000
301 2 493.733000 -2758.250000 411.057000 1 1.000000 1 -3.000000
302 2 489.527000 -2752.970000 418.327000 1 1.000000 1 -3.000000
303 2 487.816000 -2749.620000 427.625000 1 1.000000 1 -3.000000
304 2 485.650000 -2747.080000 436.828000 1 1.000000 1 -3.000000
305 2 483.366000 -2743.220000 445.693000 1 1.000000 1 -3.000000
306 2 477.820000 -2738.720000 452.509000 1 1.000000 1 -3.000000
307 2 475.085000 -2736.710000 461.692000 1 1.000000 1 -3.000000
308 2 470.586000 -2732.920000 469.499000 1 1.000000 1 -3.000000
309 2 466.246000 -2729.010000 477.333000 1 1.000000 1 -3.000000
310 2 462.953000 -2725.040000 485.843000 1 1.000000 1 -3.000000
311 2 463.251000 -2721.460000 494.976000 1 1.000000 1 -3.000000
312 2 459.650000 -2721.860000 504.153000 1 1.000000 1 -3.000000
313 2 456.156000 -2723.300000 513.266000 1 1.000000 1 -3.000000
314 2 451.358000 -2728.110000 520.509000 1 1.000000 1 -3.000000
315 2 445.607000 -2732.690000 527.316000 1 1.000000 1 -3.000000
316 2 439.733000 -2737.260000 534.063000 1 1.000000 1 -3.000000
317 2 435.372000 -2744.700000 538.953000 1 1.000000 1 -3.000000
318 2 427.725000 -2750.710000 540.858000 1 1.000000 13 -3.000000
319 1 390.108000 -2745.610000 512.858000 1 1.000000 13 0.000000
320 3 416.261000 -2732.200000 493.723000 1 1.000000 13 0.000000
321 2 368.448000 -2730.470000 473.732000 1 1.000000 13 -3.000000
322 2 377.291000 -2728.320000 469.808000 1 1.000000 1 -3.000000
323 2 386.812000 -2726.380000 468.090000 1 1.000000 1 -3.000000
324 2 395.053000 -2721.270000 465.955000 1 1.000000 1 -3.000000
325 2 403.774000 -2717.140000 463.340000 1 1.000000 1 -3.000000
326 2 410.758000 -2710.490000 461.119000 1 1.000000 1 -3.000000
327 2 417.875000 -2703.590000 460.365000 1 1.000000 1 -3.000000
328 2 425.615000 -2697.370000 460.224000 1 1.000000 1 -3.000000
329 2 433.765000 -2692.060000 461.934000 1 1.000000 1 -3.000000
330 2 442.401000 -2688.300000 464.971000 1 1.000000 1 -3.000000
331 2 451.155000 -2685.510000 468.486000 1 1.000000 1 -3.000000
332 2 460.875000 -2684.730000 469.650000 1 1.000000 1 -3.000000
333 2 470.039000 -2681.560000 471.598000 1 1.000000 1 -3.000000
334 2 479.542000 -2679.760000 473.181000 1 1.000000 1 -3.000000
335 2 488.293000 -2681.280000 477.642000 1 1.000000 1 -3.000000
336 2 496.251000 -2679.190000 483.184000 1 1.000000 1 -3.000000
337 2 505.349000 -2678.760000 486.823000 1 1.000000 1 -3.000000
338 2 514.357000 -2678.420000 490.892000 1 1.000000 1 -3.000000
339 2 522.045000 -2680.780000 496.713000 1 1.000000 1 -3.000000
340 2 530.235000 -2683.380000 501.508000 1 1.000000 1 -3.000000
341 2 538.823000 -2681.800000 506.173000 1 1.000000 1 -3.000000
342 2 546.168000 -2679.800000 512.566000 1 1.000000 1 -3.000000
343 2 554.812000 -2678.870000 517.026000 1 1.000000 1 -3.000000
344 2 563.699000 -2674.520000 518.016000 1 1.000000 1 -3.000000
345 2 572.688000 -2671.060000 519.968000 1 1.000000 14 -3.000000
346 1 588.598000 -2662.280000 476.369000 1 1.000000 14 0.000000
347 3 553.954000 -2658.430000 473.146000 1 1.000000 14 0.000000
348 2 583.287000 -2650.790000 430.921000 1 1.000000 14 -3.000000
349 2 573.816000 -2648.580000 429.089000 1 1.000000 1 -3.000000
350 2 564.833000 -2644.790000 431.407000 1 1.000000 1 -3.000000
351 2 557.008000 -2639.000000 429.595000 1 1.000000 1 -3.000000
352 2 550.686000 -2631.560000 431.347000 1 1.000000 1 -3.000000
353 2 545.175000 -2623.390000 429.653000 1 1.000000 1 -3.000000
354 2 540.679000 -2614.940000 427.254000 1 1.000000 1 -3.000000
355 2 537.160000 -2605.740000 427.866000 1 1.000000 1 -3.000000
356 2 533.274000 -2596.780000 425.836000 1 1.000000 1 -3.000000
357 2 528.893000 -2588.000000 424.803000 1 1.000000 1 -3.000000
358 2 527.364000 -2578.370000 426.502000 1 1.000000 1 -3.000000
359 2 526.470000 -2569.580000 431.260000 1 1.000000 1 -3.000000
360 2 528.968000 -2560.940000 435.361000 1 1.000000 1 -3.000000
361 2 532.556000 -2553.050000 440.372000 1 1.000000 1 -3.000000
362 2 535.967000 -2546.960000 447.343000 1 1.000000 1 -3.000000
363 2 537.224000 -2540.250000 454.502000 1 1.000000 1 -3.000000
364 2 538.880000 -2532.600000 460.444000 1 1.000000 1 -3.000000
365 2 539.469000 -2523.690000 464.547000 1 1.000000 1 -3.000000
366 2 537.669000 -2515.360000 469.745000 1 1.000000 1 -3.000000
367 2 539.488000 -2507.470000 475.337000 1 1.000000 1 -3.000000
368 2 539.914000 -2500.590000 482.366000 1 1.000000 1 -3.000000
369 2 539.070000 -2493.850000 489.552000 1 1.000000 1 -3.000000
370 2 533.780000 -2488.960000 496.247000 1 1.000000 1 -3.000000
371 2 528.880000 -2482.290000 501.507000 1 1.000000 1 -3.000000
372 2 528.038000 -2474.800000 507.916000 1 1.000000 15 -3.000000
373 1 535.898000 -2448.560000 469.467000 1 1.000000 15 0.000000
374 3 513.936000 -2473.210000 458.084000 1 1.000000 15 0.000000
375 2 526.759000 -2435.200000 425.143000 1 1.000000 15 -3.000000
376 2 526.699000 -2443.620000 419.890000 1 1.000000 1 -3.000000
377 2 523.538000 -2451.900000 415.586000 1 1.000000 1 -3.000000
378 2 519.580000 -2458.990000 410.062000 1 1.000000 1 -3.000000
379 2 516.921000 -2466.020000 403.618000 1 1.000000 1 -3.000000
380 2 513.440000 -2471.070000 395.939000 1 1.000000 1 -3.000000
381 2 507.968000 -2475.780000 389.021000 1 1.000000 1 -3.000000
382 2 502.222000 -2482.210000 384.180000 1 1.000000 1 -3.000000
383 2 495.242000 -2486.850000 378.784000 1 1.000000 1 -3.000000
384 2 487.413000 -2492.580000 377.152000 1 1.000000 1 -3.000000
385 2 477.777000 -2493.540000 375.084000 1 1.000000 1 -3.000000
386 2 467.864000 -2493.880000 375.182000 1 1.000000 1 -3.000000
387 2 458.428000 -2494.670000 372.231000 1 1.000000 1 -3.000000
388 2 449.083000 -2496.230000 369.495000 1 1.000000 1 -3.000000
389 2 439.949000 -2497.680000 365.859000 1 1.000000 1 -3.000000
390 2 430.710000 -2500.810000 363.873000 1 1.000000 1 -3.000000
391 2 424.215000 -2505.930000 358.354000 1 1.000000 1 -3.000000
392 2 416.714000 -2509.390000 352.890000 1 1.000000 1 -3.000000
393 2 409.476000 -2513.660000 347.550000 1 1.000000 1 -3.000000
394 2 401.988000 -2518.590000 343.348000 1 1.000000 1 -3.000000
395 2 394.576000 -2525.030000 341.743000 1 1.000000 1 -3.000000
396 2 386.254000 -2530.340000 340.711000 1 1.000000 1 -3.000000
397 2 378.992000 -2534.190000 335.215000 1 1.000000 1 -3.000000
398 2 372.294000 -2539.040000 329.863000 1 1.000000 1 -3.000000
399 2 366.188000 -2542.360000 322.835000 1 1.000000 16 -3.000000
400 1 373.434000 -2507.130000 292.259000 1 1.000000 16 0.000000
401 3 405.470000 -2513.680000 304.867000 1 1.000000 16 0.000000
402 2 400.380000 -2475.120000 270.297000 1 1.000000 16 -3.000000
403 2 406.952000 -2476.140000 277.618000 1 1.000000 1 -3.000000
404 2 414.901000 -2477.540000 283.357000 1 1.000000 1 -3.000000
405 2 422.569000 -2479.610000 289.144000 1 1.000000 1 -3.000000
406 2 432.236000 -2477.970000 291.137000 1 1.000000 1 -3.000000
407 2 441.014000 -2474.400000 294.094000 1 1.000000 1 -3.000000
408 2 450.820000 -2475.530000 293.563000 1 1.000000 1 -3.000000
409 2 460.742000 -2474.910000 292.708000 1 1.000000 1 -3.000000
410 2 470.204000 -2474.150000 289.989000 1 1.000000 1 -3.000000
411 2 479.272000 -2472.660000 286.398000 1 1.000000 1 -3.000000
412 2 488.275000 -2474.110000 282.465000 1 1.000000 1 -3.000000
413 2 497.804000 -2471.570000 283.757000 1 1.000000 1 -3.000000
414 2 506.214000 -2466.320000 283.254000 1 1.000000 1 -3.000000
415 2 513.292000 -2459.440000 282.303000 1 1.000000 1 -3.000000
416 2 520.870000 -2453.970000 279.483000 1 1.000000 1 -3.000000
417 2 524.847000 -2445.180000 277.186000 1 1.000000 1 -3.000000
418 2 530.228000 -2436.990000 275.764000 1 1.000000 1 -3.000000
419 2 533.553000 -2427.790000 274.403000 1 1.000000 1 -3.000000
420 2 540.328000 -2420.680000 274.004000 1 1.000000 1 -3.000000
421 2 546.599000 -2413.590000 271.130000 1 1.000000 1 -3.000000
422 2 554.741000 -2409.940000 266.913000 1 1.000000 1 -3.000000
423 2 563.139000 -2405.790000 264.120000 1 1.000000 1 -3.000000
424 2 572.753000 -2403.680000 262.621000 1 1.000000 1 -3.000000
425 2 581.045000 -2398.130000 262.001000 1 1.000000 1 -3.000000
426 2 588.539000 -2391.740000 261.658000 1 1.000000 17 -3.000000
427 1 593.648000 -2383.960000 307.918000 1 1.000000 17 0.000000
428 3 581.714000 -2416.850000 306.433000 1 1.000000 17 0.000000
429 2 591.041000 -2396.510000 353.377000 1 1.000000 17 -3.000000
430 2 591.983000 -2406.120000 350.650000 1 1.000000 1 -3.000000
431 2 593.464000 -2415.660000 348.054000 1 1.000000 1 -3.000000
432 2 592.244000 -2425.410000 347.726000 1 1.000000 1 -3.000000
433 2 591.537000 -2435.140000 346.501000 1 1.000000 1 -3.000000
434 2 589.697000 -2444.910000 346.101000 1 1.000000 1 -3.000000
435 2 587.551000 -2454.640000 345.958000 1 1.000000 1 -3.000000
436 2 587.903000 -2463.880000 349.806000 1 1.000000 1 -3.000000
437 2 590.227000 -2471.800000 355.160000 1 1.000000 1 -3.000000
438 2 592.623000 -2480.270000 359.794000 1 1.000000 1 -3.000000
439 2 594.098000 -2488.180000 365.740000 1 1.000000 1 -3.000000
440 2 596.773000 -2492.970000 373.980000 1 1.000000 1 -3.000000
441 2 599.943000 -2494.830000 383.065000 1 1.000000 1 -3.000000
442 2 602.824000 -2498.840000 391.530000 1 1.000000 1 -3.000000
443 2 605.169000 -2501.430000 400.778000 1 1.000000 1 -3.000000
444 2 607.041000 -2501.780000 410.441000 1 1.000000 1 -3.000000
445 2 608.089000 -2504.760000 419.984000 1 1.000000 1 -3.000000
446 2 607.564000 -2504.450000 429.911000 1 1.000000 1 -3.000000
447 2 607.593000 -2503.060000 439.660000 1 1.000000 1 -3.000000
448 2 606.465000 -2502.220000 449.432000 1 1.000000 1 -3.000000
449 2 609.820000 -2497.440000 457.392000 1 1.000000 1 -3.000000
450 2 612.660000 -2494.200000 466.393000 1 1.000000 1 -3.000000
451 2 615.506000 -2489.430000 474.629000 1 1.000000 1 -3.000000
452 2 619.656000 -2484.870000 482.479000 1 1.000000 1 -3.000000
453 2 626.773000 -2479.340000 486.465000 1 1.000000 18 -3.000000
454 1 652.729000 -2517.230000 497.359000 1 1.000000 18 0.000000
455 3 646.838000 -2521.370000 463.107000 1 1.000000 18 0.000000
456 2 679.083000 -2554.750000 486.251000 1 1.000000 18 -3.000000
457 2 681.739000 -2551.640000 477.231000 1 1.000000 1 -3.000000
458 2 678.193000 -2549.460000 468.318000 1 1.000000 1 -3.000000
459 2 675.262000 -2552.450000 459.472000 1 1.000000 1 -3.000000
460 2 676.167000 -2552.150000 449.511000 1 1.000000 1 -3.000000
461 2 676.173000 -2547.550000 440.740000 1 1.000000 1 -3.000000
462 2 677.974000 -2539.350000 435.615000 1 1.000000 1 -3.000000
463 2 680.755000 -2531.450000 430.312000 1 1.000000 1 -3.000000
464 2 682.476000 -2525.080000 422.992000 1 1.000000 1 -3.000000
465 2 686.285000 -2519.080000 416.030000 1 1.000000 1 -3.000000