LAMMPS data file

4067 atoms
4067 ellipsoids
4516 bonds
8882 angles
0 dihedrals

3 atom types
5 bond types
12 angle types
0 dihedral types

-4631.092947 4670.465898 xlo xhi
-4631.092947 4670.465898 ylo yhi
-4631.092947 4670.465898 zlo zhi

Masses

1 196016.000000
2 1950.000000
3 19500.000000

Atoms

1 2 801.608000 -2837.640000 496.884000 1 1.000000 1 -3.000000
2 2 804.110000 -2836.170000 506.336000 1 1.000000 1 -3.000000
3 2 807.606000 -2836.740000 515.517000 1 1.000000 1 -3.000000
4 2 808.038000 -2836.560000 525.307000 1 1.000000 1 -3.000000
5 2 809.952000 -2840.400000 534.254000 1 1.000000 1 -3.000000
6 2 812.653000 -2842.310000 543.576000 1 1.000000 1 -3.000000
7 2 816.145000 -2844.350000 552.756000 1 1.000000 1 -3.000000
8 2 821.458000 -2845.020000 561.038000 1 1.000000 1 -3.000000
9 2 825.469000 -2845.290000 570.122000 1 1.000000 1 -3.000000
10 2 830.633000 -2843.510000 578.460000 1 1.000000 1 -3.000000
11 2 835.764000 -2840.050000 586.284000 1 1.000000 1 -3.000000
12 2 837.288000 -2835.470000 594.938000 1 1.000000 1 -3.000000
13 2 836.209000 -2829.400000 602.612000 1 1.000000 1 -3.000000
14 2 837.621000 -2823.400000 610.336000 1 1.000000 1 -3.000000
15 2 839.026000 -2817.100000 617.817000 1 1.000000 1 -3.000000
16 2 839.296000 -2810.180000 624.919000 1 1.000000 1 -3.000000
17 2 839.443000 -2804.020000 632.554000 1 1.000000 1 -3.000000
18 2 839.992000 -2799.750000 641.565000 1 1.000000 1 -3.000000
19 2 841.626000 -2798.180000 651.193000 1 1.000000 1 -3.000000
20 2 842.021000 -2794.030000 660.031000 1 1.000000 1 -3.000000
21 2 845.155000 -2790.010000 668.553000 1 1.000000 2 -3.000000
22 1 874.107000 -2824.540000 682.570000 1 1.000000 2 0.000000
23 3 865.368000 -2833.990000 649.973000 1 1.000000 2 0.000000
24 2 897.188000 -2865.310000 676.445000 1 1.000000 2 -3.000000
25 2 894.607000 -2865.360000 666.912000 1 1.000000 1 -3.000000
26 2 893.302000 -2862.640000 657.521000 1 1.000000 1 -3.000000
27 2 894.021000 -2862.630000 647.654000 1 1.000000 1 -3.000000
28 2 896.093000 -2861.590000 637.970000 1 1.000000 1 -3.000000
29 2 897.632000 -2855.140000 630.682000 1 1.000000 1 -3.000000
30 2 896.926000 -2849.900000 622.364000 1 1.000000 1 -3.000000
31 2 893.648000 -2844.960000 614.377000 1 1.000000 1 -3.000000
32 2 892.721000 -2839.720000 606.154000 1 1.000000 1 -3.000000
33 2 891.452000 -2833.710000 598.402000 1 1.000000 1 -3.000000
34 2 888.079000 -2827.550000 591.421000 1 1.000000 1 -3.000000
35 2 883.491000 -2821.190000 585.272000 1 1.000000 1 -3.000000
36 2 877.770000 -2813.830000 581.863000 1 1.000000 1 -3.000000
37 2 877.088000 -2803.960000 580.838000 1 1.000000 1 -3.000000
38 2 878.790000 -2795.620000 575.653000 1 1.000000 1 -3.000000
39 2 878.125000 -2787.610000 569.895000 1 1.000000 1 -3.000000
40 2 881.448000 -2779.380000 565.430000 1 1.000000 1 -3.000000
41 2 884.756000 -2771.590000 560.241000 1 1.000000 1 -3.000000
42 2 888.660000 -2763.530000 556.010000 1 1.000000 1 -3.000000
43 2 895.032000 -2755.990000 554.802000 1 1.000000 1 -3.000000
44 2 902.226000 -2749.960000 551.617000 1 1.000000 1 -3.000000
45 2 907.544000 -2742.280000 548.392000 1 1.000000 1 -3.000000
46 2 911.963000 -2733.560000 546.576000 1 1.000000 1 -3.000000
47 2 914.947000 -2724.520000 543.946000 1 1.000000 1 -3.000000
48 2 915.272000 -2715.380000 540.112000 1 1.000000 3 -3.000000
49 1 910.013000 -2726.810000 494.735000 1 1.000000 3 0.000000
50 3 887.915000 -2748.630000 510.948000 1 1.000000 3 0.000000
51 2 891.911000 -2751.970000 459.309000 1 1.000000 3 -3.000000
52 2 883.505000 -2754.050000 464.184000 1 1.000000 1 -3.000000
53 2 876.573000 -2759.850000 468.000000 1 1.000000 1 -3.000000
54 2 868.729000 -2762.260000 473.581000 1 1.000000 1 -3.000000
55 2 860.493000 -2764.200000 478.746000 1 1.000000 1 -3.000000
56 2 853.464000 -2764.220000 485.805000 1 1.000000 1 -3.000000
57 2 847.354000 -2761.510000 493.091000 1 1.000000 1 -3.000000
58 2 842.678000 -2756.440000 500.422000 1 1.000000 1 -3.000000
59 2 838.238000 -2750.420000 506.892000 1 1.000000 1 -3.000000
60 2 835.439000 -2742.750000 512.594000 1 1.000000 1 -3.000000
61 2 832.441000 -2733.660000 515.298000 1 1.000000 1 -3.000000
62 2 827.905000 -2725.580000 518.426000 1 1.000000 1 -3.000000
63 2 825.369000 -2716.440000 521.549000 1 1.000000 1 -3.000000
64 2 824.275000 -2708.410000 527.143000 1 1.000000 1 -3.000000
65 2 824.813000 -2698.590000 527.795000 1 1.000000 1 -3.000000
66 2 825.190000 -2688.680000 528.436000 1 1.000000 1 -3.000000
67 2 823.949000 -2678.720000 527.967000 1 1.000000 1 -3.000000
68 2 825.051000 -2669.110000 525.904000 1 1.000000 1 -3.000000
69 2 824.557000 -2659.310000 526.284000 1 1.000000 1 -3.000000
70 2 821.904000 -2650.540000 529.858000 1 1.000000 1 -3.000000
71 2 820.621000 -2640.780000 529.183000 1 1.000000 1 -3.000000
72 2 819.174000 -2631.110000 528.854000 1 1.000000 1 -3.000000
73 2 817.967000 -2621.260000 528.076000 1 1.000000 1 -3.000000
74 2 816.822000 -2611.570000 526.721000 1 1.000000 1 -3.000000
75 2 816.059000 -2601.720000 526.218000 1 1.000000 4 -3.000000
76 1 772.614000 -2606.880000 543.926000 1 1.000000 4 0.000000
77 3 781.272000 -2639.440000 534.195000 1 1.000000 4 0.000000
78 2 733.545000 -2631.550000 553.337000 1 1.000000 4 -3.000000
79 2 736.314000 -2639.400000 547.930000 1 1.000000 1 -3.000000
80 2 738.391000 -2648.330000 543.949000 1 1.000000 1 -3.000000
81 2 740.725000 -2657.730000 541.897000 1 1.000000 1 -3.000000
82 2 744.285000 -2667.030000 541.704000 1 1.000000 1 -3.000000
83 2 745.000000 -2676.850000 540.281000 1 1.000000 1 -3.000000
84 2 748.081000 -2686.210000 540.828000 1 1.000000 1 -3.000000
85 2 748.548000 -2696.100000 540.599000 1 1.000000 1 -3.000000
86 2 748.249000 -2706.010000 541.767000 1 1.000000 1 -3.000000
87 2 749.420000 -2715.840000 542.671000 1 1.000000 1 -3.000000
88 2 751.300000 -2725.180000 545.435000 1 1.000000 1 -3.000000
89 2 750.941000 -2731.510000 553.137000 1 1.000000 1 -3.000000
90 2 749.171000 -2738.540000 559.789000 1 1.000000 1 -3.000000
91 2 744.488000 -2745.580000 565.140000 1 1.000000 1 -3.000000
92 2 744.860000 -2750.540000 573.699000 1 1.000000 1 -3.000000
93 2 743.422000 -2758.310000 579.549000 1 1.000000 1 -3.000000
94 2 744.825000 -2763.610000 587.737000 1 1.000000 1 -3.000000
95 2 746.329000 -2769.000000 596.063000 1 1.000000 1 -3.000000
96 2 748.234000 -2776.390000 602.411000 1 1.000000 1 -3.000000
97 2 748.187000 -2783.630000 609.163000 1 1.000000 1 -3.000000
98 2 746.040000 -2789.420000 616.848000 1 1.000000 1 -3.000000
99 2 742.003000 -2796.730000 622.241000 1 1.000000 1 -3.000000
100 2 740.580000 -2806.050000 625.127000 1 1.000000 1 -3.000000
101 2 742.112000 -2814.050000 630.709000 1 1.000000 1 -3.000000
102 2 744.321000 -2821.320000 637.166000 1 1.000000 5 -3.000000
103 1 751.046000 -2794.050000 675.153000 1 1.000000 5 0.000000
104 3 729.824000 -2774.760000 655.030000 1 1.000000 5 0.000000
105 2 744.460000 -2754.940000 700.751000 1 1.000000 5 -3.000000
106 2 740.416000 -2748.520000 694.192000 1 1.000000 1 -3.000000
107 2 736.534000 -2742.970000 686.888000 1 1.000000 1 -3.000000
108 2 732.507000 -2736.070000 680.998000 1 1.000000 1 -3.000000
109 2 724.808000 -2732.750000 675.722000 1 1.000000 1 -3.000000
110 2 716.273000 -2734.530000 671.094000 1 1.000000 1 -3.000000
111 2 707.661000 -2735.380000 666.394000 1 1.000000 1 -3.000000
112 2 700.832000 -2738.420000 660.002000 1 1.000000 1 -3.000000
113 2 695.175000 -2742.750000 653.292000 1 1.000000 1 -3.000000
114 2 687.076000 -2745.690000 648.384000 1 1.000000 1 -3.000000
115 2 678.807000 -2749.310000 644.277000 1 1.000000 1 -3.000000
116 2 669.511000 -2752.560000 642.786000 1 1.000000 1 -3.000000
117 2 662.675000 -2759.710000 642.444000 1 1.000000 1 -3.000000
118 2 654.953000 -2765.760000 640.902000 1 1.000000 1 -3.000000
119 2 649.397000 -2773.820000 639.478000 1 1.000000 1 -3.000000
120 2 643.093000 -2781.180000 637.429000 1 1.000000 1 -3.000000
121 2 637.043000 -2788.530000 635.313000 1 1.000000 1 -3.000000
122 2 635.662000 -2798.370000 635.177000 1 1.000000 1 -3.000000
123 2 633.927000 -2808.080000 636.094000 1 1.000000 1 -3.000000
124 2 632.708000 -2817.790000 635.569000 1 1.000000 1 -3.000000
125 2 635.496000 -2826.980000 637.679000 1 1.000000 1 -3.000000
126 2 637.704000 -2835.370000 642.419000 1 1.000000 1 -3.000000
127 2 639.291000 -2841.810000 649.993000 1 1.000000 1 -3.000000
128 2 640.078000 -2850.640000 654.195000 1 1.000000 1 -3.000000
129 2 638.843000 -2860.250000 656.400000 1 1.000000 6 -3.000000
130 1 641.478000 -2843.480000 700.552000 1 1.000000 6 0.000000
131 3 631.743000 -2815.640000 681.817000 1 1.000000 6 0.000000
132 2 632.880000 -2810.840000 733.542000 1 1.000000 6 -3.000000
133 2 630.522000 -2802.330000 729.078000 1 1.000000 1 -3.000000
134 2 629.643000 -2794.860000 722.696000 1 1.000000 1 -3.000000
135 2 629.811000 -2787.550000 715.997000 1 1.000000 1 -3.000000
136 2 628.909000 -2779.870000 709.945000 1 1.000000 1 -3.000000
137 2 627.540000 -2773.980000 701.991000 1 1.000000 1 -3.000000
138 2 623.045000 -2766.300000 697.678000 1 1.000000 1 -3.000000
139 2 620.733000 -2757.970000 692.785000 1 1.000000 1 -3.000000
140 2 620.600000 -2749.810000 687.014000 1 1.000000 1 -3.000000
141 2 622.835000 -2742.290000 681.049000 1 1.000000 1 -3.000000
142 2 624.136000 -2734.490000 675.136000 1 1.000000 1 -3.000000
143 2 625.079000 -2727.230000 668.521000 1 1.000000 1 -3.000000
144 2 627.616000 -2719.610000 662.780000 1 1.000000 1 -3.000000
145 2 626.456000 -2711.830000 656.760000 1 1.000000 1 -3.000000
146 2 621.978000 -2703.800000 653.124000 1 1.000000 1 -3.000000
147 2 616.673000 -2696.210000 649.693000 1 1.000000 1 -3.000000
148 2 614.078000 -2687.390000 645.962000 1 1.000000 1 -3.000000
149 2 610.808000 -2680.470000 639.688000 1 1.000000 1 -3.000000
150 2 610.816000 -2674.840000 631.499000 1 1.000000 1 -3.000000
151 2 613.185000 -2666.940000 625.842000 1 1.000000 1 -3.000000
152 2 614.768000 -2657.470000 623.762000 1 1.000000 1 -3.000000
153 2 615.150000 -2648.020000 620.730000 1 1.000000 1 -3.000000
154 2 616.346000 -2640.160000 614.719000 1 1.000000 1 -3.000000
155 2 614.409000 -2634.580000 606.692000 1 1.000000 1 -3.000000
156 2 614.436000 -2628.650000 598.709000 1 1.000000 7 -3.000000
157 1 570.922000 -2641.570000 585.945000 1 1.000000 7 0.000000
158 3 580.551000 -2666.760000 608.120000 1 1.000000 7 0.000000
159 2 534.158000 -2671.100000 584.943000 1 1.000000 7 -3.000000
160 2 538.664000 -2679.050000 581.250000 1 1.000000 1 -3.000000
161 2 540.477000 -2687.390000 576.063000 1 1.000000 1 -3.000000
162 2 544.477000 -2695.230000 571.188000 1 1.000000 1 -3.000000
163 2 549.904000 -2703.020000 568.445000 1 1.000000 1 -3.000000
164 2 554.542000 -2710.880000 564.683000 1 1.000000 1 -3.000000
165 2 556.386000 -2719.180000 559.748000 1 1.000000 1 -3.000000
166 2 557.417000 -2728.150000 555.738000 1 1.000000 1 -3.000000
167 2 555.980000 -2736.950000 551.303000 1 1.000000 1 -3.000000
168 2 554.541000 -2745.760000 547.051000 1 1.000000 1 -3.000000
169 2 554.538000 -2755.230000 544.605000 1 1.000000 1 -3.000000
170 2 551.619000 -2764.520000 543.813000 1 1.000000 1 -3.000000
171 2 548.155000 -2773.320000 541.044000 1 1.000000 1 -3.000000
172 2 543.498000 -2782.040000 541.706000 1 1.000000 1 -3.000000
173 2 538.073000 -2790.220000 541.691000 1 1.000000 1 -3.000000
174 2 531.329000 -2796.750000 544.620000 1 1.000000 1 -3.000000
175 2 523.642000 -2802.960000 543.921000 1 1.000000 1 -3.000000
176 2 517.534000 -2810.280000 546.835000 1 1.000000 1 -3.000000
177 2 514.893000 -2819.070000 550.517000 1 1.000000 1 -3.000000
178 2 514.342000 -2827.800000 555.336000 1 1.000000 1 -3.000000
179 2 514.720000 -2837.160000 558.409000 1 1.000000 1 -3.000000
180 2 516.013000 -2846.180000 562.185000 1 1.000000 1 -3.000000
181 2 519.362000 -2854.260000 566.875000 1 1.000000 1 -3.000000
182 2 523.355000 -2862.420000 570.835000 1 1.000000 1 -3.000000
183 2 522.066000 -2871.800000 573.734000 1 1.000000 8 -3.000000
184 1 475.202000 -2870.920000 568.244000 1 1.000000 8 0.000000
185 3 486.825000 -2855.670000 538.992000 1 1.000000 8 0.000000
186 2 435.762000 -2863.530000 543.474000 1 1.000000 8 -3.000000
187 2 438.587000 -2854.100000 542.389000 1 1.000000 1 -3.000000
188 2 441.249000 -2844.410000 542.266000 1 1.000000 1 -3.000000
189 2 442.787000 -2834.460000 543.138000 1 1.000000 1 -3.000000
190 2 440.181000 -2825.980000 547.407000 1 1.000000 1 -3.000000
191 2 437.497000 -2816.740000 549.834000 1 1.000000 1 -3.000000
192 2 436.891000 -2806.820000 549.466000 1 1.000000 1 -3.000000
193 2 433.044000 -2797.800000 549.416000 1 1.000000 1 -3.000000
194 2 424.066000 -2793.840000 549.913000 1 1.000000 1 -3.000000
195 2 416.093000 -2792.020000 555.490000 1 1.000000 1 -3.000000
196 2 409.608000 -2787.720000 561.820000 1 1.000000 1 -3.000000
197 2 404.487000 -2781.240000 567.137000 1 1.000000 1 -3.000000
198 2 403.571000 -2774.230000 573.845000 1 1.000000 1 -3.000000
199 2 405.743000 -2770.500000 582.823000 1 1.000000 1 -3.000000
200 2 407.738000 -2765.360000 590.934000 1 1.000000 1 -3.000000
201 2 410.132000 -2765.240000 600.554000 1 1.000000 1 -3.000000
202 2 413.342000 -2766.680000 609.838000 1 1.000000 1 -3.000000
203 2 419.990000 -2771.180000 615.497000 1 1.000000 1 -3.000000
204 2 423.574000 -2774.880000 623.953000 1 1.000000 1 -3.000000
205 2 428.548000 -2780.550000 630.277000 1 1.000000 1 -3.000000
206 2 433.629000 -2787.570000 635.211000 1 1.000000 1 -3.000000
207 2 438.417000 -2794.830000 639.799000 1 1.000000 1 -3.000000
208 2 445.168000 -2800.250000 644.608000 1 1.000000 1 -3.000000
209 2 450.164000 -2805.370000 651.409000 1 1.000000 1 -3.000000
210 2 453.930000 -2813.110000 656.480000 1 1.000000 9 -3.000000
211 1 487.538000 -2780.240000 660.652000 1 1.000000 9 0.000000
212 3 457.879000 -2761.720000 663.848000 1 1.000000 9 0.000000
213 2 503.046000 -2736.550000 669.430000 1 1.000000 9 -3.000000
214 2 495.657000 -2737.130000 676.101000 1 1.000000 1 -3.000000
215 2 487.882000 -2736.500000 682.082000 1 1.000000 1 -3.000000
216 2 480.095000 -2730.610000 684.022000 1 1.000000 1 -3.000000
217 2 471.702000 -2727.090000 687.853000 1 1.000000 1 -3.000000
218 2 461.819000 -2726.060000 688.045000 1 1.000000 1 -3.000000
219 2 452.309000 -2724.460000 685.449000 1 1.000000 1 -3.000000
220 2 442.926000 -2721.660000 683.809000 1 1.000000 1 -3.000000
221 2 433.629000 -2720.700000 680.911000 1 1.000000 1 -3.000000
222 2 428.054000 -2720.290000 672.752000 1 1.000000 1 -3.000000
223 2 423.347000 -2714.680000 666.176000 1 1.000000 1 -3.000000
224 2 421.010000 -2708.780000 658.602000 1 1.000000 1 -3.000000
225 2 418.695000 -2705.400000 649.695000 1 1.000000 1 -3.000000
226 2 415.430000 -2700.330000 641.895000 1 1.000000 1 -3.000000
227 2 411.078000 -2697.860000 633.557000 1 1.000000 1 -3.000000
228 2 405.300000 -2695.310000 625.858000 1 1.000000 1 -3.000000
229 2 397.615000 -2692.910000 620.098000 1 1.000000 1 -3.000000
230 2 391.210000 -2688.770000 613.935000 1 1.000000 1 -3.000000
231 2 386.409000 -2684.360000 606.651000 1 1.000000 1 -3.000000
232 2 382.034000 -2675.700000 604.199000 1 1.000000 1 -3.000000
233 2 374.359000 -2669.500000 603.734000 1 1.000000 1 -3.000000
234 2 364.655000 -2667.620000 604.437000 1 1.000000 1 -3.000000
235 2 354.945000 -2665.920000 606.071000 1 1.000000 1 -3.000000
236 2 345.404000 -2666.740000 608.591000 1 1.000000 1 -3.000000
237 2 336.219000 -2664.100000 611.224000 1 1.000000 10 -3.000000
238 1 321.334000 -2622.890000 593.715000 1 1.000000 10 0.000000
239 3 356.108000 -2619.460000 593.942000 1 1.000000 10 0.000000
240 2 328.168000 -2579.010000 577.612000 1 1.000000 10 -3.000000
241 2 337.794000 -2579.510000 575.612000 1 1.000000 1 -3.000000
242 2 347.371000 -2579.700000 573.307000 1 1.000000 1 -3.000000
243 2 356.463000 -2582.170000 570.314000 1 1.000000 1 -3.000000
244 2 365.115000 -2585.430000 566.894000 1 1.000000 1 -3.000000
245 2 372.180000 -2587.330000 560.180000 1 1.000000 1 -3.000000
246 2 378.596000 -2592.640000 554.796000 1 1.000000 1 -3.000000
247 2 383.739000 -2597.870000 548.177000 1 1.000000 1 -3.000000
248 2 390.021000 -2603.800000 543.395000 1 1.000000 1 -3.000000
249 2 395.683000 -2609.460000 537.704000 1 1.000000 1 -3.000000
250 2 403.954000 -2611.710000 532.677000 1 1.000000 1 -3.000000
251 2 412.333000 -2616.660000 530.584000 1 1.000000 1 -3.000000
252 2 420.748000 -2620.920000 527.242000 1 1.000000 1 -3.000000
253 2 429.188000 -2625.240000 524.535000 1 1.000000 1 -3.000000
254 2 436.688000 -2631.510000 523.463000 1 1.000000 1 -3.000000
255 2 443.735000 -2638.150000 521.499000 1 1.000000 1 -3.000000
256 2 451.822000 -2643.930000 521.812000 1 1.000000 1 -3.000000
257 2 460.618000 -2648.400000 523.966000 1 1.000000 1 -3.000000
258 2 470.294000 -2650.770000 523.992000 1 1.000000 1 -3.000000
259 2 479.963000 -2649.510000 525.847000 1 1.000000 1 -3.000000
260 2 489.812000 -2650.070000 525.968000 1 1.000000 1 -3.000000
261 2 499.671000 -2650.450000 526.565000 1 1.000000 1 -3.000000
262 2 509.189000 -2650.320000 523.756000 1 1.000000 1 -3.000000
263 2 518.173000 -2647.150000 520.697000 1 1.000000 1 -3.000000
264 2 526.697000 -2643.370000 517.245000 1 1.000000 11 -3.000000
265 1 501.877000 -2604.760000 528.215000 1 1.000000 11 0.000000
266 3 478.616000 -2624.870000 511.581000 1 1.000000 11 0.000000
267 2 463.339000 -2577.630000 526.836000 1 1.000000 11 -3.000000
268 2 459.402000 -2583.970000 520.417000 1 1.000000 1 -3.000000
269 2 452.699000 -2588.170000 514.542000 1 1.000000 1 -3.000000
270 2 443.868000 -2590.050000 510.749000 1 1.000000 1 -3.000000
271 2 435.157000 -2589.240000 506.299000 1 1.000000 1 -3.000000
272 2 425.898000 -2591.080000 503.578000 1 1.000000 1 -3.000000
273 2 417.898000 -2595.580000 499.943000 1 1.000000 1 -3.000000
274 2 410.468000 -2601.590000 497.404000 1 1.000000 1 -3.000000
275 2 402.236000 -2607.030000 495.573000 1 1.000000 1 -3.000000
276 2 393.717000 -2610.240000 491.732000 1 1.000000 1 -3.000000
277 2 384.724000 -2612.930000 488.571000 1 1.000000 1 -3.000000
278 2 376.512000 -2615.850000 484.009000 1 1.000000 1 -3.000000
279 2 368.246000 -2619.780000 480.510000 1 1.000000 1 -3.000000
280 2 359.310000 -2621.840000 476.528000 1 1.000000 1 -3.000000
281 2 352.268000 -2627.600000 472.667000 1 1.000000 1 -3.000000
282 2 348.164000 -2634.760000 467.137000 1 1.000000 1 -3.000000
283 2 344.603000 -2642.790000 462.941000 1 1.000000 1 -3.000000
284 2 343.324000 -2650.200000 456.387000 1 1.000000 1 -3.000000
285 2 341.422000 -2658.910000 452.073000 1 1.000000 1 -3.000000
286 2 338.295000 -2668.020000 449.896000 1 1.000000 1 -3.000000
287 2 338.141000 -2677.950000 449.557000 1 1.000000 1 -3.000000
288 2 336.767000 -2687.800000 449.525000 1 1.000000 1 -3.000000
289 2 334.228000 -2697.340000 449.749000 1 1.000000 1 -3.000000
290 2 330.888000 -2706.610000 450.223000 1 1.000000 1 -3.000000
291 2 327.498000 -2715.950000 450.459000 1 1.000000 12 -3.000000
292 1 332.075000 -2730.360000 405.746000 1 1.000000 12 0.000000
293 3 362.806000 -2715.330000 412.520000 1 1.000000 12 0.000000
294 2 354.139000 -2731.360000 363.989000 1 1.000000 12 -3.000000
295 2 362.064000 -2734.280000 369.100000 1 1.000000 1 -3.000000
296 2 370.519000 -2734.040000 374.311000 1 1.000000 1 -3.000000
297 2 380.135000 -2733.150000 376.334000 1 1.000000 1 -3.000000
298 2 389.626000 -2733.070000 379.278000 1 1.000000 1 -3.000000
299 2 398.261000 -2731.630000 383.875000 1 1.000000 1 -3.000000
300 2 402.784000 -2728.490000 392.240000 1 1.000000 1 -3.000000
301 2 409.825000 -2723.040000 396.664000 1 1.000000 1 -3.000000
302 2 417.129000 -2717.900000 400.902000 1 1.000000 1 -3.000000
303 2 423.995000 -2712.780000 405.866000 1 1.000000 1 -3.000000
304 2 428.950000 -2705.160000 409.769000 1 1.000000 1 -3.000000
305 2 433.964000 -2697.310000 413.163000 1 1.000000 1 -3.000000
306 2 437.381000 -2689.910000 418.923000 1 1.000000 1 -3.000000
307 2 440.307000 -2684.540000 426.666000 1 1.000000 1 -3.000000
308 2 442.263000 -2678.130000 433.858000 1 1.000000 1 -3.000000
309 2 445.845000 -2670.730000 439.506000 1 1.000000 1 -3.000000
310 2 451.477000 -2665.580000 445.554000 1 1.000000 1 -3.000000
311 2 456.960000 -2663.490000 453.631000 1 1.000000 1 -3.000000
312 2 462.248000 -2661.810000 461.820000 1 1.000000 1 -3.000000
313 2 468.684000 -2659.820000 469.046000 1 1.000000 1 -3.000000
314 2 476.887000 -2656.540000 473.559000 1 1.000000 1 -3.000000
315 2 483.521000 -2649.370000 475.609000 1 1.000000 1 -3.000000
316 2 491.099000 -2643.000000 475.898000 1 1.000000 1 -3.000000
317 2 498.065000 -2636.130000 474.390000 1 1.000000 1 -3.000000
318 2 503.428000 -2627.920000 475.579000 1 1.000000 13 -3.000000
319 1 526.310000 -2640.720000 436.353000 1 1.000000 13 0.000000
320 3 495.324000 -2656.750000 433.421000 1 1.000000 13 0.000000
321 2 529.142000 -2661.400000 394.029000 1 1.000000 13 -3.000000
322 2 519.552000 -2663.020000 391.053000 1 1.000000 1 -3.000000
323 2 510.170000 -2659.750000 389.982000 1 1.000000 1 -3.000000
324 2 502.930000 -2653.220000 387.789000 1 1.000000 1 -3.000000
325 2 497.608000 -2644.910000 386.870000 1 1.000000 1 -3.000000
326 2 492.261000 -2636.660000 388.562000 1 1.000000 1 -3.000000
327 2 491.897000 -2626.930000 390.230000 1 1.000000 1 -3.000000
328 2 491.318000 -2617.690000 393.698000 1 1.000000 1 -3.000000
329 2 492.392000 -2609.930000 399.810000 1 1.000000 1 -3.000000
330 2 493.906000 -2605.220000 408.268000 1 1.000000 1 -3.000000
331 2 497.610000 -2600.770000 416.248000 1 1.000000 1 -3.000000
332 2 502.209000 -2594.200000 422.186000 1 1.000000 1 -3.000000
333 2 506.103000 -2588.550000 429.344000 1 1.000000 1 -3.000000
334 2 509.911000 -2580.840000 433.993000 1 1.000000 1 -3.000000
335 2 513.379000 -2572.340000 437.650000 1 1.000000 1 -3.000000
336 2 516.901000 -2563.360000 440.105000 1 1.000000 1 -3.000000
337 2 522.907000 -2555.860000 442.640000 1 1.000000 1 -3.000000
338 2 528.937000 -2548.200000 444.234000 1 1.000000 1 -3.000000
339 2 533.318000 -2539.280000 443.283000 1 1.000000 1 -3.000000
340 2 533.411000 -2530.330000 439.126000 1 1.000000 1 -3.000000
341 2 534.824000 -2521.990000 433.860000 1 1.000000 1 -3.000000
342 2 533.084000 -2513.820000 428.674000 1 1.000000 1 -3.000000
343 2 528.301000 -2509.110000 421.379000 1 1.000000 1 -3.000000
344 2 525.433000 -2503.690000 413.591000 1 1.000000 1 -3.000000
345 2 522.757000 -2497.750000 406.214000 1 1.000000 14 -3.000000
346 1 495.364000 -2484.580000 442.261000 1 1.000000 14 0.000000
347 3 519.639000 -2504.520000 457.549000 1 1.000000 14 0.000000
348 2 483.289000 -2483.410000 487.843000 1 1.000000 14 -3.000000
349 2 489.471000 -2490.350000 491.121000 1 1.000000 1 -3.000000
350 2 498.318000 -2494.660000 492.511000 1 1.000000 1 -3.000000
351 2 506.545000 -2498.850000 496.017000 1 1.000000 1 -3.000000
352 2 513.634000 -2503.400000 501.270000 1 1.000000 1 -3.000000
353 2 522.073000 -2508.010000 503.404000 1 1.000000 1 -3.000000
354 2 531.173000 -2511.850000 504.551000 1 1.000000 1 -3.000000
355 2 539.195000 -2514.890000 509.448000 1 1.000000 1 -3.000000
356 2 548.063000 -2516.200000 513.608000 1 1.000000 1 -3.000000
357 2 554.616000 -2517.820000 520.826000 1 1.000000 1 -3.000000
358 2 559.950000 -2519.840000 528.906000 1 1.000000 1 -3.000000
359 2 564.066000 -2519.790000 537.943000 1 1.000000 1 -3.000000
360 2 566.924000 -2522.970000 546.857000 1 1.000000 1 -3.000000
361 2 569.375000 -2525.110000 556.168000 1 1.000000 1 -3.000000
362 2 574.653000 -2527.240000 564.429000 1 1.000000 1 -3.000000
363 2 581.741000 -2529.910000 570.934000 1 1.000000 1 -3.000000
364 2 587.403000 -2537.120000 574.745000 1 1.000000 1 -3.000000
365 2 593.355000 -2544.980000 575.803000 1 1.000000 1 -3.000000
366 2 598.317000 -2553.020000 572.649000 1 1.000000 1 -3.000000
367 2 602.964000 -2560.280000 567.763000 1 1.000000 1 -3.000000
368 2 607.670000 -2567.290000 562.852000 1 1.000000 1 -3.000000
369 2 612.007000 -2574.480000 557.756000 1 1.000000 1 -3.000000
370 2 618.290000 -2581.790000 555.403000 1 1.000000 1 -3.000000
371 2 625.154000 -2588.450000 552.970000 1 1.000000 1 -3.000000
372 2 631.330000 -2595.630000 550.219000 1 1.000000 15 -3.000000
373 1 661.675000 -2593.860000 586.357000 1 1.000000 15 0.000000
374 3 648.059000 -2561.790000 585.837000 1 1.000000 15 0.000000
375 2 685.618000 -2571.410000 620.314000 1 1.000000 15 -3.000000
376 2 677.499000 -2565.990000 621.266000 1 1.000000 1 -3.000000
377 2 669.182000 -2561.690000 624.614000 1 1.000000 1 -3.000000
378 2 660.470000 -2557.650000 627.305000 1 1.000000 1 -3.000000
379 2 652.458000 -2551.930000 628.654000 1 1.000000 1 -3.000000
380 2 644.765000 -2546.160000 631.195000 1 1.000000 1 -3.000000
381 2 639.016000 -2538.120000 630.583000 1 1.000000 1 -3.000000
382 2 636.109000 -2528.690000 630.156000 1 1.000000 1 -3.000000
383 2 634.993000 -2519.120000 627.819000 1 1.000000 1 -3.000000
384 2 634.895000 -2509.130000 627.341000 1 1.000000 1 -3.000000
385 2 634.313000 -2499.310000 625.958000 1 1.000000 1 -3.000000
386 2 632.095000 -2489.780000 626.002000 1 1.000000 1 -3.000000
387 2 631.026000 -2479.940000 626.926000 1 1.000000 1 -3.000000
388 2 630.180000 -2470.290000 628.261000 1 1.000000 1 -3.000000
389 2 629.548000 -2460.200000 627.963000 1 1.000000 1 -3.000000
390 2 628.935000 -2450.720000 624.950000 1 1.000000 1 -3.000000
391 2 627.234000 -2441.530000 621.875000 1 1.000000 1 -3.000000
392 2 625.484000 -2432.510000 618.305000 1 1.000000 1 -3.000000
393 2 623.460000 -2422.790000 618.442000 1 1.000000 1 -3.000000
394 2 626.078000 -2413.200000 618.634000 1 1.000000 1 -3.000000
395 2 625.186000 -2403.690000 615.695000 1 1.000000 1 -3.000000
396 2 623.506000 -2394.280000 612.901000 1 1.000000 1 -3.000000
397 2 619.072000 -2386.040000 609.992000 1 1.000000 1 -3.000000
398 2 616.808000 -2376.440000 609.184000 1 1.000000 1 -3.000000
399 2 612.265000 -2367.560000 608.130000 1 1.000000 16 -3.000000
400 1 637.579000 -2331.360000 591.491000 1 1.000000 16 0.000000
401 3 661.178000 -2350.200000 609.292000 1 1.000000 16 0.000000
402 2 677.349000 -2306.320000 586.712000 1 1.000000 16 -3.000000
403 2 684.789000 -2309.000000 592.775000 1 1.000000 1 -3.000000
404 2 692.800000 -2310.980000 598.071000 1 1.000000 1 -3.000000
405 2 701.128000 -2311.710000 603.313000 1 1.000000 1 -3.000000
406 2 709.321000 -2314.660000 608.106000 1 1.000000 1 -3.000000
407 2 719.163000 -2315.260000 609.162000 1 1.000000 1 -3.000000
408 2 728.173000 -2311.890000 611.432000 1 1.000000 1 -3.000000
409 2 737.459000 -2308.730000 613.015000 1 1.000000 1 -3.000000
410 2 746.409000 -2305.750000 615.957000 1 1.000000 1 -3.000000
411 2 755.334000 -2301.500000 616.718000 1 1.000000 1 -3.000000
412 2 763.731000 -2296.340000 617.392000 1 1.000000 1 -3.000000
413 2 770.745000 -2289.310000 616.634000 1 1.000000 1 -3.000000
414 2 779.233000 -2284.340000 616.349000 1 1.000000 1 -3.000000
415 2 787.086000 -2279.780000 612.389000 1 1.000000 1 -3.000000
416 2 796.661000 -2280.010000 609.719000 1 1.000000 1 -3.000000
417 2 804.098000 -2286.250000 607.963000 1 1.000000 1 -3.000000
418 2 811.224000 -2290.260000 602.505000 1 1.000000 1 -3.000000
419 2 817.182000 -2295.430000 596.490000 1 1.000000 1 -3.000000
420 2 824.244000 -2299.490000 590.896000 1 1.000000 1 -3.000000
421 2 829.787000 -2304.370000 584.375000 1 1.000000 1 -3.000000
422 2 835.273000 -2308.630000 577.309000 1 1.000000 1 -3.000000
423 2 843.174000 -2311.050000 571.793000 1 1.000000 1 -3.000000
424 2 850.590000 -2313.590000 565.735000 1 1.000000 1 -3.000000
425 2 858.838000 -2315.400000 560.537000 1 1.000000 1 -3.000000
426 2 867.024000 -2312.230000 555.882000 1 1.000000 17 -3.000000
427 1 845.713000 -2318.040000 514.059000 1 1.000000 17 0.000000
428 3 819.624000 -2322.040000 537.004000 1 1.000000 17 0.000000
429 2 807.936000 -2323.430000 486.451000 1 1.000000 17 -3.000000
430 2 804.284000 -2329.810000 493.119000 1 1.000000 1 -3.000000
431 2 795.894000 -2330.890000 498.039000 1 1.000000 1 -3.000000
432 2 789.954000 -2330.330000 505.869000 1 1.000000 1 -3.000000
433 2 783.454000 -2331.030000 513.225000 1 1.000000 1 -3.000000
434 2 777.588000 -2327.970000 520.799000 1 1.000000 1 -3.000000
435 2 771.021000 -2322.030000 525.279000 1 1.000000 1 -3.000000
436 2 762.134000 -2319.130000 528.675000 1 1.000000 1 -3.000000
437 2 753.223000 -2316.740000 531.891000 1 1.000000 1 -3.000000
438 2 743.509000 -2315.700000 533.341000 1 1.000000 1 -3.000000
439 2 733.735000 -2314.320000 533.644000 1 1.000000 1 -3.000000
440 2 725.729000 -2308.680000 532.130000 1 1.000000 1 -3.000000
441 2 718.682000 -2302.100000 529.755000 1 1.000000 1 -3.000000
442 2 710.087000 -2297.670000 528.999000 1 1.000000 1 -3.000000
443 2 700.968000 -2293.920000 530.372000 1 1.000000 1 -3.000000
444 2 692.094000 -2290.540000 533.258000 1 1.000000 1 -3.000000
445 2 685.784000 -2284.070000 537.404000 1 1.000000 1 -3.000000
446 2 681.154000 -2276.520000 541.798000 1 1.000000 1 -3.000000
447 2 676.906000 -2268.790000 546.624000 1 1.000000 1 -3.000000
448 2 671.956000 -2261.700000 551.385000 1 1.000000 1 -3.000000
449 2 664.446000 -2256.620000 555.145000 1 1.000000 1 -3.000000
450 2 657.714000 -2250.970000 559.790000 1 1.000000 1 -3.000000
451 2 650.074000 -2245.740000 563.398000 1 1.000000 1 -3.000000
452 2 641.437000 -2242.120000 566.638000 1 1.000000 1 -3.000000
453 2 632.870000 -2239.500000 570.836000 1 1.000000 18 -3.000000
454 1 603.859000 -2260.090000 539.742000 1 1.000000 18 0.000000
455 3 634.711000 -2275.490000 533.497000 1 1.000000 18 0.000000
456 2 593.397000 -2292.080000 506.656000 1 1.000000 18 -3.000000
457 2 600.772000 -2298.160000 508.605000 1 1.000000 1 -3.000000
458 2 608.347000 -2303.240000 512.100000 1 1.000000 1 -3.000000
459 2 615.000000 -2310.150000 514.672000 1 1.000000 1 -3.000000
460 2 623.399000 -2315.120000 513.070000 1 1.000000 1 -3.000000
461 2 632.772000 -2316.710000 510.487000 1 1.000000 1 -3.000000
462 2 642.510000 -2318.850000 510.907000 1 1.000000 1 -3.000000
463 2 650.020000 -2324.480000 513.771000 1 1.000000 1 -3.000000
464 2 656.747000 -2329.510000 519.007000 1 1.000000 1 -3.000000
465 2 663.805000 -2335.860000 522.022000 1 1.000000 1 -3.000000