LAMMPS data file

4067 atoms
4067 ellipsoids
4516 bonds
8882 angles
0 dihedrals

3 atom types
5 bond types
12 angle types
0 dihedral types

-4631.092947 4670.465898 xlo xhi
-4631.092947 4670.465898 ylo yhi
-4631.092947 4670.465898 zlo zhi

Masses

1 196016.000000
2 1950.000000
3 19500.000000

Atoms

1 2 842.005000 -3145.020000 105.878000 1 1.000000 1 -3.000000
2 2 833.590000 -3145.660000 100.653000 1 1.000000 1 -3.000000
3 2 823.933000 -3146.360000 98.667600 1 1.000000 1 -3.000000
4 2 814.219000 -3145.680000 96.661300 1 1.000000 1 -3.000000
5 2 804.388000 -3146.390000 97.905900 1 1.000000 1 -3.000000
6 2 794.926000 -3146.510000 100.951000 1 1.000000 1 -3.000000
7 2 787.410000 -3147.240000 107.342000 1 1.000000 1 -3.000000
8 2 782.658000 -3151.040000 115.255000 1 1.000000 1 -3.000000
9 2 775.740000 -3153.080000 121.983000 1 1.000000 1 -3.000000
10 2 770.690000 -3154.230000 130.438000 1 1.000000 1 -3.000000
11 2 766.652000 -3155.640000 139.453000 1 1.000000 1 -3.000000
12 2 763.686000 -3161.130000 147.184000 1 1.000000 1 -3.000000
13 2 762.137000 -3169.330000 152.370000 1 1.000000 1 -3.000000
14 2 757.277000 -3176.000000 157.368000 1 1.000000 1 -3.000000
15 2 751.261000 -3182.430000 161.775000 1 1.000000 1 -3.000000
16 2 745.363000 -3188.610000 166.700000 1 1.000000 1 -3.000000
17 2 739.662000 -3196.280000 169.381000 1 1.000000 1 -3.000000
18 2 732.289000 -3202.570000 171.659000 1 1.000000 1 -3.000000
19 2 723.123000 -3205.710000 173.238000 1 1.000000 1 -3.000000
20 2 714.634000 -3210.220000 175.296000 1 1.000000 1 -3.000000
21 2 706.655000 -3215.070000 178.474000 1 1.000000 2 -3.000000
22 1 733.508000 -3248.300000 198.531000 1 1.000000 2 0.000000
23 3 746.617000 -3218.360000 211.298000 1 1.000000 2 0.000000
24 2 766.603000 -3263.120000 228.779000 1 1.000000 2 -3.000000
25 2 768.429000 -3253.730000 231.525000 1 1.000000 1 -3.000000
26 2 769.785000 -3246.450000 238.278000 1 1.000000 1 -3.000000
27 2 771.037000 -3238.120000 243.744000 1 1.000000 1 -3.000000
28 2 767.630000 -3229.700000 247.752000 1 1.000000 1 -3.000000
29 2 763.194000 -3220.920000 247.814000 1 1.000000 1 -3.000000
30 2 763.056000 -3211.240000 246.174000 1 1.000000 1 -3.000000
31 2 763.574000 -3201.500000 247.187000 1 1.000000 1 -3.000000
32 2 761.837000 -3191.600000 247.058000 1 1.000000 1 -3.000000
33 2 761.651000 -3181.820000 245.800000 1 1.000000 1 -3.000000
34 2 761.959000 -3172.640000 242.264000 1 1.000000 1 -3.000000
35 2 763.143000 -3163.000000 240.804000 1 1.000000 1 -3.000000
36 2 765.018000 -3153.940000 244.359000 1 1.000000 1 -3.000000
37 2 764.566000 -3146.430000 250.818000 1 1.000000 1 -3.000000
38 2 759.846000 -3139.360000 255.774000 1 1.000000 1 -3.000000
39 2 754.867000 -3132.590000 261.287000 1 1.000000 1 -3.000000
40 2 748.046000 -3125.430000 261.143000 1 1.000000 1 -3.000000
41 2 742.372000 -3117.410000 260.045000 1 1.000000 1 -3.000000
42 2 734.904000 -3111.140000 258.918000 1 1.000000 1 -3.000000
43 2 728.003000 -3105.090000 254.923000 1 1.000000 1 -3.000000
44 2 720.969000 -3100.070000 250.085000 1 1.000000 1 -3.000000
45 2 716.074000 -3096.240000 242.282000 1 1.000000 1 -3.000000
46 2 714.467000 -3091.110000 233.910000 1 1.000000 1 -3.000000
47 2 713.141000 -3084.030000 227.216000 1 1.000000 1 -3.000000
48 2 711.347000 -3077.910000 219.679000 1 1.000000 3 -3.000000
49 1 669.173000 -3071.440000 240.040000 1 1.000000 3 0.000000
50 3 691.435000 -3071.210000 267.074000 1 1.000000 3 0.000000
51 2 641.369000 -3061.100000 276.732000 1 1.000000 3 -3.000000
52 2 649.435000 -3057.500000 281.226000 1 1.000000 1 -3.000000
53 2 654.404000 -3051.440000 287.402000 1 1.000000 1 -3.000000
54 2 661.442000 -3046.650000 292.545000 1 1.000000 1 -3.000000
55 2 670.209000 -3043.580000 295.689000 1 1.000000 1 -3.000000
56 2 680.003000 -3043.490000 297.244000 1 1.000000 1 -3.000000
57 2 689.537000 -3042.570000 299.395000 1 1.000000 1 -3.000000
58 2 698.609000 -3045.710000 301.405000 1 1.000000 1 -3.000000
59 2 706.903000 -3050.840000 303.256000 1 1.000000 1 -3.000000
60 2 716.208000 -3053.830000 304.902000 1 1.000000 1 -3.000000
61 2 724.768000 -3058.600000 305.311000 1 1.000000 1 -3.000000
62 2 733.392000 -3061.290000 309.417000 1 1.000000 1 -3.000000
63 2 742.582000 -3064.560000 310.925000 1 1.000000 1 -3.000000
64 2 751.445000 -3068.550000 312.676000 1 1.000000 1 -3.000000
65 2 759.997000 -3073.070000 314.648000 1 1.000000 1 -3.000000
66 2 768.632000 -3077.860000 314.855000 1 1.000000 1 -3.000000
67 2 776.583000 -3083.360000 313.273000 1 1.000000 1 -3.000000
68 2 785.415000 -3085.610000 309.448000 1 1.000000 1 -3.000000
69 2 792.871000 -3088.020000 303.409000 1 1.000000 1 -3.000000
70 2 799.327000 -3089.030000 295.894000 1 1.000000 1 -3.000000
71 2 805.042000 -3087.610000 287.894000 1 1.000000 1 -3.000000
72 2 813.681000 -3088.250000 283.105000 1 1.000000 1 -3.000000
73 2 820.154000 -3085.560000 276.198000 1 1.000000 1 -3.000000
74 2 828.646000 -3085.600000 271.026000 1 1.000000 1 -3.000000
75 2 833.770000 -3081.490000 263.584000 1 1.000000 4 -3.000000
76 1 860.253000 -3071.210000 301.237000 1 1.000000 4 0.000000
77 3 827.767000 -3072.010000 314.266000 1 1.000000 4 0.000000
78 2 866.977000 -3063.180000 347.206000 1 1.000000 4 -3.000000
79 2 857.615000 -3065.530000 349.365000 1 1.000000 1 -3.000000
80 2 847.996000 -3066.720000 351.702000 1 1.000000 1 -3.000000
81 2 838.916000 -3069.100000 354.292000 1 1.000000 1 -3.000000
82 2 830.342000 -3072.120000 358.219000 1 1.000000 1 -3.000000
83 2 821.576000 -3076.420000 356.453000 1 1.000000 1 -3.000000
84 2 812.448000 -3080.420000 355.137000 1 1.000000 1 -3.000000
85 2 803.319000 -3083.990000 353.277000 1 1.000000 1 -3.000000
86 2 794.401000 -3088.130000 353.774000 1 1.000000 1 -3.000000
87 2 785.123000 -3091.110000 355.416000 1 1.000000 1 -3.000000
88 2 776.281000 -3095.240000 356.020000 1 1.000000 1 -3.000000
89 2 767.558000 -3099.840000 357.621000 1 1.000000 1 -3.000000
90 2 759.725000 -3100.970000 363.596000 1 1.000000 1 -3.000000
91 2 751.070000 -3102.250000 368.110000 1 1.000000 1 -3.000000
92 2 742.956000 -3105.140000 372.748000 1 1.000000 1 -3.000000
93 2 736.265000 -3108.620000 379.409000 1 1.000000 1 -3.000000
94 2 727.854000 -3111.880000 383.489000 1 1.000000 1 -3.000000
95 2 718.948000 -3116.170000 384.883000 1 1.000000 1 -3.000000
96 2 710.180000 -3120.790000 385.837000 1 1.000000 1 -3.000000
97 2 701.386000 -3125.510000 386.797000 1 1.000000 1 -3.000000
98 2 693.579000 -3131.290000 385.497000 1 1.000000 1 -3.000000
99 2 687.771000 -3138.370000 381.942000 1 1.000000 1 -3.000000
100 2 680.410000 -3144.210000 378.668000 1 1.000000 1 -3.000000
101 2 672.376000 -3148.520000 374.985000 1 1.000000 1 -3.000000
102 2 664.295000 -3146.290000 369.743000 1 1.000000 5 -3.000000
103 1 624.641000 -3158.360000 392.365000 1 1.000000 5 0.000000
104 3 645.083000 -3146.050000 417.963000 1 1.000000 5 0.000000
105 2 598.706000 -3165.160000 431.208000 1 1.000000 5 -3.000000
106 2 604.594000 -3159.850000 437.089000 1 1.000000 1 -3.000000
107 2 609.249000 -3153.900000 443.374000 1 1.000000 1 -3.000000
108 2 612.342000 -3147.400000 450.176000 1 1.000000 1 -3.000000
109 2 617.580000 -3139.590000 453.210000 1 1.000000 1 -3.000000
110 2 624.943000 -3132.870000 454.186000 1 1.000000 1 -3.000000
111 2 631.399000 -3125.300000 454.746000 1 1.000000 1 -3.000000
112 2 636.214000 -3116.820000 454.639000 1 1.000000 1 -3.000000
113 2 641.776000 -3110.250000 459.338000 1 1.000000 1 -3.000000
114 2 647.919000 -3104.840000 464.706000 1 1.000000 1 -3.000000
115 2 653.869000 -3098.750000 469.752000 1 1.000000 1 -3.000000
116 2 658.411000 -3095.100000 477.804000 1 1.000000 1 -3.000000
117 2 664.906000 -3093.120000 484.926000 1 1.000000 1 -3.000000
118 2 669.042000 -3088.370000 492.550000 1 1.000000 1 -3.000000
119 2 671.344000 -3084.600000 501.323000 1 1.000000 1 -3.000000
120 2 673.351000 -3082.140000 510.715000 1 1.000000 1 -3.000000
121 2 678.434000 -3082.840000 519.159000 1 1.000000 1 -3.000000
122 2 682.881000 -3082.570000 527.915000 1 1.000000 1 -3.000000
123 2 691.373000 -3080.490000 532.697000 1 1.000000 1 -3.000000
124 2 699.852000 -3078.480000 537.344000 1 1.000000 1 -3.000000
125 2 705.617000 -3074.920000 544.658000 1 1.000000 1 -3.000000
126 2 708.249000 -3069.720000 552.673000 1 1.000000 1 -3.000000
127 2 709.482000 -3064.240000 560.850000 1 1.000000 1 -3.000000
128 2 715.464000 -3061.090000 568.007000 1 1.000000 1 -3.000000
129 2 718.300000 -3059.230000 577.210000 1 1.000000 6 -3.000000
130 1 678.280000 -3039.150000 592.013000 1 1.000000 6 0.000000
131 3 670.261000 -3050.830000 559.969000 1 1.000000 6 0.000000
132 2 632.783000 -3027.180000 587.245000 1 1.000000 6 -3.000000
133 2 632.203000 -3034.410000 580.419000 1 1.000000 1 -3.000000
134 2 629.460000 -3040.940000 573.521000 1 1.000000 1 -3.000000
135 2 625.513000 -3044.280000 565.133000 1 1.000000 1 -3.000000
136 2 625.779000 -3048.300000 556.080000 1 1.000000 1 -3.000000
137 2 625.998000 -3050.910000 546.544000 1 1.000000 1 -3.000000
138 2 631.039000 -3053.070000 538.412000 1 1.000000 1 -3.000000
139 2 637.046000 -3052.130000 530.483000 1 1.000000 1 -3.000000
140 2 644.138000 -3051.140000 523.603000 1 1.000000 1 -3.000000
141 2 651.963000 -3049.790000 517.792000 1 1.000000 1 -3.000000
142 2 658.169000 -3045.590000 511.511000 1 1.000000 1 -3.000000
143 2 663.135000 -3042.360000 503.481000 1 1.000000 1 -3.000000
144 2 670.194000 -3037.750000 498.096000 1 1.000000 1 -3.000000
145 2 675.984000 -3032.500000 492.061000 1 1.000000 1 -3.000000
146 2 682.045000 -3024.840000 490.684000 1 1.000000 1 -3.000000
147 2 688.107000 -3018.180000 486.777000 1 1.000000 1 -3.000000
148 2 695.460000 -3012.500000 483.422000 1 1.000000 1 -3.000000
149 2 702.061000 -3005.050000 482.622000 1 1.000000 1 -3.000000
150 2 705.825000 -2996.200000 480.267000 1 1.000000 1 -3.000000
151 2 710.122000 -2987.250000 480.707000 1 1.000000 1 -3.000000
152 2 716.136000 -2979.290000 480.917000 1 1.000000 1 -3.000000
153 2 722.081000 -2971.510000 482.786000 1 1.000000 1 -3.000000
154 2 727.264000 -2963.540000 485.237000 1 1.000000 1 -3.000000
155 2 732.165000 -2955.910000 489.566000 1 1.000000 1 -3.000000
156 2 737.634000 -2948.760000 493.763000 1 1.000000 7 -3.000000
157 1 734.281000 -2926.840000 452.096000 1 1.000000 7 0.000000
158 3 707.679000 -2949.560000 451.535000 1 1.000000 7 0.000000
159 2 712.988000 -2916.990000 411.222000 1 1.000000 7 -3.000000
160 2 703.925000 -2919.310000 413.955000 1 1.000000 1 -3.000000
161 2 694.972000 -2921.290000 417.928000 1 1.000000 1 -3.000000
162 2 685.728000 -2921.580000 421.494000 1 1.000000 1 -3.000000
163 2 676.352000 -2922.880000 424.339000 1 1.000000 1 -3.000000
164 2 667.357000 -2925.170000 427.726000 1 1.000000 1 -3.000000
165 2 662.258000 -2928.920000 435.292000 1 1.000000 1 -3.000000
166 2 653.880000 -2927.390000 440.362000 1 1.000000 1 -3.000000
167 2 646.306000 -2929.090000 446.420000 1 1.000000 1 -3.000000
168 2 636.563000 -2928.770000 448.372000 1 1.000000 1 -3.000000
169 2 627.360000 -2926.740000 451.430000 1 1.000000 1 -3.000000
170 2 617.556000 -2925.590000 452.679000 1 1.000000 1 -3.000000
171 2 608.066000 -2923.020000 451.680000 1 1.000000 1 -3.000000
172 2 599.004000 -2921.420000 448.240000 1 1.000000 1 -3.000000
173 2 589.910000 -2919.990000 444.487000 1 1.000000 1 -3.000000
174 2 581.336000 -2918.700000 439.436000 1 1.000000 1 -3.000000
175 2 573.684000 -2915.700000 434.025000 1 1.000000 1 -3.000000
176 2 566.723000 -2912.320000 427.925000 1 1.000000 1 -3.000000
177 2 559.731000 -2905.760000 425.349000 1 1.000000 1 -3.000000
178 2 555.116000 -2900.540000 418.318000 1 1.000000 1 -3.000000
179 2 550.168000 -2893.980000 412.892000 1 1.000000 1 -3.000000
180 2 545.357000 -2887.290000 407.181000 1 1.000000 1 -3.000000
181 2 539.358000 -2882.920000 400.603000 1 1.000000 1 -3.000000
182 2 535.305000 -2879.050000 392.395000 1 1.000000 1 -3.000000
183 2 535.997000 -2872.400000 385.172000 1 1.000000 8 -3.000000
184 1 494.414000 -2880.620000 364.307000 1 1.000000 8 0.000000
185 3 491.879000 -2897.870000 394.669000 1 1.000000 8 0.000000
186 2 451.239000 -2899.530000 362.296000 1 1.000000 8 -3.000000
187 2 450.766000 -2897.960000 372.093000 1 1.000000 1 -3.000000
188 2 454.470000 -2895.590000 380.948000 1 1.000000 1 -3.000000
189 2 455.889000 -2891.820000 389.987000 1 1.000000 1 -3.000000
190 2 456.619000 -2892.710000 399.874000 1 1.000000 1 -3.000000
191 2 455.256000 -2895.700000 409.083000 1 1.000000 1 -3.000000
192 2 453.921000 -2897.190000 418.734000 1 1.000000 1 -3.000000
193 2 451.912000 -2899.720000 428.035000 1 1.000000 1 -3.000000
194 2 451.330000 -2904.390000 436.675000 1 1.000000 1 -3.000000
195 2 451.644000 -2909.060000 445.354000 1 1.000000 1 -3.000000
196 2 452.085000 -2910.670000 455.082000 1 1.000000 1 -3.000000
197 2 450.346000 -2909.750000 464.844000 1 1.000000 1 -3.000000
198 2 446.740000 -2906.180000 473.337000 1 1.000000 1 -3.000000
199 2 442.834000 -2905.370000 482.454000 1 1.000000 1 -3.000000
200 2 440.005000 -2904.370000 491.863000 1 1.000000 1 -3.000000
201 2 437.860000 -2905.710000 501.487000 1 1.000000 1 -3.000000
202 2 436.089000 -2906.220000 511.269000 1 1.000000 1 -3.000000
203 2 433.283000 -2908.460000 520.401000 1 1.000000 1 -3.000000
204 2 429.948000 -2908.400000 529.771000 1 1.000000 1 -3.000000
205 2 429.702000 -2907.190000 539.698000 1 1.000000 1 -3.000000
206 2 431.132000 -2905.440000 549.378000 1 1.000000 1 -3.000000
207 2 431.762000 -2900.660000 558.079000 1 1.000000 1 -3.000000
208 2 431.756000 -2896.180000 566.856000 1 1.000000 1 -3.000000
209 2 433.770000 -2890.920000 575.001000 1 1.000000 1 -3.000000
210 2 434.554000 -2885.320000 583.221000 1 1.000000 9 -3.000000
211 1 470.002000 -2857.850000 568.681000 1 1.000000 9 0.000000
212 3 461.210000 -2875.370000 539.652000 1 1.000000 9 0.000000
213 2 498.449000 -2839.400000 535.900000 1 1.000000 9 -3.000000
214 2 492.519000 -2841.100000 528.059000 1 1.000000 1 -3.000000
215 2 485.522000 -2840.960000 520.983000 1 1.000000 1 -3.000000
216 2 479.102000 -2842.830000 513.589000 1 1.000000 1 -3.000000
217 2 470.634000 -2843.810000 508.646000 1 1.000000 1 -3.000000
218 2 462.111000 -2843.280000 503.728000 1 1.000000 1 -3.000000
219 2 453.363000 -2838.560000 503.489000 1 1.000000 1 -3.000000
220 2 444.544000 -2834.740000 501.160000 1 1.000000 1 -3.000000
221 2 437.340000 -2829.110000 497.449000 1 1.000000 1 -3.000000
222 2 432.455000 -2821.260000 493.993000 1 1.000000 1 -3.000000
223 2 429.168000 -2812.860000 489.823000 1 1.000000 1 -3.000000
224 2 422.859000 -2807.760000 484.174000 1 1.000000 1 -3.000000
225 2 415.592000 -2807.670000 477.427000 1 1.000000 1 -3.000000
226 2 408.274000 -2810.310000 471.304000 1 1.000000 1 -3.000000
227 2 401.178000 -2807.640000 464.879000 1 1.000000 1 -3.000000
228 2 395.774000 -2808.720000 456.594000 1 1.000000 1 -3.000000
229 2 392.206000 -2808.820000 447.390000 1 1.000000 1 -3.000000
230 2 390.838000 -2808.150000 437.518000 1 1.000000 1 -3.000000
231 2 392.342000 -2810.370000 428.039000 1 1.000000 1 -3.000000
232 2 395.255000 -2811.470000 418.657000 1 1.000000 1 -3.000000
233 2 398.806000 -2815.320000 410.281000 1 1.000000 1 -3.000000
234 2 404.659000 -2818.690000 402.858000 1 1.000000 1 -3.000000
235 2 411.707000 -2821.380000 396.370000 1 1.000000 1 -3.000000
236 2 415.731000 -2828.410000 390.671000 1 1.000000 1 -3.000000
237 2 420.121000 -2835.540000 385.405000 1 1.000000 10 -3.000000
238 1 381.914000 -2830.630000 358.224000 1 1.000000 10 0.000000
239 3 371.363000 -2818.140000 389.176000 1 1.000000 10 0.000000
240 2 336.571000 -2820.040000 350.759000 1 1.000000 10 -3.000000
241 2 336.157000 -2812.300000 357.011000 1 1.000000 1 -3.000000
242 2 336.998000 -2806.310000 364.849000 1 1.000000 1 -3.000000
243 2 337.270000 -2800.970000 373.272000 1 1.000000 1 -3.000000
244 2 335.823000 -2794.690000 380.689000 1 1.000000 1 -3.000000
245 2 333.121000 -2787.950000 387.311000 1 1.000000 1 -3.000000
246 2 330.605000 -2781.050000 393.943000 1 1.000000 1 -3.000000
247 2 330.651000 -2776.830000 402.772000 1 1.000000 1 -3.000000
248 2 329.962000 -2773.410000 412.004000 1 1.000000 1 -3.000000
249 2 329.997000 -2770.350000 421.283000 1 1.000000 1 -3.000000
250 2 333.137000 -2766.740000 430.008000 1 1.000000 1 -3.000000
251 2 338.766000 -2763.670000 437.484000 1 1.000000 1 -3.000000
252 2 344.132000 -2758.730000 444.326000 1 1.000000 1 -3.000000
253 2 351.438000 -2753.550000 448.621000 1 1.000000 1 -3.000000
254 2 358.450000 -2747.440000 451.944000 1 1.000000 1 -3.000000
255 2 364.616000 -2741.320000 456.585000 1 1.000000 1 -3.000000
256 2 369.691000 -2732.950000 457.864000 1 1.000000 1 -3.000000
257 2 373.757000 -2725.240000 462.803000 1 1.000000 1 -3.000000
258 2 378.405000 -2716.570000 462.509000 1 1.000000 1 -3.000000
259 2 385.053000 -2709.170000 463.392000 1 1.000000 1 -3.000000
260 2 389.641000 -2700.760000 465.340000 1 1.000000 1 -3.000000
261 2 392.076000 -2691.740000 468.617000 1 1.000000 1 -3.000000
262 2 393.955000 -2683.460000 473.708000 1 1.000000 1 -3.000000
263 2 390.819000 -2675.490000 478.621000 1 1.000000 1 -3.000000
264 2 389.060000 -2666.650000 482.927000 1 1.000000 11 -3.000000
265 1 432.812000 -2652.800000 493.898000 1 1.000000 11 0.000000
266 3 437.607000 -2684.970000 480.882000 1 1.000000 11 0.000000
267 2 479.369000 -2659.360000 498.475000 1 1.000000 11 -3.000000
268 2 480.881000 -2665.590000 490.910000 1 1.000000 1 -3.000000
269 2 480.943000 -2670.040000 482.039000 1 1.000000 1 -3.000000
270 2 479.845000 -2673.700000 472.976000 1 1.000000 1 -3.000000
271 2 478.050000 -2673.460000 463.143000 1 1.000000 1 -3.000000
272 2 475.718000 -2672.800000 453.459000 1 1.000000 1 -3.000000
273 2 473.442000 -2672.440000 443.765000 1 1.000000 1 -3.000000
274 2 473.195000 -2673.800000 433.846000 1 1.000000 1 -3.000000
275 2 474.529000 -2675.700000 424.152000 1 1.000000 1 -3.000000
276 2 478.716000 -2677.010000 415.187000 1 1.000000 1 -3.000000
277 2 478.695000 -2679.300000 405.526000 1 1.000000 1 -3.000000
278 2 478.647000 -2684.120000 396.922000 1 1.000000 1 -3.000000
279 2 477.983000 -2686.680000 387.326000 1 1.000000 1 -3.000000
280 2 480.642000 -2689.160000 378.159000 1 1.000000 1 -3.000000
281 2 481.694000 -2694.270000 369.897000 1 1.000000 1 -3.000000
282 2 480.551000 -2699.860000 361.764000 1 1.000000 1 -3.000000
283 2 477.555000 -2703.030000 352.893000 1 1.000000 1 -3.000000
284 2 475.388000 -2707.000000 344.097000 1 1.000000 1 -3.000000
285 2 473.167000 -2710.330000 335.116000 1 1.000000 1 -3.000000
286 2 473.049000 -2715.850000 326.819000 1 1.000000 1 -3.000000
287 2 469.990000 -2719.750000 318.173000 1 1.000000 1 -3.000000
288 2 466.983000 -2722.110000 308.998000 1 1.000000 1 -3.000000
289 2 466.040000 -2724.160000 299.253000 1 1.000000 1 -3.000000
290 2 462.588000 -2723.540000 289.961000 1 1.000000 1 -3.000000
291 2 460.766000 -2726.760000 280.860000 1 1.000000 12 -3.000000
292 1 504.305000 -2736.640000 265.641000 1 1.000000 12 0.000000
293 3 508.957000 -2730.200000 299.699000 1 1.000000 12 0.000000
294 2 550.582000 -2743.630000 271.749000 1 1.000000 12 -3.000000
295 2 551.342000 -2740.680000 281.178000 1 1.000000 1 -3.000000
296 2 553.737000 -2737.700000 290.386000 1 1.000000 1 -3.000000
297 2 552.907000 -2735.270000 300.013000 1 1.000000 1 -3.000000
298 2 552.602000 -2731.910000 309.285000 1 1.000000 1 -3.000000
299 2 550.268000 -2726.000000 316.839000 1 1.000000 1 -3.000000
300 2 548.757000 -2719.250000 323.855000 1 1.000000 1 -3.000000
301 2 547.344000 -2711.370000 329.887000 1 1.000000 1 -3.000000
302 2 545.234000 -2702.550000 333.719000 1 1.000000 1 -3.000000
303 2 543.629000 -2692.870000 334.940000 1 1.000000 1 -3.000000
304 2 544.164000 -2683.390000 337.514000 1 1.000000 1 -3.000000
305 2 544.693000 -2673.650000 335.369000 1 1.000000 1 -3.000000
306 2 544.308000 -2663.940000 334.392000 1 1.000000 1 -3.000000
307 2 543.396000 -2654.020000 334.505000 1 1.000000 1 -3.000000
308 2 542.502000 -2644.130000 334.335000 1 1.000000 1 -3.000000
309 2 540.067000 -2634.660000 334.762000 1 1.000000 1 -3.000000
310 2 538.782000 -2625.010000 336.316000 1 1.000000 1 -3.000000
311 2 537.947000 -2615.170000 336.055000 1 1.000000 1 -3.000000
312 2 534.056000 -2606.120000 336.752000 1 1.000000 1 -3.000000
313 2 530.152000 -2597.410000 334.120000 1 1.000000 1 -3.000000
314 2 527.528000 -2588.710000 330.073000 1 1.000000 1 -3.000000
315 2 522.732000 -2582.400000 324.315000 1 1.000000 1 -3.000000
316 2 514.007000 -2581.270000 319.565000 1 1.000000 1 -3.000000
317 2 507.041000 -2580.940000 312.671000 1 1.000000 1 -3.000000
318 2 500.525000 -2584.330000 305.853000 1 1.000000 13 -3.000000
319 1 498.778000 -2537.360000 301.464000 1 1.000000 13 0.000000
320 3 527.749000 -2542.620000 320.220000 1 1.000000 13 0.000000
321 2 513.803000 -2493.510000 310.376000 1 1.000000 13 -3.000000
322 2 522.823000 -2494.250000 314.654000 1 1.000000 1 -3.000000
323 2 531.370000 -2497.260000 318.487000 1 1.000000 1 -3.000000
324 2 540.639000 -2498.000000 322.046000 1 1.000000 1 -3.000000
325 2 549.406000 -2502.720000 322.785000 1 1.000000 1 -3.000000
326 2 556.953000 -2508.540000 325.631000 1 1.000000 1 -3.000000
327 2 565.341000 -2513.650000 325.305000 1 1.000000 1 -3.000000
328 2 573.910000 -2518.660000 326.219000 1 1.000000 1 -3.000000
329 2 581.487000 -2524.920000 327.381000 1 1.000000 1 -3.000000
330 2 590.276000 -2527.100000 331.480000 1 1.000000 1 -3.000000
331 2 598.114000 -2529.940000 337.021000 1 1.000000 1 -3.000000
332 2 606.142000 -2531.040000 342.823000 1 1.000000 1 -3.000000
333 2 615.276000 -2529.850000 346.495000 1 1.000000 1 -3.000000
334 2 623.826000 -2526.670000 349.746000 1 1.000000 1 -3.000000
335 2 631.998000 -2524.550000 355.022000 1 1.000000 1 -3.000000
336 2 639.752000 -2522.850000 360.772000 1 1.000000 1 -3.000000
337 2 647.767000 -2519.130000 365.411000 1 1.000000 1 -3.000000
338 2 656.521000 -2516.610000 369.271000 1 1.000000 1 -3.000000
339 2 665.473000 -2514.220000 372.497000 1 1.000000 1 -3.000000
340 2 675.093000 -2512.540000 373.922000 1 1.000000 1 -3.000000
341 2 682.512000 -2505.980000 373.370000 1 1.000000 1 -3.000000
342 2 688.776000 -2501.310000 367.348000 1 1.000000 1 -3.000000
343 2 691.440000 -2493.790000 361.659000 1 1.000000 1 -3.000000
344 2 693.839000 -2488.260000 353.557000 1 1.000000 1 -3.000000
345 2 699.760000 -2481.620000 349.254000 1 1.000000 14 -3.000000
346 1 666.896000 -2447.990000 346.227000 1 1.000000 14 0.000000
347 3 652.423000 -2471.090000 368.060000 1 1.000000 14 0.000000
348 2 627.249000 -2426.360000 360.260000 1 1.000000 14 -3.000000
349 2 625.007000 -2430.710000 368.831000 1 1.000000 1 -3.000000
350 2 622.392000 -2435.230000 377.161000 1 1.000000 1 -3.000000
351 2 621.807000 -2440.830000 385.405000 1 1.000000 1 -3.000000
352 2 618.940000 -2445.520000 393.647000 1 1.000000 1 -3.000000
353 2 613.048000 -2450.740000 399.596000 1 1.000000 1 -3.000000
354 2 608.696000 -2457.690000 405.156000 1 1.000000 1 -3.000000
355 2 604.477000 -2463.740000 411.713000 1 1.000000 1 -3.000000
356 2 601.484000 -2468.870000 419.664000 1 1.000000 1 -3.000000
357 2 600.238000 -2474.880000 427.489000 1 1.000000 1 -3.000000
358 2 600.655000 -2478.860000 436.392000 1 1.000000 1 -3.000000
359 2 602.870000 -2483.060000 445.194000 1 1.000000 1 -3.000000
360 2 603.843000 -2489.220000 452.862000 1 1.000000 1 -3.000000
361 2 602.333000 -2494.760000 460.729000 1 1.000000 1 -3.000000
362 2 602.336000 -2499.700000 469.260000 1 1.000000 1 -3.000000
363 2 604.305000 -2504.590000 477.578000 1 1.000000 1 -3.000000
364 2 605.693000 -2509.040000 486.431000 1 1.000000 1 -3.000000
365 2 606.101000 -2512.480000 495.585000 1 1.000000 1 -3.000000
366 2 607.662000 -2513.010000 505.404000 1 1.000000 1 -3.000000
367 2 607.820000 -2518.300000 513.854000 1 1.000000 1 -3.000000
368 2 610.608000 -2525.660000 520.057000 1 1.000000 1 -3.000000
369 2 611.456000 -2531.990000 527.488000 1 1.000000 1 -3.000000
370 2 617.283000 -2538.130000 532.725000 1 1.000000 1 -3.000000
371 2 626.069000 -2542.230000 534.919000 1 1.000000 1 -3.000000
372 2 632.872000 -2549.220000 536.479000 1 1.000000 15 -3.000000
373 1 619.077000 -2562.570000 579.631000 1 1.000000 15 0.000000
374 3 592.607000 -2542.580000 568.490000 1 1.000000 15 0.000000
375 2 589.300000 -2562.880000 616.157000 1 1.000000 15 -3.000000
376 2 588.017000 -2555.330000 609.866000 1 1.000000 1 -3.000000
377 2 583.758000 -2547.630000 605.340000 1 1.000000 1 -3.000000
378 2 579.187000 -2539.830000 601.178000 1 1.000000 1 -3.000000
379 2 575.663000 -2530.640000 599.558000 1 1.000000 1 -3.000000
380 2 571.817000 -2521.680000 600.897000 1 1.000000 1 -3.000000
381 2 568.348000 -2512.470000 599.946000 1 1.000000 1 -3.000000
382 2 565.850000 -2503.000000 597.987000 1 1.000000 1 -3.000000
383 2 562.510000 -2493.920000 595.501000 1 1.000000 1 -3.000000
384 2 555.962000 -2487.290000 592.097000 1 1.000000 1 -3.000000
385 2 551.583000 -2479.530000 587.811000 1 1.000000 1 -3.000000
386 2 547.734000 -2471.670000 583.376000 1 1.000000 1 -3.000000
387 2 548.242000 -2463.210000 578.328000 1 1.000000 1 -3.000000
388 2 551.255000 -2454.850000 573.782000 1 1.000000 1 -3.000000
389 2 552.526000 -2446.640000 568.333000 1 1.000000 1 -3.000000
390 2 553.669000 -2439.060000 561.869000 1 1.000000 1 -3.000000
391 2 557.148000 -2433.200000 554.651000 1 1.000000 1 -3.000000
392 2 561.030000 -2427.760000 547.343000 1 1.000000 1 -3.000000
393 2 568.494000 -2424.800000 541.609000 1 1.000000 1 -3.000000
394 2 576.137000 -2422.690000 535.670000 1 1.000000 1 -3.000000
395 2 583.734000 -2421.380000 529.564000 1 1.000000 1 -3.000000
396 2 592.774000 -2418.170000 527.195000 1 1.000000 1 -3.000000
397 2 602.651000 -2418.680000 527.837000 1 1.000000 1 -3.000000
398 2 612.330000 -2420.810000 528.004000 1 1.000000 1 -3.000000
399 2 622.081000 -2419.870000 530.059000 1 1.000000 16 -3.000000
400 1 627.551000 -2395.630000 570.205000 1 1.000000 16 0.000000
401 3 593.417000 -2403.790000 570.436000 1 1.000000 16 0.000000
402 2 612.778000 -2379.200000 611.883000 1 1.000000 16 -3.000000
403 2 603.157000 -2379.880000 610.034000 1 1.000000 1 -3.000000
404 2 593.622000 -2378.550000 607.240000 1 1.000000 1 -3.000000
405 2 584.318000 -2374.930000 607.548000 1 1.000000 1 -3.000000
406 2 575.187000 -2370.960000 607.172000 1 1.000000 1 -3.000000
407 2 565.628000 -2369.360000 605.342000 1 1.000000 1 -3.000000
408 2 556.253000 -2367.010000 603.138000 1 1.000000 1 -3.000000
409 2 547.842000 -2362.890000 599.729000 1 1.000000 1 -3.000000
410 2 538.825000 -2363.340000 595.788000 1 1.000000 1 -3.000000
411 2 529.229000 -2363.460000 593.249000 1 1.000000 1 -3.000000
412 2 520.857000 -2365.940000 588.596000 1 1.000000 1 -3.000000
413 2 513.952000 -2369.210000 582.432000 1 1.000000 1 -3.000000
414 2 505.533000 -2371.480000 577.733000 1 1.000000 1 -3.000000
415 2 496.553000 -2374.430000 574.657000 1 1.000000 1 -3.000000
416 2 487.663000 -2376.140000 570.674000 1 1.000000 1 -3.000000
417 2 479.244000 -2379.680000 566.630000 1 1.000000 1 -3.000000
418 2 469.678000 -2381.090000 564.848000 1 1.000000 1 -3.000000
419 2 460.773000 -2383.540000 561.383000 1 1.000000 1 -3.000000
420 2 451.100000 -2383.260000 559.146000 1 1.000000 1 -3.000000
421 2 441.834000 -2379.760000 557.700000 1 1.000000 1 -3.000000
422 2 432.774000 -2377.820000 554.174000 1 1.000000 1 -3.000000
423 2 423.239000 -2378.770000 551.329000 1 1.000000 1 -3.000000
424 2 413.455000 -2378.140000 549.680000 1 1.000000 1 -3.000000
425 2 403.768000 -2376.140000 550.267000 1 1.000000 1 -3.000000
426 2 394.194000 -2373.580000 549.271000 1 1.000000 17 -3.000000
427 1 395.208000 -2410.770000 520.278000 1 1.000000 17 0.000000
428 3 426.685000 -2396.100000 515.727000 1 1.000000 17 0.000000
429 2 415.650000 -2438.800000 488.276000 1 1.000000 17 -3.000000
430 2 423.222000 -2434.790000 483.254000 1 1.000000 1 -3.000000
431 2 426.796000 -2428.010000 477.124000 1 1.000000 1 -3.000000
432 2 428.443000 -2419.810000 471.787000 1 1.000000 1 -3.000000
433 2 431.498000 -2413.410000 464.931000 1 1.000000 1 -3.000000
434 2 429.727000 -2406.580000 458.015000 1 1.000000 1 -3.000000
435 2 430.897000 -2400.470000 450.374000 1 1.000000 1 -3.000000
436 2 429.263000 -2392.920000 444.353000 1 1.000000 1 -3.000000
437 2 425.926000 -2386.540000 437.601000 1 1.000000 1 -3.000000
438 2 424.448000 -2379.050000 431.379000 1 1.000000 1 -3.000000
439 2 421.732000 -2371.030000 426.199000 1 1.000000 1 -3.000000
440 2 421.317000 -2362.210000 421.625000 1 1.000000 1 -3.000000
441 2 422.397000 -2352.710000 418.779000 1 1.000000 1 -3.000000
442 2 421.952000 -2343.030000 416.978000 1 1.000000 1 -3.000000
443 2 422.294000 -2333.120000 416.046000 1 1.000000 1 -3.000000
444 2 420.741000 -2323.460000 417.705000 1 1.000000 1 -3.000000
445 2 417.942000 -2315.310000 422.571000 1 1.000000 1 -3.000000
446 2 417.924000 -2308.020000 429.103000 1 1.000000 1 -3.000000
447 2 418.956000 -2300.410000 435.361000 1 1.000000 1 -3.000000
448 2 414.762000 -2295.250000 442.745000 1 1.000000 1 -3.000000
449 2 411.973000 -2290.420000 450.900000 1 1.000000 1 -3.000000
450 2 410.728000 -2288.900000 460.610000 1 1.000000 1 -3.000000
451 2 413.917000 -2286.590000 469.646000 1 1.000000 1 -3.000000
452 2 415.373000 -2282.500000 478.602000 1 1.000000 1 -3.000000
453 2 417.882000 -2279.410000 487.752000 1 1.000000 18 -3.000000
454 1 463.381000 -2291.260000 492.529000 1 1.000000 18 0.000000
455 3 457.376000 -2295.580000 458.350000 1 1.000000 18 0.000000
456 2 504.603000 -2307.820000 476.322000 1 1.000000 18 -3.000000
457 2 501.137000 -2304.840000 467.501000 1 1.000000 1 -3.000000
458 2 500.251000 -2304.180000 457.534000 1 1.000000 1 -3.000000
459 2 498.205000 -2304.000000 447.940000 1 1.000000 1 -3.000000
460 2 494.829000 -2304.860000 438.669000 1 1.000000 1 -3.000000
461 2 490.474000 -2305.170000 429.858000 1 1.000000 1 -3.000000
462 2 489.487000 -2304.190000 419.954000 1 1.000000 1 -3.000000
463 2 490.535000 -2302.270000 410.305000 1 1.000000 1 -3.000000
464 2 495.301000 -2298.410000 402.485000 1 1.000000 1 -3.000000
465 2 499.971000 -2292.750000 395.922000 1 1.000000 1 -3.000000