LAMMPS data file

4067 atoms
4067 ellipsoids
4516 bonds
8882 angles
0 dihedrals

3 atom types
5 bond types
12 angle types
0 dihedral types

-4631.092947 4670.465898 xlo xhi
-4631.092947 4670.465898 ylo yhi
-4631.092947 4670.465898 zlo zhi

Masses

1 196016.000000
2 1950.000000
3 19500.000000

Atoms

1 2 839.470000 -2723.790000 317.287000 1 1.000000 1 -3.000000
2 2 831.953000 -2728.580000 321.492000 1 1.000000 1 -3.000000
3 2 823.579000 -2733.220000 324.227000 1 1.000000 1 -3.000000
4 2 815.260000 -2736.850000 328.349000 1 1.000000 1 -3.000000
5 2 806.579000 -2739.280000 332.722000 1 1.000000 1 -3.000000
6 2 798.698000 -2741.010000 338.468000 1 1.000000 1 -3.000000
7 2 793.642000 -2740.960000 347.036000 1 1.000000 1 -3.000000
8 2 791.770000 -2740.860000 356.720000 1 1.000000 1 -3.000000
9 2 789.996000 -2740.720000 366.528000 1 1.000000 1 -3.000000
10 2 786.982000 -2742.000000 375.812000 1 1.000000 1 -3.000000
11 2 787.772000 -2745.400000 385.166000 1 1.000000 1 -3.000000
12 2 787.600000 -2747.060000 394.965000 1 1.000000 1 -3.000000
13 2 787.166000 -2750.890000 403.916000 1 1.000000 1 -3.000000
14 2 786.739000 -2752.740000 413.620000 1 1.000000 1 -3.000000
15 2 782.892000 -2752.550000 422.734000 1 1.000000 1 -3.000000
16 2 778.278000 -2748.800000 430.692000 1 1.000000 1 -3.000000
17 2 773.440000 -2743.090000 437.072000 1 1.000000 1 -3.000000
18 2 766.762000 -2740.630000 443.819000 1 1.000000 1 -3.000000
19 2 763.672000 -2735.300000 451.606000 1 1.000000 1 -3.000000
20 2 758.032000 -2732.070000 459.021000 1 1.000000 1 -3.000000
21 2 753.711000 -2727.710000 466.869000 1 1.000000 2 -3.000000
22 1 748.093000 -2773.210000 478.174000 1 1.000000 2 0.000000
23 3 750.843000 -2773.840000 443.266000 1 1.000000 2 0.000000
24 2 743.813000 -2819.020000 467.959000 1 1.000000 2 -3.000000
25 2 746.792000 -2816.200000 458.984000 1 1.000000 1 -3.000000
26 2 748.071000 -2813.530000 449.477000 1 1.000000 1 -3.000000
27 2 749.349000 -2814.960000 439.812000 1 1.000000 1 -3.000000
28 2 751.169000 -2817.520000 430.460000 1 1.000000 1 -3.000000
29 2 749.942000 -2822.720000 422.203000 1 1.000000 1 -3.000000
30 2 747.670000 -2826.770000 413.452000 1 1.000000 1 -3.000000
31 2 745.626000 -2827.590000 403.822000 1 1.000000 1 -3.000000
32 2 742.942000 -2830.170000 394.535000 1 1.000000 1 -3.000000
33 2 741.165000 -2832.880000 385.134000 1 1.000000 1 -3.000000
34 2 739.961000 -2835.070000 375.598000 1 1.000000 1 -3.000000
35 2 738.785000 -2840.390000 367.417000 1 1.000000 1 -3.000000
36 2 738.327000 -2845.870000 359.151000 1 1.000000 1 -3.000000
37 2 740.497000 -2851.430000 351.275000 1 1.000000 1 -3.000000
38 2 742.517000 -2858.700000 344.811000 1 1.000000 1 -3.000000
39 2 746.092000 -2865.480000 338.463000 1 1.000000 1 -3.000000
40 2 747.677000 -2873.550000 332.952000 1 1.000000 1 -3.000000
41 2 750.152000 -2881.070000 327.028000 1 1.000000 1 -3.000000
42 2 752.005000 -2886.090000 318.768000 1 1.000000 1 -3.000000
43 2 753.120000 -2887.360000 309.121000 1 1.000000 1 -3.000000
44 2 752.782000 -2885.950000 299.321000 1 1.000000 1 -3.000000
45 2 752.382000 -2884.820000 289.597000 1 1.000000 1 -3.000000
46 2 753.360000 -2883.520000 279.871000 1 1.000000 1 -3.000000
47 2 751.128000 -2883.210000 270.197000 1 1.000000 1 -3.000000
48 2 748.745000 -2885.420000 260.727000 1 1.000000 3 -3.000000
49 1 732.195000 -2929.110000 267.589000 1 1.000000 3 0.000000
50 3 713.818000 -2909.940000 290.365000 1 1.000000 3 0.000000
51 2 702.163000 -2960.290000 286.426000 1 1.000000 3 -3.000000
52 2 698.702000 -2954.650000 293.749000 1 1.000000 1 -3.000000
53 2 697.309000 -2949.300000 302.010000 1 1.000000 1 -3.000000
54 2 694.545000 -2942.410000 308.426000 1 1.000000 1 -3.000000
55 2 690.270000 -2935.540000 314.200000 1 1.000000 1 -3.000000
56 2 686.913000 -2928.200000 319.770000 1 1.000000 1 -3.000000
57 2 685.109000 -2919.400000 324.245000 1 1.000000 1 -3.000000
58 2 683.963000 -2910.300000 327.790000 1 1.000000 1 -3.000000
59 2 680.432000 -2903.200000 333.606000 1 1.000000 1 -3.000000
60 2 674.973000 -2894.910000 335.162000 1 1.000000 1 -3.000000
61 2 668.950000 -2887.130000 335.360000 1 1.000000 1 -3.000000
62 2 661.340000 -2880.800000 335.860000 1 1.000000 1 -3.000000
63 2 653.552000 -2874.640000 336.119000 1 1.000000 1 -3.000000
64 2 645.708000 -2868.500000 336.024000 1 1.000000 1 -3.000000
65 2 639.910000 -2861.040000 333.393000 1 1.000000 1 -3.000000
66 2 634.276000 -2852.900000 333.499000 1 1.000000 1 -3.000000
67 2 627.664000 -2845.670000 332.497000 1 1.000000 1 -3.000000
68 2 622.000000 -2837.740000 334.153000 1 1.000000 1 -3.000000
69 2 616.591000 -2829.600000 336.292000 1 1.000000 1 -3.000000
70 2 608.447000 -2823.990000 336.398000 1 1.000000 1 -3.000000
71 2 599.924000 -2819.380000 334.688000 1 1.000000 1 -3.000000
72 2 591.585000 -2815.480000 330.939000 1 1.000000 1 -3.000000
73 2 584.614000 -2811.300000 325.254000 1 1.000000 1 -3.000000
74 2 579.499000 -2806.630000 318.149000 1 1.000000 1 -3.000000
75 2 574.848000 -2799.500000 313.000000 1 1.000000 4 -3.000000
76 1 548.097000 -2796.640000 351.730000 1 1.000000 4 0.000000
77 3 579.537000 -2805.080000 364.443000 1 1.000000 4 0.000000
78 2 540.353000 -2800.860000 398.019000 1 1.000000 4 -3.000000
79 2 545.239000 -2809.540000 398.102000 1 1.000000 1 -3.000000
80 2 551.751000 -2816.960000 399.277000 1 1.000000 1 -3.000000
81 2 557.819000 -2824.790000 399.575000 1 1.000000 1 -3.000000
82 2 563.585000 -2832.750000 400.612000 1 1.000000 1 -3.000000
83 2 565.586000 -2842.530000 401.731000 1 1.000000 1 -3.000000
84 2 564.588000 -2851.610000 405.447000 1 1.000000 1 -3.000000
85 2 558.930000 -2859.160000 408.378000 1 1.000000 1 -3.000000
86 2 558.706000 -2868.290000 412.531000 1 1.000000 1 -3.000000
87 2 557.751000 -2875.880000 418.574000 1 1.000000 1 -3.000000
88 2 557.636000 -2882.430000 426.003000 1 1.000000 1 -3.000000
89 2 559.825000 -2890.870000 430.782000 1 1.000000 1 -3.000000
90 2 558.874000 -2897.320000 438.091000 1 1.000000 1 -3.000000
91 2 557.626000 -2903.890000 445.467000 1 1.000000 1 -3.000000
92 2 553.200000 -2909.630000 452.297000 1 1.000000 1 -3.000000
93 2 545.672000 -2915.780000 453.712000 1 1.000000 1 -3.000000
94 2 537.178000 -2920.860000 454.430000 1 1.000000 1 -3.000000
95 2 527.514000 -2920.320000 453.035000 1 1.000000 1 -3.000000
96 2 518.249000 -2918.660000 449.950000 1 1.000000 1 -3.000000
97 2 510.464000 -2918.090000 443.669000 1 1.000000 1 -3.000000
98 2 501.739000 -2915.360000 439.960000 1 1.000000 1 -3.000000
99 2 496.207000 -2912.130000 432.345000 1 1.000000 1 -3.000000
100 2 490.799000 -2909.420000 424.476000 1 1.000000 1 -3.000000
101 2 486.499000 -2905.940000 416.331000 1 1.000000 1 -3.000000
102 2 480.918000 -2901.770000 409.117000 1 1.000000 5 -3.000000
103 1 460.389000 -2870.850000 438.401000 1 1.000000 5 0.000000
104 3 464.243000 -2899.420000 458.276000 1 1.000000 5 0.000000
105 2 443.429000 -2857.250000 480.216000 1 1.000000 5 -3.000000
106 2 443.673000 -2866.740000 482.600000 1 1.000000 1 -3.000000
107 2 443.929000 -2875.840000 486.237000 1 1.000000 1 -3.000000
108 2 443.818000 -2885.650000 488.135000 1 1.000000 1 -3.000000
109 2 442.474000 -2894.620000 491.919000 1 1.000000 1 -3.000000
110 2 444.762000 -2901.490000 498.589000 1 1.000000 1 -3.000000
111 2 445.511000 -2909.710000 504.159000 1 1.000000 1 -3.000000
112 2 444.782000 -2918.150000 509.444000 1 1.000000 1 -3.000000
113 2 443.464000 -2926.370000 514.913000 1 1.000000 1 -3.000000
114 2 442.264000 -2935.140000 519.260000 1 1.000000 1 -3.000000
115 2 439.668000 -2944.020000 522.828000 1 1.000000 1 -3.000000
116 2 436.222000 -2952.730000 525.948000 1 1.000000 1 -3.000000
117 2 435.413000 -2962.010000 529.439000 1 1.000000 1 -3.000000
118 2 436.700000 -2970.290000 534.850000 1 1.000000 1 -3.000000
119 2 439.355000 -2978.960000 538.607000 1 1.000000 1 -3.000000
120 2 443.617000 -2987.330000 541.898000 1 1.000000 1 -3.000000
121 2 446.506000 -2994.560000 547.860000 1 1.000000 1 -3.000000
122 2 450.240000 -3002.880000 551.869000 1 1.000000 1 -3.000000
123 2 454.070000 -3009.840000 557.808000 1 1.000000 1 -3.000000
124 2 458.269000 -3017.550000 562.298000 1 1.000000 1 -3.000000
125 2 456.661000 -3025.940000 567.453000 1 1.000000 1 -3.000000
126 2 458.825000 -3032.680000 574.381000 1 1.000000 1 -3.000000
127 2 460.698000 -3040.210000 580.494000 1 1.000000 1 -3.000000
128 2 462.983000 -3047.960000 586.189000 1 1.000000 1 -3.000000
129 2 466.781000 -3054.670000 592.407000 1 1.000000 6 -3.000000
130 1 498.425000 -3066.870000 559.647000 1 1.000000 6 0.000000
131 3 501.249000 -3031.930000 560.896000 1 1.000000 6 0.000000
132 2 530.195000 -3057.480000 526.118000 1 1.000000 6 -3.000000
133 2 534.003000 -3048.400000 527.213000 1 1.000000 1 -3.000000
134 2 536.941000 -3039.250000 529.492000 1 1.000000 1 -3.000000
135 2 538.824000 -3032.050000 535.998000 1 1.000000 1 -3.000000
136 2 539.280000 -3024.600000 542.536000 1 1.000000 1 -3.000000
137 2 538.679000 -3019.820000 551.343000 1 1.000000 1 -3.000000
138 2 540.892000 -3016.750000 560.485000 1 1.000000 1 -3.000000
139 2 540.090000 -3013.710000 569.856000 1 1.000000 1 -3.000000
140 2 541.112000 -3008.210000 578.002000 1 1.000000 1 -3.000000
141 2 542.327000 -3003.770000 586.590000 1 1.000000 1 -3.000000
142 2 544.353000 -3001.460000 596.001000 1 1.000000 1 -3.000000
143 2 548.694000 -2994.700000 601.892000 1 1.000000 1 -3.000000
144 2 554.278000 -2987.070000 604.646000 1 1.000000 1 -3.000000
145 2 559.714000 -2979.140000 607.205000 1 1.000000 1 -3.000000
146 2 564.968000 -2972.430000 612.478000 1 1.000000 1 -3.000000
147 2 570.939000 -2966.450000 617.475000 1 1.000000 1 -3.000000
148 2 577.967000 -2961.580000 622.672000 1 1.000000 1 -3.000000
149 2 584.483000 -2955.420000 626.560000 1 1.000000 1 -3.000000
150 2 589.796000 -2948.680000 631.783000 1 1.000000 1 -3.000000
151 2 596.595000 -2946.930000 638.645000 1 1.000000 1 -3.000000
152 2 605.055000 -2944.130000 642.839000 1 1.000000 1 -3.000000
153 2 613.042000 -2938.810000 644.418000 1 1.000000 1 -3.000000
154 2 620.283000 -2932.580000 647.143000 1 1.000000 1 -3.000000
155 2 624.507000 -2927.460000 654.524000 1 1.000000 1 -3.000000
156 2 628.343000 -2920.780000 660.776000 1 1.000000 7 -3.000000
157 1 661.676000 -2896.670000 637.552000 1 1.000000 7 0.000000
158 3 661.959000 -2927.780000 621.865000 1 1.000000 7 0.000000
159 2 690.146000 -2889.640000 600.473000 1 1.000000 7 -3.000000
160 2 686.940000 -2897.180000 594.932000 1 1.000000 1 -3.000000
161 2 683.290000 -2905.020000 590.201000 1 1.000000 1 -3.000000
162 2 681.672000 -2912.860000 584.399000 1 1.000000 1 -3.000000
163 2 683.621000 -2921.290000 579.658000 1 1.000000 1 -3.000000
164 2 687.946000 -2929.920000 577.371000 1 1.000000 1 -3.000000
165 2 689.166000 -2938.990000 573.791000 1 1.000000 1 -3.000000
166 2 691.499000 -2948.700000 573.615000 1 1.000000 1 -3.000000
167 2 694.667000 -2957.950000 575.688000 1 1.000000 1 -3.000000
168 2 700.297000 -2963.720000 581.320000 1 1.000000 1 -3.000000
169 2 708.055000 -2966.560000 586.931000 1 1.000000 1 -3.000000
170 2 715.301000 -2968.710000 593.316000 1 1.000000 1 -3.000000
171 2 722.934000 -2969.330000 599.592000 1 1.000000 1 -3.000000
172 2 726.601000 -2968.600000 608.749000 1 1.000000 1 -3.000000
173 2 727.507000 -2967.970000 618.616000 1 1.000000 1 -3.000000
174 2 731.272000 -2970.800000 627.295000 1 1.000000 1 -3.000000
175 2 736.211000 -2977.450000 632.979000 1 1.000000 1 -3.000000
176 2 738.734000 -2985.280000 638.486000 1 1.000000 1 -3.000000
177 2 740.234000 -2994.880000 641.012000 1 1.000000 1 -3.000000
178 2 741.635000 -3003.090000 646.294000 1 1.000000 1 -3.000000
179 2 743.135000 -3012.030000 650.287000 1 1.000000 1 -3.000000
180 2 746.535000 -3020.650000 653.692000 1 1.000000 1 -3.000000
181 2 746.328000 -3030.470000 652.852000 1 1.000000 1 -3.000000
182 2 749.723000 -3039.710000 653.585000 1 1.000000 1 -3.000000
183 2 753.467000 -3048.810000 653.590000 1 1.000000 8 -3.000000
184 1 800.310000 -3043.330000 654.630000 1 1.000000 8 0.000000
185 3 788.894000 -3013.860000 639.421000 1 1.000000 8 0.000000
186 2 840.364000 -3020.770000 643.895000 1 1.000000 8 -3.000000
187 2 835.676000 -3012.110000 644.816000 1 1.000000 1 -3.000000
188 2 834.564000 -3002.660000 641.722000 1 1.000000 1 -3.000000
189 2 831.747000 -2993.940000 637.881000 1 1.000000 1 -3.000000
190 2 832.958000 -2984.340000 636.156000 1 1.000000 1 -3.000000
191 2 834.233000 -2974.700000 634.285000 1 1.000000 1 -3.000000
192 2 836.122000 -2965.110000 632.465000 1 1.000000 1 -3.000000
193 2 839.730000 -2956.260000 629.835000 1 1.000000 1 -3.000000
194 2 840.536000 -2946.560000 627.657000 1 1.000000 1 -3.000000
195 2 839.688000 -2936.950000 625.946000 1 1.000000 1 -3.000000
196 2 832.972000 -2929.600000 624.893000 1 1.000000 1 -3.000000
197 2 826.040000 -2923.000000 622.565000 1 1.000000 1 -3.000000
198 2 822.641000 -2913.680000 622.594000 1 1.000000 1 -3.000000
199 2 820.304000 -2904.010000 623.351000 1 1.000000 1 -3.000000
200 2 815.458000 -2896.110000 626.718000 1 1.000000 1 -3.000000
201 2 812.111000 -2886.850000 627.877000 1 1.000000 1 -3.000000
202 2 809.910000 -2877.390000 626.493000 1 1.000000 1 -3.000000
203 2 807.915000 -2867.960000 624.424000 1 1.000000 1 -3.000000
204 2 806.906000 -2858.100000 624.556000 1 1.000000 1 -3.000000
205 2 804.868000 -2848.540000 625.831000 1 1.000000 1 -3.000000
206 2 802.361000 -2839.780000 629.563000 1 1.000000 1 -3.000000
207 2 800.800000 -2830.760000 633.413000 1 1.000000 1 -3.000000
208 2 799.837000 -2822.490000 638.827000 1 1.000000 1 -3.000000
209 2 796.939000 -2813.280000 640.696000 1 1.000000 1 -3.000000
210 2 793.501000 -2804.050000 640.929000 1 1.000000 9 -3.000000
211 1 771.767000 -2801.620000 599.100000 1 1.000000 9 0.000000
212 3 764.192000 -2833.970000 610.184000 1 1.000000 9 0.000000
213 2 742.651000 -2818.140000 565.764000 1 1.000000 9 -3.000000
214 2 737.215000 -2825.980000 568.219000 1 1.000000 1 -3.000000
215 2 734.414000 -2833.690000 573.930000 1 1.000000 1 -3.000000
216 2 729.462000 -2839.130000 580.602000 1 1.000000 1 -3.000000
217 2 726.027000 -2842.550000 589.375000 1 1.000000 1 -3.000000
218 2 721.566000 -2838.650000 597.210000 1 1.000000 1 -3.000000
219 2 713.775000 -2833.720000 600.773000 1 1.000000 1 -3.000000
220 2 706.393000 -2828.530000 604.818000 1 1.000000 1 -3.000000
221 2 700.180000 -2821.050000 602.858000 1 1.000000 1 -3.000000
222 2 698.469000 -2811.380000 601.740000 1 1.000000 1 -3.000000
223 2 697.980000 -2801.550000 602.513000 1 1.000000 1 -3.000000
224 2 697.830000 -2791.820000 605.105000 1 1.000000 1 -3.000000
225 2 697.939000 -2782.140000 607.474000 1 1.000000 1 -3.000000
226 2 699.713000 -2772.360000 607.745000 1 1.000000 1 -3.000000
227 2 704.494000 -2763.830000 608.608000 1 1.000000 1 -3.000000
228 2 709.184000 -2755.860000 604.787000 1 1.000000 1 -3.000000
229 2 710.593000 -2746.870000 600.945000 1 1.000000 1 -3.000000
230 2 711.630000 -2739.530000 594.365000 1 1.000000 1 -3.000000
231 2 710.077000 -2731.530000 588.775000 1 1.000000 1 -3.000000
232 2 706.493000 -2725.940000 581.510000 1 1.000000 1 -3.000000
233 2 703.742000 -2718.450000 575.592000 1 1.000000 1 -3.000000
234 2 699.130000 -2710.560000 571.604000 1 1.000000 1 -3.000000
235 2 692.422000 -2704.590000 567.190000 1 1.000000 1 -3.000000
236 2 688.563000 -2696.480000 562.871000 1 1.000000 1 -3.000000
237 2 683.882000 -2689.170000 558.014000 1 1.000000 10 -3.000000
238 1 680.270000 -2659.920000 594.728000 1 1.000000 10 0.000000
239 3 710.060000 -2676.980000 601.264000 1 1.000000 10 0.000000
240 2 693.438000 -2642.990000 636.715000 1 1.000000 10 -3.000000
241 2 700.234000 -2649.980000 638.133000 1 1.000000 1 -3.000000
242 2 706.255000 -2657.750000 639.917000 1 1.000000 1 -3.000000
243 2 714.375000 -2662.870000 637.368000 1 1.000000 1 -3.000000
244 2 723.341000 -2664.360000 633.465000 1 1.000000 1 -3.000000
245 2 728.364000 -2666.270000 625.189000 1 1.000000 1 -3.000000
246 2 735.070000 -2665.860000 618.037000 1 1.000000 1 -3.000000
247 2 739.561000 -2662.350000 609.897000 1 1.000000 1 -3.000000
248 2 744.391000 -2654.600000 606.266000 1 1.000000 1 -3.000000
249 2 747.470000 -2649.120000 598.605000 1 1.000000 1 -3.000000
250 2 748.993000 -2642.780000 591.266000 1 1.000000 1 -3.000000
251 2 752.858000 -2634.930000 586.536000 1 1.000000 1 -3.000000
252 2 755.192000 -2627.210000 581.055000 1 1.000000 1 -3.000000
253 2 756.272000 -2618.570000 576.403000 1 1.000000 1 -3.000000
254 2 757.672000 -2610.140000 571.565000 1 1.000000 1 -3.000000
255 2 763.475000 -2602.870000 567.991000 1 1.000000 1 -3.000000
256 2 770.834000 -2596.720000 565.450000 1 1.000000 1 -3.000000
257 2 778.008000 -2592.640000 560.017000 1 1.000000 1 -3.000000
258 2 786.223000 -2589.340000 555.554000 1 1.000000 1 -3.000000
259 2 794.753000 -2585.100000 553.064000 1 1.000000 1 -3.000000
260 2 804.627000 -2586.510000 553.124000 1 1.000000 1 -3.000000
261 2 813.706000 -2582.550000 552.966000 1 1.000000 1 -3.000000
262 2 822.483000 -2578.070000 552.640000 1 1.000000 1 -3.000000
263 2 831.687000 -2574.630000 551.716000 1 1.000000 1 -3.000000
264 2 841.284000 -2573.010000 550.090000 1 1.000000 11 -3.000000
265 1 860.847000 -2530.910000 558.107000 1 1.000000 11 0.000000
266 3 826.763000 -2523.460000 555.756000 1 1.000000 11 0.000000
267 2 859.845000 -2483.840000 561.003000 1 1.000000 11 -3.000000
268 2 849.998000 -2484.580000 561.995000 1 1.000000 1 -3.000000
269 2 840.833000 -2480.970000 561.229000 1 1.000000 1 -3.000000
270 2 830.879000 -2480.930000 561.697000 1 1.000000 1 -3.000000
271 2 821.048000 -2480.470000 562.790000 1 1.000000 1 -3.000000
272 2 811.758000 -2477.730000 564.605000 1 1.000000 1 -3.000000
273 2 803.359000 -2472.950000 566.536000 1 1.000000 1 -3.000000
274 2 795.379000 -2468.970000 570.583000 1 1.000000 1 -3.000000
275 2 788.478000 -2462.210000 572.619000 1 1.000000 1 -3.000000
276 2 780.962000 -2456.220000 574.605000 1 1.000000 1 -3.000000
277 2 773.925000 -2449.880000 577.651000 1 1.000000 1 -3.000000
278 2 766.725000 -2446.870000 583.810000 1 1.000000 1 -3.000000
279 2 759.013000 -2443.430000 588.762000 1 1.000000 1 -3.000000
280 2 752.737000 -2439.160000 595.186000 1 1.000000 1 -3.000000
281 2 748.445000 -2434.190000 602.476000 1 1.000000 1 -3.000000
282 2 744.462000 -2427.890000 609.051000 1 1.000000 1 -3.000000
283 2 740.082000 -2422.190000 615.776000 1 1.000000 1 -3.000000
284 2 735.176000 -2415.740000 621.462000 1 1.000000 1 -3.000000
285 2 732.256000 -2410.310000 629.404000 1 1.000000 1 -3.000000
286 2 727.172000 -2405.040000 636.106000 1 1.000000 1 -3.000000
287 2 725.497000 -2399.290000 644.058000 1 1.000000 1 -3.000000
288 2 725.412000 -2394.730000 652.859000 1 1.000000 1 -3.000000
289 2 721.258000 -2391.630000 661.365000 1 1.000000 1 -3.000000
290 2 719.696000 -2385.500000 669.067000 1 1.000000 1 -3.000000
291 2 716.342000 -2379.870000 676.469000 1 1.000000 12 -3.000000
292 1 728.899000 -2344.940000 647.294000 1 1.000000 12 0.000000
293 3 712.847000 -2367.830000 626.170000 1 1.000000 12 0.000000
294 2 735.440000 -2326.230000 604.453000 1 1.000000 12 -3.000000
295 2 730.757000 -2333.830000 599.977000 1 1.000000 1 -3.000000
296 2 727.327000 -2340.840000 593.866000 1 1.000000 1 -3.000000
297 2 721.148000 -2347.270000 589.399000 1 1.000000 1 -3.000000
298 2 716.943000 -2354.210000 583.724000 1 1.000000 1 -3.000000
299 2 713.895000 -2362.720000 579.425000 1 1.000000 1 -3.000000
300 2 711.375000 -2370.560000 573.971000 1 1.000000 1 -3.000000
301 2 707.353000 -2377.840000 568.424000 1 1.000000 1 -3.000000
302 2 702.198000 -2384.300000 563.111000 1 1.000000 1 -3.000000
303 2 695.401000 -2387.910000 556.848000 1 1.000000 1 -3.000000
304 2 688.019000 -2391.080000 550.824000 1 1.000000 1 -3.000000
305 2 679.410000 -2391.600000 545.884000 1 1.000000 1 -3.000000
306 2 671.204000 -2393.350000 540.745000 1 1.000000 1 -3.000000
307 2 662.160000 -2393.280000 536.821000 1 1.000000 1 -3.000000
308 2 652.641000 -2391.360000 534.761000 1 1.000000 1 -3.000000
309 2 643.308000 -2388.870000 532.239000 1 1.000000 1 -3.000000
310 2 634.677000 -2385.010000 529.367000 1 1.000000 1 -3.000000
311 2 627.076000 -2379.000000 526.635000 1 1.000000 1 -3.000000
312 2 619.157000 -2373.150000 526.350000 1 1.000000 1 -3.000000
313 2 610.132000 -2369.400000 528.068000 1 1.000000 1 -3.000000
314 2 603.756000 -2363.220000 532.397000 1 1.000000 1 -3.000000
315 2 596.335000 -2357.170000 535.128000 1 1.000000 1 -3.000000
316 2 586.871000 -2354.820000 536.612000 1 1.000000 1 -3.000000
317 2 577.382000 -2353.380000 538.816000 1 1.000000 1 -3.000000
318 2 567.729000 -2351.080000 538.815000 1 1.000000 13 -3.000000
319 1 556.188000 -2350.170000 493.040000 1 1.000000 13 0.000000
320 3 584.828000 -2370.180000 493.526000 1 1.000000 13 0.000000
321 2 563.186000 -2360.440000 447.518000 1 1.000000 13 -3.000000
322 2 569.850000 -2365.230000 453.168000 1 1.000000 1 -3.000000
323 2 576.711000 -2367.700000 459.811000 1 1.000000 1 -3.000000
324 2 585.889000 -2368.830000 463.286000 1 1.000000 1 -3.000000
325 2 594.543000 -2372.260000 466.644000 1 1.000000 1 -3.000000
326 2 602.748000 -2376.940000 469.321000 1 1.000000 1 -3.000000
327 2 610.554000 -2382.910000 468.363000 1 1.000000 1 -3.000000
328 2 615.634000 -2391.350000 468.102000 1 1.000000 1 -3.000000
329 2 620.406000 -2399.940000 468.376000 1 1.000000 1 -3.000000
330 2 624.653000 -2408.780000 467.513000 1 1.000000 1 -3.000000
331 2 629.548000 -2417.190000 466.861000 1 1.000000 1 -3.000000
332 2 636.022000 -2424.480000 465.603000 1 1.000000 1 -3.000000
333 2 640.810000 -2433.040000 465.825000 1 1.000000 1 -3.000000
334 2 647.756000 -2440.010000 465.683000 1 1.000000 1 -3.000000
335 2 656.080000 -2445.360000 465.198000 1 1.000000 1 -3.000000
336 2 665.882000 -2447.090000 465.740000 1 1.000000 1 -3.000000
337 2 673.160000 -2448.110000 472.409000 1 1.000000 1 -3.000000
338 2 681.277000 -2449.250000 477.925000 1 1.000000 1 -3.000000
339 2 688.656000 -2451.150000 484.305000 1 1.000000 1 -3.000000
340 2 696.967000 -2453.090000 489.404000 1 1.000000 1 -3.000000
341 2 705.038000 -2453.960000 495.052000 1 1.000000 1 -3.000000
342 2 712.852000 -2456.340000 500.681000 1 1.000000 1 -3.000000
343 2 722.090000 -2458.590000 503.120000 1 1.000000 1 -3.000000
344 2 730.224000 -2461.840000 507.612000 1 1.000000 1 -3.000000
345 2 739.700000 -2460.180000 509.450000 1 1.000000 14 -3.000000
346 1 725.307000 -2444.560000 551.611000 1 1.000000 14 0.000000
347 3 695.950000 -2444.470000 532.671000 1 1.000000 14 0.000000
348 2 692.470000 -2431.290000 582.814000 1 1.000000 14 -3.000000
349 2 685.177000 -2437.210000 579.690000 1 1.000000 1 -3.000000
350 2 679.596000 -2444.310000 575.460000 1 1.000000 1 -3.000000
351 2 672.014000 -2448.860000 571.405000 1 1.000000 1 -3.000000
352 2 666.187000 -2455.300000 566.871000 1 1.000000 1 -3.000000
353 2 658.245000 -2458.720000 561.978000 1 1.000000 1 -3.000000
354 2 651.696000 -2464.190000 557.063000 1 1.000000 1 -3.000000
355 2 643.864000 -2469.640000 554.248000 1 1.000000 1 -3.000000
356 2 635.012000 -2474.080000 554.620000 1 1.000000 1 -3.000000
357 2 625.825000 -2476.120000 551.710000 1 1.000000 1 -3.000000
358 2 616.963000 -2478.830000 548.384000 1 1.000000 1 -3.000000
359 2 609.013000 -2482.630000 543.860000 1 1.000000 1 -3.000000
360 2 602.213000 -2488.710000 540.264000 1 1.000000 1 -3.000000
361 2 594.288000 -2494.620000 539.398000 1 1.000000 1 -3.000000
362 2 587.998000 -2502.160000 538.158000 1 1.000000 1 -3.000000
363 2 582.554000 -2510.360000 536.853000 1 1.000000 1 -3.000000
364 2 579.599000 -2519.650000 535.552000 1 1.000000 1 -3.000000
365 2 575.892000 -2528.650000 534.131000 1 1.000000 1 -3.000000
366 2 572.176000 -2537.430000 531.304000 1 1.000000 1 -3.000000
367 2 569.596000 -2545.910000 527.206000 1 1.000000 1 -3.000000
368 2 567.023000 -2553.200000 520.849000 1 1.000000 1 -3.000000
369 2 564.735000 -2560.930000 515.192000 1 1.000000 1 -3.000000
370 2 566.081000 -2567.650000 508.037000 1 1.000000 1 -3.000000
371 2 565.259000 -2573.800000 500.269000 1 1.000000 1 -3.000000
372 2 564.322000 -2579.450000 492.089000 1 1.000000 15 -3.000000
373 1 567.598000 -2544.710000 460.428000 1 1.000000 15 0.000000
374 3 588.698000 -2533.880000 486.077000 1 1.000000 15 0.000000
375 2 584.409000 -2503.840000 444.097000 1 1.000000 15 -3.000000
376 2 593.547000 -2505.460000 447.778000 1 1.000000 1 -3.000000
377 2 602.127000 -2507.970000 452.127000 1 1.000000 1 -3.000000
378 2 610.968000 -2510.040000 456.113000 1 1.000000 1 -3.000000
379 2 616.300000 -2509.680000 464.436000 1 1.000000 1 -3.000000
380 2 623.103000 -2510.350000 471.654000 1 1.000000 1 -3.000000
381 2 627.323000 -2510.830000 480.613000 1 1.000000 1 -3.000000
382 2 630.411000 -2515.130000 488.968000 1 1.000000 1 -3.000000
383 2 630.755000 -2523.020000 494.724000 1 1.000000 1 -3.000000
384 2 629.764000 -2532.770000 496.393000 1 1.000000 1 -3.000000
385 2 630.340000 -2542.650000 495.658000 1 1.000000 1 -3.000000
386 2 627.117000 -2551.980000 495.575000 1 1.000000 1 -3.000000
387 2 625.674000 -2561.290000 498.639000 1 1.000000 1 -3.000000
388 2 625.071000 -2569.360000 504.347000 1 1.000000 1 -3.000000
389 2 624.379000 -2578.590000 507.983000 1 1.000000 1 -3.000000
390 2 621.336000 -2587.150000 511.673000 1 1.000000 1 -3.000000
391 2 615.591000 -2594.570000 515.043000 1 1.000000 1 -3.000000
392 2 614.544000 -2601.530000 521.943000 1 1.000000 1 -3.000000
393 2 612.181000 -2609.230000 527.808000 1 1.000000 1 -3.000000
394 2 610.908000 -2616.510000 534.324000 1 1.000000 1 -3.000000
395 2 608.753000 -2623.280000 541.215000 1 1.000000 1 -3.000000
396 2 606.131000 -2632.530000 543.364000 1 1.000000 1 -3.000000
397 2 603.956000 -2642.210000 543.405000 1 1.000000 1 -3.000000
398 2 602.429000 -2651.950000 544.361000 1 1.000000 1 -3.000000
399 2 599.110000 -2660.750000 547.118000 1 1.000000 16 -3.000000
400 1 572.765000 -2643.220000 582.145000 1 1.000000 16 0.000000
401 3 569.629000 -2619.150000 556.945000 1 1.000000 16 0.000000
402 2 541.116000 -2613.020000 599.968000 1 1.000000 16 -3.000000
403 2 541.533000 -2605.560000 593.396000 1 1.000000 1 -3.000000
404 2 543.204000 -2600.960000 584.878000 1 1.000000 1 -3.000000
405 2 547.151000 -2594.550000 578.555000 1 1.000000 1 -3.000000
406 2 546.844000 -2588.090000 570.989000 1 1.000000 1 -3.000000
407 2 544.732000 -2581.640000 563.714000 1 1.000000 1 -3.000000
408 2 543.403000 -2578.590000 554.430000 1 1.000000 1 -3.000000
409 2 538.638000 -2575.200000 546.367000 1 1.000000 1 -3.000000
410 2 530.540000 -2571.350000 542.365000 1 1.000000 1 -3.000000
411 2 521.227000 -2568.030000 542.360000 1 1.000000 1 -3.000000
412 2 511.997000 -2564.620000 543.273000 1 1.000000 1 -3.000000
413 2 502.290000 -2562.940000 544.554000 1 1.000000 1 -3.000000
414 2 492.901000 -2561.260000 546.943000 1 1.000000 1 -3.000000
415 2 483.488000 -2560.490000 549.790000 1 1.000000 1 -3.000000
416 2 473.747000 -2561.190000 551.626000 1 1.000000 1 -3.000000
417 2 464.273000 -2564.120000 552.460000 1 1.000000 1 -3.000000
418 2 456.880000 -2569.900000 555.744000 1 1.000000 1 -3.000000
419 2 448.276000 -2570.540000 560.563000 1 1.000000 1 -3.000000
420 2 441.333000 -2568.330000 567.376000 1 1.000000 1 -3.000000
421 2 432.534000 -2567.460000 572.022000 1 1.000000 1 -3.000000
422 2 423.153000 -2564.250000 571.846000 1 1.000000 1 -3.000000
423 2 415.083000 -2558.580000 571.696000 1 1.000000 1 -3.000000
424 2 405.819000 -2554.870000 572.281000 1 1.000000 1 -3.000000
425 2 396.752000 -2551.320000 574.171000 1 1.000000 1 -3.000000
426 2 387.383000 -2548.930000 576.062000 1 1.000000 17 -3.000000
427 1 403.402000 -2505.710000 586.362000 1 1.000000 17 0.000000
428 3 431.275000 -2521.600000 572.198000 1 1.000000 17 0.000000
429 2 436.880000 -2472.510000 588.414000 1 1.000000 17 -3.000000
430 2 441.813000 -2479.190000 582.936000 1 1.000000 1 -3.000000
431 2 446.198000 -2481.000000 574.267000 1 1.000000 1 -3.000000
432 2 451.025000 -2482.120000 565.625000 1 1.000000 1 -3.000000
433 2 458.272000 -2482.380000 558.803000 1 1.000000 1 -3.000000
434 2 463.833000 -2481.440000 550.598000 1 1.000000 1 -3.000000
435 2 469.296000 -2482.650000 542.570000 1 1.000000 1 -3.000000
436 2 473.673000 -2484.670000 533.830000 1 1.000000 1 -3.000000
437 2 478.920000 -2484.870000 525.523000 1 1.000000 1 -3.000000
438 2 485.025000 -2484.640000 517.601000 1 1.000000 1 -3.000000
439 2 493.006000 -2484.100000 511.745000 1 1.000000 1 -3.000000
440 2 498.986000 -2483.570000 503.856000 1 1.000000 1 -3.000000
441 2 502.063000 -2484.700000 494.558000 1 1.000000 1 -3.000000
442 2 503.440000 -2485.540000 484.750000 1 1.000000 1 -3.000000
443 2 504.856000 -2483.570000 475.213000 1 1.000000 1 -3.000000
444 2 509.047000 -2481.960000 466.358000 1 1.000000 1 -3.000000
445 2 514.891000 -2480.410000 458.483000 1 1.000000 1 -3.000000
446 2 523.546000 -2480.140000 453.643000 1 1.000000 1 -3.000000
447 2 532.406000 -2480.440000 449.391000 1 1.000000 1 -3.000000
448 2 541.501000 -2480.650000 445.371000 1 1.000000 1 -3.000000
449 2 551.091000 -2479.520000 443.137000 1 1.000000 1 -3.000000
450 2 560.922000 -2479.980000 443.155000 1 1.000000 1 -3.000000
451 2 569.674000 -2482.760000 446.877000 1 1.000000 1 -3.000000
452 2 579.501000 -2481.640000 447.955000 1 1.000000 1 -3.000000
453 2 589.283000 -2481.550000 448.641000 1 1.000000 18 -3.000000
454 1 588.283000 -2444.640000 477.907000 1 1.000000 18 0.000000
455 3 563.576000 -2436.670000 454.559000 1 1.000000 18 0.000000
456 2 570.738000 -2403.770000 493.764000 1 1.000000 18 -3.000000
457 2 561.914000 -2402.990000 489.399000 1 1.000000 1 -3.000000
458 2 552.463000 -2402.570000 486.479000 1 1.000000 1 -3.000000
459 2 542.728000 -2401.440000 485.001000 1 1.000000 1 -3.000000
460 2 532.928000 -2401.390000 484.191000 1 1.000000 1 -3.000000
461 2 523.491000 -2398.980000 482.663000 1 1.000000 1 -3.000000
462 2 515.914000 -2392.770000 481.629000 1 1.000000 1 -3.000000
463 2 510.410000 -2387.460000 475.449000 1 1.000000 1 -3.000000
464 2 504.936000 -2381.790000 469.563000 1 1.000000 1 -3.000000
465 2 497.552000 -2377.220000 465.079000 1 1.000000 1 -3.000000