LAMMPS data file

4067 atoms
4067 ellipsoids
4516 bonds
8882 angles
0 dihedrals

3 atom types
5 bond types
12 angle types
0 dihedral types

-4631.092947 4670.465898 xlo xhi
-4631.092947 4670.465898 ylo yhi
-4631.092947 4670.465898 zlo zhi

Masses

1 196016.000000
2 1950.000000
3 19500.000000

Atoms

1 2 549.244000 -2899.690000 788.233000 1 1.000000 1 -3.000000
2 2 545.954000 -2909.000000 787.652000 1 1.000000 1 -3.000000
3 2 544.976000 -2918.790000 786.488000 1 1.000000 1 -3.000000
4 2 541.146000 -2927.600000 783.927000 1 1.000000 1 -3.000000
5 2 537.072000 -2936.580000 783.567000 1 1.000000 1 -3.000000
6 2 532.211000 -2945.050000 784.686000 1 1.000000 1 -3.000000
7 2 526.741000 -2953.300000 783.388000 1 1.000000 1 -3.000000
8 2 522.713000 -2962.380000 782.683000 1 1.000000 1 -3.000000
9 2 519.437000 -2970.230000 787.600000 1 1.000000 1 -3.000000
10 2 513.517000 -2975.950000 793.108000 1 1.000000 1 -3.000000
11 2 507.220000 -2982.310000 797.487000 1 1.000000 1 -3.000000
12 2 502.298000 -2990.310000 800.882000 1 1.000000 1 -3.000000
13 2 497.368000 -2998.530000 803.333000 1 1.000000 1 -3.000000
14 2 490.073000 -3004.930000 805.823000 1 1.000000 1 -3.000000
15 2 484.097000 -3011.970000 809.054000 1 1.000000 1 -3.000000
16 2 475.006000 -3014.650000 811.855000 1 1.000000 1 -3.000000
17 2 467.883000 -3017.700000 817.837000 1 1.000000 1 -3.000000
18 2 461.791000 -3022.210000 823.832000 1 1.000000 1 -3.000000
19 2 455.960000 -3026.730000 830.462000 1 1.000000 1 -3.000000
20 2 449.760000 -3032.810000 835.165000 1 1.000000 1 -3.000000
21 2 444.736000 -3040.420000 839.080000 1 1.000000 2 -3.000000
22 1 437.411000 -3073.830000 806.608000 1 1.000000 2 0.000000
23 3 459.881000 -3052.230000 790.801000 1 1.000000 2 0.000000
24 2 441.346000 -3092.230000 763.395000 1 1.000000 2 -3.000000
25 2 449.710000 -3086.680000 764.194000 1 1.000000 1 -3.000000
26 2 457.307000 -3080.460000 764.981000 1 1.000000 1 -3.000000
27 2 465.390000 -3075.410000 761.966000 1 1.000000 1 -3.000000
28 2 473.811000 -3070.460000 761.417000 1 1.000000 1 -3.000000
29 2 482.728000 -3066.060000 761.510000 1 1.000000 1 -3.000000
30 2 490.501000 -3060.120000 759.608000 1 1.000000 1 -3.000000
31 2 495.579000 -3051.580000 758.854000 1 1.000000 1 -3.000000
32 2 499.113000 -3042.310000 757.622000 1 1.000000 1 -3.000000
33 2 501.620000 -3032.800000 756.380000 1 1.000000 1 -3.000000
34 2 507.119000 -3024.750000 754.868000 1 1.000000 1 -3.000000
35 2 510.087000 -3017.320000 748.984000 1 1.000000 1 -3.000000
36 2 514.658000 -3011.570000 742.266000 1 1.000000 1 -3.000000
37 2 520.500000 -3005.310000 737.275000 1 1.000000 1 -3.000000
38 2 526.558000 -2998.450000 733.576000 1 1.000000 1 -3.000000
39 2 529.460000 -2993.520000 725.358000 1 1.000000 1 -3.000000
40 2 533.139000 -2987.010000 718.819000 1 1.000000 1 -3.000000
41 2 532.608000 -2977.850000 715.280000 1 1.000000 1 -3.000000
42 2 531.416000 -2968.680000 711.881000 1 1.000000 1 -3.000000
43 2 529.996000 -2961.000000 705.728000 1 1.000000 1 -3.000000
44 2 528.686000 -2953.860000 699.122000 1 1.000000 1 -3.000000
45 2 529.376000 -2944.980000 694.921000 1 1.000000 1 -3.000000
46 2 529.123000 -2935.440000 692.014000 1 1.000000 1 -3.000000
47 2 525.222000 -2926.790000 689.194000 1 1.000000 1 -3.000000
48 2 523.963000 -2917.260000 686.993000 1 1.000000 3 -3.000000
49 1 516.355000 -2927.260000 641.516000 1 1.000000 3 0.000000
50 3 524.446000 -2958.360000 655.342000 1 1.000000 3 0.000000
51 2 517.245000 -2955.700000 603.826000 1 1.000000 3 -3.000000
52 2 516.129000 -2964.410000 608.394000 1 1.000000 1 -3.000000
53 2 514.585000 -2972.080000 614.466000 1 1.000000 1 -3.000000
54 2 512.818000 -2980.050000 620.220000 1 1.000000 1 -3.000000
55 2 512.728000 -2987.690000 626.614000 1 1.000000 1 -3.000000
56 2 513.841000 -2995.630000 632.193000 1 1.000000 1 -3.000000
57 2 516.313000 -3005.100000 633.558000 1 1.000000 1 -3.000000
58 2 517.900000 -3014.270000 636.943000 1 1.000000 1 -3.000000
59 2 518.544000 -3023.800000 639.869000 1 1.000000 1 -3.000000
60 2 520.505000 -3033.160000 642.243000 1 1.000000 1 -3.000000
61 2 521.646000 -3042.010000 646.438000 1 1.000000 1 -3.000000
62 2 523.906000 -3050.950000 649.901000 1 1.000000 1 -3.000000
63 2 527.317000 -3059.700000 652.456000 1 1.000000 1 -3.000000
64 2 529.818000 -3068.590000 656.150000 1 1.000000 1 -3.000000
65 2 527.616000 -3077.250000 660.106000 1 1.000000 1 -3.000000
66 2 525.183000 -3085.190000 665.448000 1 1.000000 1 -3.000000
67 2 521.348000 -3093.010000 670.332000 1 1.000000 1 -3.000000
68 2 517.664000 -3100.560000 675.726000 1 1.000000 1 -3.000000
69 2 515.586000 -3108.330000 681.323000 1 1.000000 1 -3.000000
70 2 509.070000 -3115.220000 684.143000 1 1.000000 1 -3.000000
71 2 501.729000 -3120.880000 687.558000 1 1.000000 1 -3.000000
72 2 493.805000 -3126.540000 689.490000 1 1.000000 1 -3.000000
73 2 484.329000 -3129.050000 688.227000 1 1.000000 1 -3.000000
74 2 474.757000 -3129.950000 685.746000 1 1.000000 1 -3.000000
75 2 465.567000 -3133.470000 684.028000 1 1.000000 4 -3.000000
76 1 457.035000 -3110.630000 643.640000 1 1.000000 4 0.000000
77 3 489.029000 -3099.380000 652.622000 1 1.000000 4 0.000000
78 2 468.471000 -3081.670000 608.240000 1 1.000000 4 -3.000000
79 2 476.948000 -3081.600000 613.413000 1 1.000000 1 -3.000000
80 2 484.862000 -3077.640000 617.746000 1 1.000000 1 -3.000000
81 2 494.241000 -3075.170000 619.783000 1 1.000000 1 -3.000000
82 2 504.054000 -3075.700000 621.035000 1 1.000000 1 -3.000000
83 2 512.764000 -3072.810000 624.922000 1 1.000000 1 -3.000000
84 2 521.070000 -3070.780000 630.009000 1 1.000000 1 -3.000000
85 2 530.858000 -3071.710000 628.601000 1 1.000000 1 -3.000000
86 2 540.420000 -3074.620000 627.293000 1 1.000000 1 -3.000000
87 2 549.584000 -3078.160000 627.000000 1 1.000000 1 -3.000000
88 2 558.563000 -3082.090000 627.975000 1 1.000000 1 -3.000000
89 2 567.867000 -3085.280000 627.762000 1 1.000000 1 -3.000000
90 2 576.029000 -3090.830000 627.332000 1 1.000000 1 -3.000000
91 2 584.594000 -3095.720000 626.883000 1 1.000000 1 -3.000000
92 2 593.463000 -3098.460000 623.368000 1 1.000000 1 -3.000000
93 2 602.190000 -3102.600000 621.287000 1 1.000000 1 -3.000000
94 2 611.137000 -3106.870000 620.199000 1 1.000000 1 -3.000000
95 2 619.038000 -3112.870000 619.126000 1 1.000000 1 -3.000000
96 2 627.394000 -3117.910000 617.376000 1 1.000000 1 -3.000000
97 2 635.905000 -3123.010000 618.466000 1 1.000000 1 -3.000000
98 2 643.754000 -3127.240000 622.747000 1 1.000000 1 -3.000000
99 2 648.933000 -3134.990000 626.284000 1 1.000000 1 -3.000000
100 2 653.352000 -3143.600000 628.497000 1 1.000000 1 -3.000000
101 2 655.982000 -3151.730000 633.404000 1 1.000000 1 -3.000000
102 2 661.645000 -3158.050000 638.548000 1 1.000000 5 -3.000000
103 1 700.887000 -3132.560000 632.962000 1 1.000000 5 0.000000
104 3 675.239000 -3109.510000 625.966000 1 1.000000 5 0.000000
105 2 724.577000 -3093.390000 621.366000 1 1.000000 5 -3.000000
106 2 719.318000 -3089.330000 613.816000 1 1.000000 1 -3.000000
107 2 714.543000 -3086.150000 605.767000 1 1.000000 1 -3.000000
108 2 711.108000 -3082.720000 597.113000 1 1.000000 1 -3.000000
109 2 708.949000 -3078.480000 588.426000 1 1.000000 1 -3.000000
110 2 706.685000 -3072.460000 580.953000 1 1.000000 1 -3.000000
111 2 703.816000 -3068.810000 572.173000 1 1.000000 1 -3.000000
112 2 699.318000 -3064.420000 564.592000 1 1.000000 1 -3.000000
113 2 698.984000 -3057.410000 557.741000 1 1.000000 1 -3.000000
114 2 701.865000 -3058.760000 548.195000 1 1.000000 1 -3.000000
115 2 708.402000 -3059.640000 540.907000 1 1.000000 1 -3.000000
116 2 714.281000 -3060.980000 533.087000 1 1.000000 1 -3.000000
117 2 717.760000 -3064.320000 524.461000 1 1.000000 1 -3.000000
118 2 724.375000 -3067.690000 517.876000 1 1.000000 1 -3.000000
119 2 730.431000 -3070.090000 510.306000 1 1.000000 1 -3.000000
120 2 736.485000 -3069.390000 502.503000 1 1.000000 1 -3.000000
121 2 741.184000 -3067.440000 494.026000 1 1.000000 1 -3.000000
122 2 744.875000 -3068.100000 484.856000 1 1.000000 1 -3.000000
123 2 747.972000 -3069.230000 475.456000 1 1.000000 1 -3.000000
124 2 748.541000 -3072.770000 466.252000 1 1.000000 1 -3.000000
125 2 747.128000 -3075.480000 456.884000 1 1.000000 1 -3.000000
126 2 747.008000 -3078.150000 447.368000 1 1.000000 1 -3.000000
127 2 749.124000 -3080.240000 437.925000 1 1.000000 1 -3.000000
128 2 748.297000 -3081.020000 428.101000 1 1.000000 1 -3.000000
129 2 744.955000 -3079.470000 418.963000 1 1.000000 6 -3.000000
130 1 732.796000 -3034.870000 409.641000 1 1.000000 6 0.000000
131 3 739.428000 -3034.440000 443.873000 1 1.000000 6 0.000000
132 2 723.591000 -2990.240000 421.835000 1 1.000000 6 -3.000000
133 2 726.303000 -2990.240000 431.370000 1 1.000000 1 -3.000000
134 2 733.154000 -2988.900000 438.416000 1 1.000000 1 -3.000000
135 2 736.976000 -2989.830000 447.487000 1 1.000000 1 -3.000000
136 2 740.831000 -2992.180000 456.311000 1 1.000000 1 -3.000000
137 2 747.046000 -2994.750000 463.505000 1 1.000000 1 -3.000000
138 2 752.904000 -3000.970000 468.451000 1 1.000000 1 -3.000000
139 2 758.220000 -3007.370000 473.791000 1 1.000000 1 -3.000000
140 2 762.871000 -3013.310000 480.154000 1 1.000000 1 -3.000000
141 2 765.629000 -3017.060000 488.956000 1 1.000000 1 -3.000000
142 2 770.373000 -3020.500000 496.852000 1 1.000000 1 -3.000000
143 2 775.116000 -3022.990000 505.237000 1 1.000000 1 -3.000000
144 2 781.034000 -3023.550000 513.273000 1 1.000000 1 -3.000000
145 2 788.503000 -3025.200000 519.747000 1 1.000000 1 -3.000000
146 2 797.094000 -3025.170000 524.706000 1 1.000000 1 -3.000000
147 2 806.215000 -3026.820000 528.268000 1 1.000000 1 -3.000000
148 2 815.068000 -3028.280000 532.212000 1 1.000000 1 -3.000000
149 2 824.581000 -3028.080000 535.021000 1 1.000000 1 -3.000000
150 2 833.490000 -3028.760000 539.055000 1 1.000000 1 -3.000000
151 2 840.784000 -3029.340000 545.873000 1 1.000000 1 -3.000000
152 2 844.144000 -3029.940000 555.182000 1 1.000000 1 -3.000000
153 2 848.297000 -3031.520000 564.026000 1 1.000000 1 -3.000000
154 2 851.644000 -3033.210000 573.152000 1 1.000000 1 -3.000000
155 2 854.250000 -3035.910000 582.200000 1 1.000000 1 -3.000000
156 2 851.497000 -3038.350000 591.388000 1 1.000000 7 -3.000000
157 1 840.971000 -2997.310000 612.323000 1 1.000000 7 0.000000
158 3 840.901000 -2989.200000 578.343000 1 1.000000 7 0.000000
159 2 832.091000 -2950.960000 612.372000 1 1.000000 7 -3.000000
160 2 832.381000 -2951.300000 602.523000 1 1.000000 1 -3.000000
161 2 829.715000 -2951.000000 592.994000 1 1.000000 1 -3.000000
162 2 827.034000 -2949.040000 583.602000 1 1.000000 1 -3.000000
163 2 823.646000 -2947.450000 574.452000 1 1.000000 1 -3.000000
164 2 819.544000 -2943.210000 566.475000 1 1.000000 1 -3.000000
165 2 815.307000 -2936.440000 560.617000 1 1.000000 1 -3.000000
166 2 809.729000 -2929.120000 556.945000 1 1.000000 1 -3.000000
167 2 802.869000 -2923.860000 551.858000 1 1.000000 1 -3.000000
168 2 799.042000 -2917.060000 545.757000 1 1.000000 1 -3.000000
169 2 795.837000 -2908.950000 541.223000 1 1.000000 1 -3.000000
170 2 794.145000 -2901.000000 535.530000 1 1.000000 1 -3.000000
171 2 792.631000 -2896.150000 527.176000 1 1.000000 1 -3.000000
172 2 788.459000 -2891.000000 519.867000 1 1.000000 1 -3.000000
173 2 786.080000 -2887.280000 511.006000 1 1.000000 1 -3.000000
174 2 779.514000 -2885.530000 503.925000 1 1.000000 1 -3.000000
175 2 774.171000 -2884.230000 495.584000 1 1.000000 1 -3.000000
176 2 767.906000 -2883.830000 487.726000 1 1.000000 1 -3.000000
177 2 760.828000 -2883.510000 480.681000 1 1.000000 1 -3.000000
178 2 756.728000 -2888.150000 472.859000 1 1.000000 1 -3.000000
179 2 752.653000 -2889.840000 464.065000 1 1.000000 1 -3.000000
180 2 748.098000 -2890.560000 455.314000 1 1.000000 1 -3.000000
181 2 740.654000 -2891.600000 448.751000 1 1.000000 1 -3.000000
182 2 733.174000 -2895.340000 443.226000 1 1.000000 1 -3.000000
183 2 725.082000 -2897.490000 437.671000 1 1.000000 8 -3.000000
184 1 695.254000 -2904.440000 473.669000 1 1.000000 8 0.000000
185 3 715.088000 -2877.770000 484.520000 1 1.000000 8 0.000000
186 2 674.993000 -2891.940000 514.382000 1 1.000000 8 -3.000000
187 2 682.457000 -2885.530000 515.614000 1 1.000000 1 -3.000000
188 2 687.106000 -2876.800000 516.245000 1 1.000000 1 -3.000000
189 2 688.877000 -2867.140000 517.893000 1 1.000000 1 -3.000000
190 2 693.557000 -2858.410000 517.400000 1 1.000000 1 -3.000000
191 2 699.943000 -2851.120000 518.934000 1 1.000000 1 -3.000000
192 2 705.400000 -2844.070000 523.212000 1 1.000000 1 -3.000000
193 2 709.218000 -2837.410000 529.351000 1 1.000000 1 -3.000000
194 2 712.014000 -2829.620000 534.707000 1 1.000000 1 -3.000000
195 2 711.975000 -2821.380000 540.307000 1 1.000000 1 -3.000000
196 2 708.287000 -2814.150000 546.052000 1 1.000000 1 -3.000000
197 2 704.814000 -2807.390000 552.138000 1 1.000000 1 -3.000000
198 2 699.161000 -2799.890000 555.239000 1 1.000000 1 -3.000000
199 2 693.117000 -2792.910000 558.721000 1 1.000000 1 -3.000000
200 2 686.154000 -2787.920000 563.695000 1 1.000000 1 -3.000000
201 2 678.931000 -2781.170000 562.720000 1 1.000000 1 -3.000000
202 2 673.004000 -2774.240000 558.737000 1 1.000000 1 -3.000000
203 2 664.184000 -2769.870000 558.850000 1 1.000000 1 -3.000000
204 2 654.497000 -2769.110000 557.038000 1 1.000000 1 -3.000000
205 2 645.082000 -2768.740000 554.117000 1 1.000000 1 -3.000000
206 2 636.330000 -2769.780000 549.562000 1 1.000000 1 -3.000000
207 2 627.228000 -2768.970000 545.650000 1 1.000000 1 -3.000000
208 2 619.198000 -2765.360000 541.019000 1 1.000000 1 -3.000000
209 2 609.952000 -2762.100000 539.580000 1 1.000000 1 -3.000000
210 2 600.272000 -2760.990000 538.466000 1 1.000000 9 -3.000000
211 1 598.676000 -2746.110000 493.726000 1 1.000000 9 0.000000
212 3 629.515000 -2734.170000 505.025000 1 1.000000 9 0.000000
213 2 616.225000 -2723.860000 455.922000 1 1.000000 9 -3.000000
214 2 624.849000 -2721.210000 459.889000 1 1.000000 1 -3.000000
215 2 632.673000 -2718.990000 465.414000 1 1.000000 1 -3.000000
216 2 641.449000 -2716.250000 469.282000 1 1.000000 1 -3.000000
217 2 650.144000 -2716.100000 473.998000 1 1.000000 1 -3.000000
218 2 658.163000 -2713.360000 479.107000 1 1.000000 1 -3.000000
219 2 666.205000 -2713.200000 484.808000 1 1.000000 1 -3.000000
220 2 673.502000 -2711.610000 491.491000 1 1.000000 1 -3.000000
221 2 680.628000 -2709.550000 498.033000 1 1.000000 1 -3.000000
222 2 687.544000 -2706.360000 504.334000 1 1.000000 1 -3.000000
223 2 693.606000 -2702.720000 511.265000 1 1.000000 1 -3.000000
224 2 698.858000 -2699.370000 518.927000 1 1.000000 1 -3.000000
225 2 700.434000 -2696.700000 528.382000 1 1.000000 1 -3.000000
226 2 699.136000 -2693.970000 537.893000 1 1.000000 1 -3.000000
227 2 696.145000 -2689.240000 546.126000 1 1.000000 1 -3.000000
228 2 692.945000 -2683.390000 553.586000 1 1.000000 1 -3.000000
229 2 687.638000 -2678.260000 559.974000 1 1.000000 1 -3.000000
230 2 681.287000 -2672.490000 565.159000 1 1.000000 1 -3.000000
231 2 674.596000 -2667.660000 570.448000 1 1.000000 1 -3.000000
232 2 668.311000 -2662.870000 576.474000 1 1.000000 1 -3.000000
233 2 660.573000 -2656.910000 578.310000 1 1.000000 1 -3.000000
234 2 652.779000 -2651.610000 581.237000 1 1.000000 1 -3.000000
235 2 644.147000 -2646.890000 579.728000 1 1.000000 1 -3.000000
236 2 638.427000 -2642.060000 573.284000 1 1.000000 1 -3.000000
237 2 631.107000 -2639.280000 567.228000 1 1.000000 10 -3.000000
238 1 609.825000 -2681.200000 563.573000 1 1.000000 10 0.000000
239 3 632.385000 -2685.890000 589.893000 1 1.000000 10 0.000000
240 2 601.913000 -2725.830000 576.864000 1 1.000000 10 -3.000000
241 2 607.784000 -2726.330000 584.736000 1 1.000000 1 -3.000000
242 2 613.890000 -2728.260000 592.254000 1 1.000000 1 -3.000000
243 2 620.377000 -2728.340000 599.692000 1 1.000000 1 -3.000000
244 2 627.949000 -2727.730000 606.165000 1 1.000000 1 -3.000000
245 2 636.389000 -2723.840000 609.321000 1 1.000000 1 -3.000000
246 2 642.487000 -2717.490000 613.813000 1 1.000000 1 -3.000000
247 2 646.621000 -2711.280000 620.269000 1 1.000000 1 -3.000000
248 2 649.833000 -2705.220000 627.400000 1 1.000000 1 -3.000000
249 2 654.797000 -2698.690000 632.793000 1 1.000000 1 -3.000000
250 2 659.166000 -2693.210000 639.800000 1 1.000000 1 -3.000000
251 2 664.066000 -2689.530000 647.619000 1 1.000000 1 -3.000000
252 2 670.495000 -2685.580000 654.131000 1 1.000000 1 -3.000000
253 2 673.595000 -2678.060000 659.686000 1 1.000000 1 -3.000000
254 2 675.332000 -2673.130000 668.145000 1 1.000000 1 -3.000000
255 2 677.271000 -2669.410000 677.142000 1 1.000000 1 -3.000000
256 2 677.394000 -2666.160000 686.526000 1 1.000000 1 -3.000000
257 2 676.928000 -2662.840000 695.913000 1 1.000000 1 -3.000000
258 2 673.574000 -2658.790000 704.248000 1 1.000000 1 -3.000000
259 2 667.494000 -2655.380000 711.398000 1 1.000000 1 -3.000000
260 2 664.170000 -2647.400000 716.283000 1 1.000000 1 -3.000000
261 2 664.249000 -2638.380000 720.483000 1 1.000000 1 -3.000000
262 2 663.714000 -2629.520000 724.815000 1 1.000000 1 -3.000000
263 2 665.686000 -2621.100000 729.579000 1 1.000000 1 -3.000000
264 2 666.224000 -2611.490000 731.914000 1 1.000000 11 -3.000000
265 1 702.875000 -2624.590000 758.594000 1 1.000000 11 0.000000
266 3 707.754000 -2642.360000 728.910000 1 1.000000 11 0.000000
267 2 741.960000 -2649.590000 767.283000 1 1.000000 11 -3.000000
268 2 744.228000 -2644.590000 758.962000 1 1.000000 1 -3.000000
269 2 746.842000 -2639.780000 750.707000 1 1.000000 1 -3.000000
270 2 749.239000 -2634.480000 742.550000 1 1.000000 1 -3.000000
271 2 748.966000 -2627.520000 735.414000 1 1.000000 1 -3.000000
272 2 750.846000 -2621.220000 728.081000 1 1.000000 1 -3.000000
273 2 756.128000 -2615.510000 721.955000 1 1.000000 1 -3.000000
274 2 762.194000 -2611.180000 715.467000 1 1.000000 1 -3.000000
275 2 763.734000 -2602.140000 712.021000 1 1.000000 1 -3.000000
276 2 768.784000 -2593.830000 710.426000 1 1.000000 1 -3.000000
277 2 776.661000 -2588.150000 708.514000 1 1.000000 1 -3.000000
278 2 783.634000 -2581.130000 707.305000 1 1.000000 1 -3.000000
279 2 790.238000 -2573.840000 706.073000 1 1.000000 1 -3.000000
280 2 796.205000 -2566.100000 704.394000 1 1.000000 1 -3.000000
281 2 802.853000 -2558.990000 702.925000 1 1.000000 1 -3.000000
282 2 809.992000 -2551.860000 703.176000 1 1.000000 1 -3.000000
283 2 818.144000 -2547.530000 706.906000 1 1.000000 1 -3.000000
284 2 827.012000 -2542.950000 706.889000 1 1.000000 1 -3.000000
285 2 836.049000 -2539.840000 709.873000 1 1.000000 1 -3.000000
286 2 844.295000 -2537.060000 714.313000 1 1.000000 1 -3.000000
287 2 851.662000 -2531.760000 718.306000 1 1.000000 1 -3.000000
288 2 858.537000 -2525.610000 721.960000 1 1.000000 1 -3.000000
289 2 863.603000 -2521.060000 729.064000 1 1.000000 1 -3.000000
290 2 867.646000 -2515.790000 736.489000 1 1.000000 1 -3.000000
291 2 871.675000 -2510.970000 744.174000 1 1.000000 12 -3.000000
292 1 845.649000 -2472.250000 736.919000 1 1.000000 12 0.000000
293 3 824.417000 -2498.480000 727.027000 1 1.000000 12 0.000000
294 2 805.406000 -2450.010000 725.889000 1 1.000000 12 -3.000000
295 2 800.442000 -2458.560000 725.963000 1 1.000000 1 -3.000000
296 2 795.321000 -2466.570000 729.055000 1 1.000000 1 -3.000000
297 2 789.166000 -2473.470000 732.605000 1 1.000000 1 -3.000000
298 2 782.949000 -2480.920000 734.593000 1 1.000000 1 -3.000000
299 2 775.785000 -2487.590000 736.105000 1 1.000000 1 -3.000000
300 2 768.937000 -2494.740000 736.030000 1 1.000000 1 -3.000000
301 2 761.418000 -2500.340000 732.662000 1 1.000000 1 -3.000000
302 2 754.329000 -2506.510000 729.374000 1 1.000000 1 -3.000000
303 2 746.253000 -2511.050000 726.015000 1 1.000000 1 -3.000000
304 2 739.082000 -2517.520000 723.907000 1 1.000000 1 -3.000000
305 2 730.653000 -2522.160000 721.450000 1 1.000000 1 -3.000000
306 2 723.916000 -2528.280000 717.388000 1 1.000000 1 -3.000000
307 2 718.053000 -2535.190000 713.580000 1 1.000000 1 -3.000000
308 2 710.473000 -2538.880000 708.539000 1 1.000000 1 -3.000000
309 2 701.726000 -2541.130000 704.645000 1 1.000000 1 -3.000000
310 2 694.139000 -2540.980000 698.281000 1 1.000000 1 -3.000000
311 2 689.129000 -2542.570000 689.868000 1 1.000000 1 -3.000000
312 2 683.992000 -2545.150000 681.806000 1 1.000000 1 -3.000000
313 2 678.112000 -2548.920000 674.859000 1 1.000000 1 -3.000000
314 2 674.399000 -2554.320000 667.340000 1 1.000000 1 -3.000000
315 2 672.608000 -2560.120000 659.411000 1 1.000000 1 -3.000000
316 2 672.012000 -2567.490000 652.784000 1 1.000000 1 -3.000000
317 2 672.926000 -2573.680000 645.088000 1 1.000000 1 -3.000000
318 2 671.430000 -2580.290000 637.806000 1 1.000000 13 -3.000000
319 1 679.916000 -2545.830000 606.687000 1 1.000000 13 0.000000
320 3 696.516000 -2534.880000 635.442000 1 1.000000 13 0.000000
321 2 701.267000 -2506.070000 592.636000 1 1.000000 13 -3.000000
322 2 702.038000 -2500.740000 600.946000 1 1.000000 1 -3.000000
323 2 707.028000 -2494.390000 606.645000 1 1.000000 1 -3.000000
324 2 712.648000 -2487.860000 611.641000 1 1.000000 1 -3.000000
325 2 717.721000 -2479.590000 613.389000 1 1.000000 1 -3.000000
326 2 724.311000 -2472.330000 612.867000 1 1.000000 1 -3.000000
327 2 732.291000 -2466.550000 612.301000 1 1.000000 1 -3.000000
328 2 737.881000 -2458.610000 611.619000 1 1.000000 1 -3.000000
329 2 742.670000 -2450.140000 609.739000 1 1.000000 1 -3.000000
330 2 742.676000 -2440.550000 607.737000 1 1.000000 1 -3.000000
331 2 741.230000 -2430.910000 606.341000 1 1.000000 1 -3.000000
332 2 744.350000 -2422.910000 601.400000 1 1.000000 1 -3.000000
333 2 746.205000 -2413.670000 598.623000 1 1.000000 1 -3.000000
334 2 747.840000 -2404.720000 594.921000 1 1.000000 1 -3.000000
335 2 748.356000 -2394.830000 593.244000 1 1.000000 1 -3.000000
336 2 753.649000 -2386.460000 593.799000 1 1.000000 1 -3.000000
337 2 756.110000 -2377.060000 591.902000 1 1.000000 1 -3.000000
338 2 758.446000 -2368.230000 588.133000 1 1.000000 1 -3.000000
339 2 761.289000 -2361.730000 581.299000 1 1.000000 1 -3.000000
340 2 766.681000 -2356.100000 575.125000 1 1.000000 1 -3.000000
341 2 773.302000 -2351.150000 569.769000 1 1.000000 1 -3.000000
342 2 779.089000 -2348.510000 562.078000 1 1.000000 1 -3.000000
343 2 783.706000 -2341.150000 557.413000 1 1.000000 1 -3.000000
344 2 790.323000 -2334.830000 553.752000 1 1.000000 1 -3.000000
345 2 798.086000 -2330.910000 549.096000 1 1.000000 14 -3.000000
346 1 774.409000 -2344.180000 510.552000 1 1.000000 14 0.000000
347 3 750.058000 -2345.170000 535.750000 1 1.000000 14 0.000000
348 2 735.953000 -2359.040000 487.612000 1 1.000000 14 -3.000000
349 2 733.792000 -2363.460000 496.033000 1 1.000000 1 -3.000000
350 2 728.394000 -2367.720000 503.177000 1 1.000000 1 -3.000000
351 2 722.772000 -2374.140000 508.305000 1 1.000000 1 -3.000000
352 2 716.357000 -2380.590000 512.593000 1 1.000000 1 -3.000000
353 2 709.729000 -2387.080000 516.003000 1 1.000000 1 -3.000000
354 2 703.424000 -2393.730000 520.055000 1 1.000000 1 -3.000000
355 2 700.167000 -2400.530000 526.334000 1 1.000000 1 -3.000000
356 2 698.374000 -2408.130000 532.348000 1 1.000000 1 -3.000000
357 2 693.662000 -2415.890000 536.343000 1 1.000000 1 -3.000000
358 2 690.128000 -2421.080000 543.911000 1 1.000000 1 -3.000000
359 2 687.095000 -2426.680000 551.524000 1 1.000000 1 -3.000000
360 2 684.186000 -2431.890000 559.517000 1 1.000000 1 -3.000000
361 2 681.495000 -2432.390000 569.099000 1 1.000000 1 -3.000000
362 2 680.550000 -2432.690000 579.050000 1 1.000000 1 -3.000000
363 2 678.266000 -2431.590000 588.561000 1 1.000000 1 -3.000000
364 2 672.498000 -2430.450000 596.443000 1 1.000000 1 -3.000000
365 2 666.640000 -2429.160000 604.289000 1 1.000000 1 -3.000000
366 2 662.686000 -2430.640000 613.225000 1 1.000000 1 -3.000000
367 2 656.638000 -2433.410000 620.597000 1 1.000000 1 -3.000000
368 2 650.856000 -2436.730000 628.107000 1 1.000000 1 -3.000000
369 2 642.357000 -2438.970000 632.650000 1 1.000000 1 -3.000000
370 2 634.550000 -2443.660000 636.685000 1 1.000000 1 -3.000000
371 2 625.519000 -2446.740000 639.462000 1 1.000000 1 -3.000000
372 2 616.747000 -2448.620000 643.509000 1 1.000000 15 -3.000000
373 1 629.198000 -2470.820000 683.264000 1 1.000000 15 0.000000
374 3 655.956000 -2448.900000 677.581000 1 1.000000 15 0.000000
375 2 657.099000 -2477.980000 720.647000 1 1.000000 15 -3.000000
376 2 661.431000 -2470.530000 715.779000 1 1.000000 1 -3.000000
377 2 665.178000 -2462.740000 711.019000 1 1.000000 1 -3.000000
378 2 668.947000 -2454.890000 706.271000 1 1.000000 1 -3.000000
379 2 672.592000 -2447.790000 700.402000 1 1.000000 1 -3.000000
380 2 676.629000 -2442.710000 692.811000 1 1.000000 1 -3.000000
381 2 679.671000 -2437.460000 684.957000 1 1.000000 1 -3.000000
382 2 681.426000 -2433.740000 675.850000 1 1.000000 1 -3.000000
383 2 680.094000 -2429.460000 667.067000 1 1.000000 1 -3.000000
384 2 678.339000 -2426.340000 657.912000 1 1.000000 1 -3.000000
385 2 678.614000 -2418.820000 651.545000 1 1.000000 1 -3.000000
386 2 682.853000 -2411.990000 645.749000 1 1.000000 1 -3.000000
387 2 685.480000 -2406.210000 638.102000 1 1.000000 1 -3.000000
388 2 686.435000 -2403.540000 628.558000 1 1.000000 1 -3.000000
389 2 686.144000 -2398.090000 620.201000 1 1.000000 1 -3.000000
390 2 690.269000 -2390.800000 615.059000 1 1.000000 1 -3.000000
391 2 691.815000 -2386.140000 606.458000 1 1.000000 1 -3.000000
392 2 691.172000 -2381.310000 597.810000 1 1.000000 1 -3.000000
393 2 688.668000 -2376.640000 589.358000 1 1.000000 1 -3.000000
394 2 686.340000 -2369.670000 582.869000 1 1.000000 1 -3.000000
395 2 685.329000 -2361.890000 577.014000 1 1.000000 1 -3.000000
396 2 680.372000 -2354.210000 573.372000 1 1.000000 1 -3.000000
397 2 677.607000 -2345.040000 570.931000 1 1.000000 1 -3.000000
398 2 675.130000 -2335.510000 572.174000 1 1.000000 1 -3.000000
399 2 671.920000 -2326.910000 575.831000 1 1.000000 16 -3.000000
400 1 703.323000 -2317.490000 541.876000 1 1.000000 16 0.000000
401 3 684.319000 -2343.620000 528.267000 1 1.000000 16 0.000000
402 2 724.896000 -2326.280000 500.812000 1 1.000000 16 -3.000000
403 2 718.718000 -2333.370000 497.899000 1 1.000000 1 -3.000000
404 2 710.862000 -2337.680000 493.540000 1 1.000000 1 -3.000000
405 2 701.782000 -2340.770000 490.931000 1 1.000000 1 -3.000000
406 2 692.999000 -2342.950000 487.015000 1 1.000000 1 -3.000000
407 2 685.768000 -2348.500000 483.440000 1 1.000000 1 -3.000000
408 2 680.140000 -2355.020000 478.409000 1 1.000000 1 -3.000000
409 2 674.967000 -2359.380000 471.098000 1 1.000000 1 -3.000000
410 2 669.964000 -2363.050000 463.300000 1 1.000000 1 -3.000000
411 2 663.921000 -2365.230000 455.801000 1 1.000000 1 -3.000000
412 2 658.991000 -2367.670000 447.624000 1 1.000000 1 -3.000000
413 2 655.862000 -2369.810000 438.576000 1 1.000000 1 -3.000000
414 2 649.798000 -2372.160000 430.959000 1 1.000000 1 -3.000000
415 2 642.221000 -2374.720000 425.258000 1 1.000000 1 -3.000000
416 2 635.188000 -2376.960000 418.582000 1 1.000000 1 -3.000000
417 2 628.260000 -2379.840000 411.929000 1 1.000000 1 -3.000000
418 2 622.222000 -2381.950000 404.528000 1 1.000000 1 -3.000000
419 2 616.074000 -2384.720000 397.247000 1 1.000000 1 -3.000000
420 2 611.027000 -2388.240000 389.407000 1 1.000000 1 -3.000000
421 2 607.273000 -2390.710000 380.641000 1 1.000000 1 -3.000000
422 2 600.121000 -2388.850000 374.152000 1 1.000000 1 -3.000000
423 2 592.081000 -2386.620000 368.516000 1 1.000000 1 -3.000000
424 2 582.965000 -2383.360000 366.442000 1 1.000000 1 -3.000000
425 2 575.368000 -2377.430000 364.336000 1 1.000000 1 -3.000000
426 2 568.141000 -2370.830000 365.064000 1 1.000000 17 -3.000000
427 1 535.243000 -2363.310000 331.979000 1 1.000000 17 0.000000
428 3 546.603000 -2395.660000 324.705000 1 1.000000 17 0.000000
429 2 512.788000 -2374.110000 291.918000 1 1.000000 17 -3.000000
430 2 522.083000 -2377.320000 291.740000 1 1.000000 1 -3.000000
431 2 530.242000 -2382.410000 289.367000 1 1.000000 1 -3.000000
432 2 538.927000 -2386.660000 287.075000 1 1.000000 1 -3.000000
433 2 544.450000 -2394.820000 287.211000 1 1.000000 1 -3.000000
434 2 547.589000 -2404.180000 286.915000 1 1.000000 1 -3.000000
435 2 550.270000 -2413.590000 286.606000 1 1.000000 1 -3.000000
436 2 551.608000 -2423.320000 286.576000 1 1.000000 1 -3.000000
437 2 553.692000 -2432.790000 288.678000 1 1.000000 1 -3.000000
438 2 555.136000 -2442.350000 290.530000 1 1.000000 1 -3.000000
439 2 549.931000 -2450.390000 292.810000 1 1.000000 1 -3.000000
440 2 543.480000 -2457.580000 294.702000 1 1.000000 1 -3.000000
441 2 536.184000 -2464.200000 294.916000 1 1.000000 1 -3.000000
442 2 531.591000 -2472.890000 294.688000 1 1.000000 1 -3.000000
443 2 529.307000 -2481.590000 290.556000 1 1.000000 1 -3.000000
444 2 526.063000 -2490.620000 288.320000 1 1.000000 1 -3.000000
445 2 524.268000 -2500.160000 286.148000 1 1.000000 1 -3.000000
446 2 521.373000 -2509.620000 285.097000 1 1.000000 1 -3.000000
447 2 520.312000 -2519.330000 284.454000 1 1.000000 1 -3.000000
448 2 519.790000 -2527.600000 279.071000 1 1.000000 1 -3.000000
449 2 517.225000 -2534.430000 272.633000 1 1.000000 1 -3.000000
450 2 515.938000 -2542.050000 266.568000 1 1.000000 1 -3.000000
451 2 513.065000 -2549.530000 260.622000 1 1.000000 1 -3.000000
452 2 512.140000 -2559.000000 258.089000 1 1.000000 1 -3.000000
453 2 514.199000 -2568.700000 257.481000 1 1.000000 18 -3.000000
454 1 505.740000 -2588.380000 299.580000 1 1.000000 18 0.000000
455 3 486.478000 -2559.230000 300.264000 1 1.000000 18 0.000000
456 2 482.227000 -2592.050000 340.300000 1 1.000000 18 -3.000000
457 2 474.807000 -2585.550000 340.705000 1 1.000000 1 -3.000000
458 2 466.979000 -2580.150000 337.844000 1 1.000000 1 -3.000000
459 2 462.402000 -2572.030000 334.566000 1 1.000000 1 -3.000000
460 2 456.705000 -2564.730000 330.878000 1 1.000000 1 -3.000000
461 2 451.041000 -2557.790000 326.803000 1 1.000000 1 -3.000000
462 2 445.598000 -2550.350000 323.306000 1 1.000000 1 -3.000000
463 2 439.728000 -2543.300000 319.318000 1 1.000000 1 -3.000000
464 2 432.570000 -2539.190000 313.684000 1 1.000000 1 -3.000000
465 2 425.827000 -2533.520000 309.193000 1 1.000000 1 -3.000000