LAMMPS data file

4067 atoms
4067 ellipsoids
4516 bonds
8882 angles
0 dihedrals

3 atom types
5 bond types
12 angle types
0 dihedral types

-4631.092947 4670.465898 xlo xhi
-4631.092947 4670.465898 ylo yhi
-4631.092947 4670.465898 zlo zhi

Masses

1 196016.000000
2 1950.000000
3 19500.000000

Atoms

1 2 670.337000 -3160.790000 458.886000 1 1.000000 1 -3.000000
2 2 665.284000 -3152.600000 456.519000 1 1.000000 1 -3.000000
3 2 661.332000 -3144.150000 453.250000 1 1.000000 1 -3.000000
4 2 657.954000 -3136.710000 447.649000 1 1.000000 1 -3.000000
5 2 656.537000 -3128.340000 442.656000 1 1.000000 1 -3.000000
6 2 653.945000 -3119.990000 438.076000 1 1.000000 1 -3.000000
7 2 652.515000 -3112.130000 432.339000 1 1.000000 1 -3.000000
8 2 654.362000 -3102.640000 430.383000 1 1.000000 1 -3.000000
9 2 656.397000 -3093.850000 426.465000 1 1.000000 1 -3.000000
10 2 660.207000 -3084.930000 424.594000 1 1.000000 1 -3.000000
11 2 666.230000 -3077.060000 423.892000 1 1.000000 1 -3.000000
12 2 674.654000 -3071.920000 424.121000 1 1.000000 1 -3.000000
13 2 683.396000 -3067.530000 425.193000 1 1.000000 1 -3.000000
14 2 690.918000 -3061.200000 424.051000 1 1.000000 1 -3.000000
15 2 698.772000 -3056.010000 420.595000 1 1.000000 1 -3.000000
16 2 705.873000 -3049.500000 417.891000 1 1.000000 1 -3.000000
17 2 711.154000 -3041.270000 416.720000 1 1.000000 1 -3.000000
18 2 713.365000 -3032.240000 413.257000 1 1.000000 1 -3.000000
19 2 714.020000 -3022.660000 410.738000 1 1.000000 1 -3.000000
20 2 714.424000 -3013.500000 407.074000 1 1.000000 1 -3.000000
21 2 714.382000 -3003.990000 403.947000 1 1.000000 2 -3.000000
22 1 759.655000 -2993.070000 411.494000 1 1.000000 2 0.000000
23 3 754.507000 -3020.970000 431.816000 1 1.000000 2 0.000000
24 2 801.495000 -2998.480000 432.683000 1 1.000000 2 -3.000000
25 2 801.028000 -3008.450000 433.068000 1 1.000000 1 -3.000000
26 2 797.541000 -3017.290000 435.917000 1 1.000000 1 -3.000000
27 2 794.670000 -3026.040000 439.417000 1 1.000000 1 -3.000000
28 2 792.959000 -3035.620000 440.559000 1 1.000000 1 -3.000000
29 2 790.675000 -3045.210000 439.892000 1 1.000000 1 -3.000000
30 2 786.799000 -3054.420000 439.915000 1 1.000000 1 -3.000000
31 2 780.342000 -3061.860000 440.580000 1 1.000000 1 -3.000000
32 2 773.549000 -3068.100000 444.156000 1 1.000000 1 -3.000000
33 2 767.727000 -3075.310000 447.359000 1 1.000000 1 -3.000000
34 2 763.085000 -3082.940000 451.702000 1 1.000000 1 -3.000000
35 2 758.093000 -3090.510000 455.832000 1 1.000000 1 -3.000000
36 2 755.292000 -3099.020000 459.853000 1 1.000000 1 -3.000000
37 2 751.508000 -3105.400000 466.369000 1 1.000000 1 -3.000000
38 2 749.975000 -3108.930000 475.530000 1 1.000000 1 -3.000000
39 2 749.117000 -3113.020000 484.563000 1 1.000000 1 -3.000000
40 2 748.376000 -3115.850000 494.009000 1 1.000000 1 -3.000000
41 2 748.300000 -3119.270000 503.195000 1 1.000000 1 -3.000000
42 2 748.972000 -3121.860000 512.651000 1 1.000000 1 -3.000000
43 2 747.941000 -3122.790000 522.471000 1 1.000000 1 -3.000000
44 2 747.682000 -3119.630000 531.964000 1 1.000000 1 -3.000000
45 2 747.095000 -3118.280000 541.678000 1 1.000000 1 -3.000000
46 2 744.876000 -3117.180000 551.366000 1 1.000000 1 -3.000000
47 2 743.136000 -3119.640000 560.685000 1 1.000000 1 -3.000000
48 2 740.613000 -3120.410000 570.176000 1 1.000000 3 -3.000000
49 1 768.334000 -3088.880000 591.731000 1 1.000000 3 0.000000
50 3 757.759000 -3071.640000 563.187000 1 1.000000 3 0.000000
51 2 787.367000 -3046.070000 597.115000 1 1.000000 3 -3.000000
52 2 783.507000 -3043.180000 588.238000 1 1.000000 1 -3.000000
53 2 779.565000 -3039.720000 579.886000 1 1.000000 1 -3.000000
54 2 779.529000 -3037.060000 570.412000 1 1.000000 1 -3.000000
55 2 781.805000 -3032.830000 561.688000 1 1.000000 1 -3.000000
56 2 785.682000 -3029.700000 553.072000 1 1.000000 1 -3.000000
57 2 787.566000 -3026.130000 544.060000 1 1.000000 1 -3.000000
58 2 788.841000 -3020.660000 535.940000 1 1.000000 1 -3.000000
59 2 791.972000 -3015.480000 527.992000 1 1.000000 1 -3.000000
60 2 797.178000 -3007.930000 523.771000 1 1.000000 1 -3.000000
61 2 802.421000 -3000.070000 520.625000 1 1.000000 1 -3.000000
62 2 808.063000 -2992.500000 517.616000 1 1.000000 1 -3.000000
63 2 814.704000 -2985.940000 514.504000 1 1.000000 1 -3.000000
64 2 821.089000 -2979.790000 510.013000 1 1.000000 1 -3.000000
65 2 825.926000 -2971.590000 507.162000 1 1.000000 1 -3.000000
66 2 830.879000 -2963.140000 505.961000 1 1.000000 1 -3.000000
67 2 837.379000 -2955.940000 507.730000 1 1.000000 1 -3.000000
68 2 843.220000 -2947.820000 508.075000 1 1.000000 1 -3.000000
69 2 847.510000 -2938.880000 507.751000 1 1.000000 1 -3.000000
70 2 849.661000 -2929.910000 511.197000 1 1.000000 1 -3.000000
71 2 850.926000 -2920.480000 514.015000 1 1.000000 1 -3.000000
72 2 852.279000 -2911.950000 518.524000 1 1.000000 1 -3.000000
73 2 854.897000 -2903.920000 523.629000 1 1.000000 1 -3.000000
74 2 859.489000 -2895.610000 526.448000 1 1.000000 1 -3.000000
75 2 862.747000 -2886.310000 527.295000 1 1.000000 4 -3.000000
76 1 821.581000 -2865.700000 516.940000 1 1.000000 4 0.000000
77 3 812.444000 -2898.690000 524.419000 1 1.000000 4 0.000000
78 2 774.807000 -2865.620000 510.876000 1 1.000000 4 -3.000000
79 2 772.712000 -2875.280000 509.583000 1 1.000000 1 -3.000000
80 2 773.767000 -2885.210000 508.891000 1 1.000000 1 -3.000000
81 2 772.638000 -2894.920000 507.627000 1 1.000000 1 -3.000000
82 2 770.595000 -2904.560000 509.128000 1 1.000000 1 -3.000000
83 2 766.421000 -2913.060000 512.032000 1 1.000000 1 -3.000000
84 2 761.363000 -2921.550000 512.204000 1 1.000000 1 -3.000000
85 2 755.504000 -2929.280000 509.646000 1 1.000000 1 -3.000000
86 2 750.085000 -2937.290000 511.028000 1 1.000000 1 -3.000000
87 2 743.493000 -2944.550000 512.483000 1 1.000000 1 -3.000000
88 2 736.276000 -2951.250000 511.681000 1 1.000000 1 -3.000000
89 2 728.096000 -2956.680000 510.834000 1 1.000000 1 -3.000000
90 2 720.303000 -2962.120000 508.139000 1 1.000000 1 -3.000000
91 2 712.535000 -2965.360000 502.788000 1 1.000000 1 -3.000000
92 2 703.432000 -2968.210000 500.211000 1 1.000000 1 -3.000000
93 2 694.379000 -2970.740000 497.333000 1 1.000000 1 -3.000000
94 2 684.729000 -2972.340000 497.943000 1 1.000000 1 -3.000000
95 2 675.503000 -2971.700000 501.720000 1 1.000000 1 -3.000000
96 2 665.727000 -2970.870000 502.640000 1 1.000000 1 -3.000000
97 2 656.190000 -2971.440000 504.682000 1 1.000000 1 -3.000000
98 2 646.621000 -2972.480000 507.093000 1 1.000000 1 -3.000000
99 2 637.116000 -2974.480000 508.928000 1 1.000000 1 -3.000000
100 2 627.870000 -2977.550000 509.973000 1 1.000000 1 -3.000000
101 2 618.686000 -2981.520000 510.872000 1 1.000000 1 -3.000000
102 2 609.477000 -2984.980000 511.731000 1 1.000000 5 -3.000000
103 1 597.187000 -2940.130000 519.695000 1 1.000000 5 0.000000
104 3 617.178000 -2938.000000 491.207000 1 1.000000 5 0.000000
105 2 599.670000 -2893.690000 512.039000 1 1.000000 5 -3.000000
106 2 602.061000 -2894.540000 502.420000 1 1.000000 1 -3.000000
107 2 606.023000 -2897.040000 493.651000 1 1.000000 1 -3.000000
108 2 608.414000 -2898.380000 484.062000 1 1.000000 1 -3.000000
109 2 611.009000 -2898.520000 474.485000 1 1.000000 1 -3.000000
110 2 616.140000 -2900.690000 466.254000 1 1.000000 1 -3.000000
111 2 621.458000 -2903.370000 458.284000 1 1.000000 1 -3.000000
112 2 627.696000 -2903.010000 450.682000 1 1.000000 1 -3.000000
113 2 631.509000 -2898.230000 442.922000 1 1.000000 1 -3.000000
114 2 636.743000 -2896.140000 434.914000 1 1.000000 1 -3.000000
115 2 642.235000 -2892.330000 427.627000 1 1.000000 1 -3.000000
116 2 648.170000 -2890.730000 419.951000 1 1.000000 1 -3.000000
117 2 653.092000 -2887.480000 411.886000 1 1.000000 1 -3.000000
118 2 658.518000 -2887.460000 403.598000 1 1.000000 1 -3.000000
119 2 664.467000 -2886.900000 395.628000 1 1.000000 1 -3.000000
120 2 669.492000 -2883.520000 387.769000 1 1.000000 1 -3.000000
121 2 673.582000 -2879.200000 379.839000 1 1.000000 1 -3.000000
122 2 673.661000 -2874.110000 371.389000 1 1.000000 1 -3.000000
123 2 671.566000 -2870.330000 362.555000 1 1.000000 1 -3.000000
124 2 669.697000 -2869.140000 352.978000 1 1.000000 1 -3.000000
125 2 671.181000 -2870.120000 343.372000 1 1.000000 1 -3.000000
126 2 672.542000 -2871.530000 333.545000 1 1.000000 1 -3.000000
127 2 675.578000 -2875.010000 324.759000 1 1.000000 1 -3.000000
128 2 675.992000 -2877.620000 315.262000 1 1.000000 1 -3.000000
129 2 676.347000 -2882.990000 307.072000 1 1.000000 6 -3.000000
130 1 714.502000 -2908.510000 317.893000 1 1.000000 6 0.000000
131 3 700.364000 -2901.490000 349.186000 1 1.000000 6 0.000000
132 2 743.768000 -2930.000000 347.888000 1 1.000000 6 -3.000000
133 2 738.726000 -2925.490000 355.032000 1 1.000000 1 -3.000000
134 2 733.315000 -2921.090000 361.992000 1 1.000000 1 -3.000000
135 2 725.697000 -2917.330000 366.878000 1 1.000000 1 -3.000000
136 2 716.771000 -2917.240000 371.161000 1 1.000000 1 -3.000000
137 2 709.853000 -2920.960000 377.152000 1 1.000000 1 -3.000000
138 2 702.507000 -2925.720000 381.723000 1 1.000000 1 -3.000000
139 2 695.614000 -2929.280000 387.902000 1 1.000000 1 -3.000000
140 2 686.889000 -2931.480000 392.214000 1 1.000000 1 -3.000000
141 2 678.101000 -2935.760000 394.453000 1 1.000000 1 -3.000000
142 2 669.441000 -2939.980000 391.816000 1 1.000000 1 -3.000000
143 2 661.003000 -2944.920000 390.499000 1 1.000000 1 -3.000000
144 2 651.980000 -2948.820000 389.020000 1 1.000000 1 -3.000000
145 2 642.956000 -2951.460000 386.152000 1 1.000000 1 -3.000000
146 2 634.403000 -2956.110000 384.291000 1 1.000000 1 -3.000000
147 2 627.782000 -2960.640000 378.378000 1 1.000000 1 -3.000000
148 2 622.059000 -2964.880000 371.340000 1 1.000000 1 -3.000000
149 2 619.134000 -2968.730000 362.650000 1 1.000000 1 -3.000000
150 2 620.946000 -2974.080000 354.472000 1 1.000000 1 -3.000000
151 2 620.134000 -2979.400000 346.265000 1 1.000000 1 -3.000000
152 2 621.380000 -2985.800000 338.854000 1 1.000000 1 -3.000000
153 2 627.632000 -2990.150000 332.522000 1 1.000000 1 -3.000000
154 2 630.945000 -2992.910000 323.606000 1 1.000000 1 -3.000000
155 2 632.705000 -2996.950000 314.721000 1 1.000000 1 -3.000000
156 2 634.686000 -2995.530000 305.189000 1 1.000000 7 -3.000000
157 1 676.729000 -3013.660000 293.833000 1 1.000000 7 0.000000
158 3 662.566000 -3038.350000 314.287000 1 1.000000 7 0.000000
159 2 709.705000 -3047.350000 294.233000 1 1.000000 7 -3.000000
160 2 703.459000 -3051.090000 300.786000 1 1.000000 1 -3.000000
161 2 698.403000 -3054.660000 308.578000 1 1.000000 1 -3.000000
162 2 691.411000 -3058.580000 314.492000 1 1.000000 1 -3.000000
163 2 682.714000 -3060.330000 318.754000 1 1.000000 1 -3.000000
164 2 675.595000 -3066.680000 321.468000 1 1.000000 1 -3.000000
165 2 671.786000 -3072.000000 328.955000 1 1.000000 1 -3.000000
166 2 667.549000 -3076.820000 336.480000 1 1.000000 1 -3.000000
167 2 660.671000 -3078.870000 343.274000 1 1.000000 1 -3.000000
168 2 652.352000 -3077.250000 348.531000 1 1.000000 1 -3.000000
169 2 643.421000 -3075.460000 352.471000 1 1.000000 1 -3.000000
170 2 634.504000 -3073.500000 356.106000 1 1.000000 1 -3.000000
171 2 625.493000 -3070.620000 359.452000 1 1.000000 1 -3.000000
172 2 616.621000 -3067.020000 361.952000 1 1.000000 1 -3.000000
173 2 609.112000 -3061.970000 366.267000 1 1.000000 1 -3.000000
174 2 601.189000 -3061.210000 372.300000 1 1.000000 1 -3.000000
175 2 594.166000 -3059.040000 378.984000 1 1.000000 1 -3.000000
176 2 587.293000 -3059.420000 386.107000 1 1.000000 1 -3.000000
177 2 578.976000 -3062.260000 390.548000 1 1.000000 1 -3.000000
178 2 569.648000 -3065.380000 392.009000 1 1.000000 1 -3.000000
179 2 562.414000 -3071.510000 394.299000 1 1.000000 1 -3.000000
180 2 555.763000 -3078.270000 397.069000 1 1.000000 1 -3.000000
181 2 549.309000 -3085.400000 399.079000 1 1.000000 1 -3.000000
182 2 543.474000 -3093.170000 400.736000 1 1.000000 1 -3.000000
183 2 536.659000 -3100.230000 402.228000 1 1.000000 8 -3.000000
184 1 502.754000 -3072.040000 419.208000 1 1.000000 8 0.000000
185 3 522.005000 -3050.480000 399.398000 1 1.000000 8 0.000000
186 2 478.339000 -3031.810000 420.486000 1 1.000000 8 -3.000000
187 2 485.063000 -3027.160000 415.032000 1 1.000000 1 -3.000000
188 2 492.349000 -3022.350000 410.491000 1 1.000000 1 -3.000000
189 2 496.817000 -3015.500000 404.641000 1 1.000000 1 -3.000000
190 2 501.270000 -3008.350000 399.566000 1 1.000000 1 -3.000000
191 2 507.750000 -3001.330000 396.454000 1 1.000000 1 -3.000000
192 2 514.846000 -2994.850000 393.891000 1 1.000000 1 -3.000000
193 2 520.216000 -2986.550000 393.573000 1 1.000000 1 -3.000000
194 2 525.871000 -2978.440000 393.089000 1 1.000000 1 -3.000000
195 2 531.178000 -2970.270000 391.577000 1 1.000000 1 -3.000000
196 2 535.474000 -2961.470000 392.486000 1 1.000000 1 -3.000000
197 2 540.306000 -2952.690000 393.263000 1 1.000000 1 -3.000000
198 2 541.812000 -2943.030000 391.502000 1 1.000000 1 -3.000000
199 2 541.106000 -2934.130000 387.067000 1 1.000000 1 -3.000000
200 2 541.573000 -2924.330000 385.671000 1 1.000000 1 -3.000000
201 2 541.710000 -2914.530000 385.604000 1 1.000000 1 -3.000000
202 2 542.865000 -2904.780000 384.940000 1 1.000000 1 -3.000000
203 2 542.826000 -2895.190000 382.576000 1 1.000000 1 -3.000000
204 2 543.489000 -2885.590000 380.098000 1 1.000000 1 -3.000000
205 2 541.454000 -2875.900000 379.592000 1 1.000000 1 -3.000000
206 2 541.982000 -2866.050000 379.890000 1 1.000000 1 -3.000000
207 2 540.920000 -2856.100000 379.758000 1 1.000000 1 -3.000000
208 2 540.619000 -2846.260000 379.697000 1 1.000000 1 -3.000000
209 2 540.899000 -2836.790000 382.617000 1 1.000000 1 -3.000000
210 2 543.850000 -2827.590000 384.742000 1 1.000000 9 -3.000000
211 1 506.045000 -2819.690000 357.720000 1 1.000000 9 0.000000
212 3 502.001000 -2853.010000 367.700000 1 1.000000 9 0.000000
213 2 466.585000 -2832.750000 335.345000 1 1.000000 9 -3.000000
214 2 463.411000 -2840.190000 341.013000 1 1.000000 1 -3.000000
215 2 458.875000 -2847.970000 345.183000 1 1.000000 1 -3.000000
216 2 458.088000 -2856.760000 349.855000 1 1.000000 1 -3.000000
217 2 459.167000 -2865.170000 355.024000 1 1.000000 1 -3.000000
218 2 460.812000 -2872.740000 360.879000 1 1.000000 1 -3.000000
219 2 463.633000 -2879.030000 368.014000 1 1.000000 1 -3.000000
220 2 468.426000 -2882.520000 375.809000 1 1.000000 1 -3.000000
221 2 471.706000 -2886.440000 384.076000 1 1.000000 1 -3.000000
222 2 477.202000 -2888.900000 391.928000 1 1.000000 1 -3.000000
223 2 481.174000 -2888.550000 400.935000 1 1.000000 1 -3.000000
224 2 482.674000 -2891.210000 410.384000 1 1.000000 1 -3.000000
225 2 480.433000 -2894.240000 419.638000 1 1.000000 1 -3.000000
226 2 480.587000 -2895.060000 429.540000 1 1.000000 1 -3.000000
227 2 482.749000 -2894.560000 439.130000 1 1.000000 1 -3.000000
228 2 478.623000 -2895.380000 448.067000 1 1.000000 1 -3.000000
229 2 473.057000 -2898.460000 455.729000 1 1.000000 1 -3.000000
230 2 470.153000 -2903.670000 463.558000 1 1.000000 1 -3.000000
231 2 465.164000 -2908.770000 470.504000 1 1.000000 1 -3.000000
232 2 458.446000 -2912.800000 476.727000 1 1.000000 1 -3.000000
233 2 451.368000 -2916.470000 482.543000 1 1.000000 1 -3.000000
234 2 447.984000 -2923.140000 489.035000 1 1.000000 1 -3.000000
235 2 441.471000 -2929.870000 492.410000 1 1.000000 1 -3.000000
236 2 434.530000 -2936.680000 494.325000 1 1.000000 1 -3.000000
237 2 428.254000 -2942.730000 498.969000 1 1.000000 10 -3.000000
238 1 407.909000 -2900.640000 492.433000 1 1.000000 10 0.000000
239 3 439.977000 -2896.390000 478.616000 1 1.000000 10 0.000000
240 2 407.205000 -2856.020000 477.191000 1 1.000000 10 -3.000000
241 2 415.639000 -2859.680000 473.667000 1 1.000000 1 -3.000000
242 2 424.251000 -2862.730000 469.887000 1 1.000000 1 -3.000000
243 2 434.103000 -2862.660000 471.077000 1 1.000000 1 -3.000000
244 2 444.013000 -2862.950000 471.964000 1 1.000000 1 -3.000000
245 2 453.393000 -2860.410000 473.736000 1 1.000000 1 -3.000000
246 2 462.814000 -2857.040000 472.329000 1 1.000000 1 -3.000000
247 2 469.028000 -2850.980000 467.226000 1 1.000000 1 -3.000000
248 2 475.169000 -2845.880000 461.351000 1 1.000000 1 -3.000000
249 2 482.748000 -2841.150000 457.121000 1 1.000000 1 -3.000000
250 2 491.517000 -2838.740000 453.131000 1 1.000000 1 -3.000000
251 2 500.549000 -2837.460000 449.195000 1 1.000000 1 -3.000000
252 2 509.297000 -2838.110000 444.556000 1 1.000000 1 -3.000000
253 2 517.539000 -2839.650000 439.204000 1 1.000000 1 -3.000000
254 2 525.557000 -2841.710000 433.839000 1 1.000000 1 -3.000000
255 2 533.201000 -2841.850000 427.376000 1 1.000000 1 -3.000000
256 2 541.248000 -2838.240000 423.040000 1 1.000000 1 -3.000000
257 2 548.673000 -2834.890000 417.484000 1 1.000000 1 -3.000000
258 2 555.498000 -2833.260000 410.261000 1 1.000000 1 -3.000000
259 2 563.524000 -2832.440000 404.524000 1 1.000000 1 -3.000000
260 2 571.894000 -2831.150000 399.251000 1 1.000000 1 -3.000000
261 2 579.797000 -2830.070000 393.301000 1 1.000000 1 -3.000000
262 2 587.198000 -2828.110000 386.969000 1 1.000000 1 -3.000000
263 2 593.565000 -2828.130000 379.390000 1 1.000000 1 -3.000000
264 2 597.261000 -2829.940000 370.372000 1 1.000000 11 -3.000000
265 1 622.186000 -2790.360000 376.441000 1 1.000000 11 0.000000
266 3 602.672000 -2792.100000 405.498000 1 1.000000 11 0.000000
267 2 633.329000 -2750.610000 399.450000 1 1.000000 11 -3.000000
268 2 630.182000 -2752.890000 408.529000 1 1.000000 1 -3.000000
269 2 625.965000 -2755.960000 417.080000 1 1.000000 1 -3.000000
270 2 621.839000 -2757.690000 425.895000 1 1.000000 1 -3.000000
271 2 618.354000 -2761.960000 434.175000 1 1.000000 1 -3.000000
272 2 615.756000 -2768.300000 441.208000 1 1.000000 1 -3.000000
273 2 614.550000 -2775.700000 447.738000 1 1.000000 1 -3.000000
274 2 615.771000 -2782.260000 455.063000 1 1.000000 1 -3.000000
275 2 619.501000 -2783.470000 464.107000 1 1.000000 1 -3.000000
276 2 621.920000 -2788.600000 472.096000 1 1.000000 1 -3.000000
277 2 625.428000 -2789.090000 481.222000 1 1.000000 1 -3.000000
278 2 628.071000 -2787.480000 490.583000 1 1.000000 1 -3.000000
279 2 629.132000 -2781.870000 498.605000 1 1.000000 1 -3.000000
280 2 634.712000 -2779.700000 506.432000 1 1.000000 1 -3.000000
281 2 639.556000 -2775.790000 514.191000 1 1.000000 1 -3.000000
282 2 647.526000 -2775.590000 520.092000 1 1.000000 1 -3.000000
283 2 656.254000 -2779.430000 522.872000 1 1.000000 1 -3.000000
284 2 664.718000 -2780.000000 527.594000 1 1.000000 1 -3.000000
285 2 671.563000 -2781.050000 534.597000 1 1.000000 1 -3.000000
286 2 677.153000 -2783.980000 542.122000 1 1.000000 1 -3.000000
287 2 683.409000 -2788.340000 548.485000 1 1.000000 1 -3.000000
288 2 690.975000 -2792.130000 553.929000 1 1.000000 1 -3.000000
289 2 699.018000 -2797.760000 552.694000 1 1.000000 1 -3.000000
290 2 707.389000 -2802.650000 553.261000 1 1.000000 1 -3.000000
291 2 714.858000 -2808.840000 551.594000 1 1.000000 12 -3.000000
292 1 740.608000 -2793.280000 515.267000 1 1.000000 12 0.000000
293 3 711.547000 -2773.960000 513.314000 1 1.000000 12 0.000000
294 2 747.963000 -2766.760000 476.875000 1 1.000000 12 -3.000000
295 2 741.332000 -2759.570000 477.510000 1 1.000000 1 -3.000000
296 2 733.539000 -2753.320000 478.107000 1 1.000000 1 -3.000000
297 2 725.583000 -2747.510000 478.827000 1 1.000000 1 -3.000000
298 2 717.008000 -2742.880000 480.007000 1 1.000000 1 -3.000000
299 2 709.368000 -2736.640000 480.962000 1 1.000000 1 -3.000000
300 2 701.653000 -2730.390000 479.836000 1 1.000000 1 -3.000000
301 2 696.760000 -2721.850000 481.425000 1 1.000000 1 -3.000000
302 2 692.733000 -2713.060000 483.641000 1 1.000000 1 -3.000000
303 2 690.959000 -2704.480000 488.221000 1 1.000000 1 -3.000000
304 2 690.669000 -2695.500000 492.498000 1 1.000000 1 -3.000000
305 2 689.603000 -2686.850000 497.196000 1 1.000000 1 -3.000000
306 2 692.198000 -2677.660000 499.600000 1 1.000000 1 -3.000000
307 2 696.641000 -2670.210000 504.233000 1 1.000000 1 -3.000000
308 2 699.011000 -2662.700000 510.389000 1 1.000000 1 -3.000000
309 2 703.491000 -2658.030000 517.935000 1 1.000000 1 -3.000000
310 2 709.580000 -2651.830000 522.576000 1 1.000000 1 -3.000000
311 2 715.380000 -2644.190000 525.130000 1 1.000000 1 -3.000000
312 2 721.934000 -2638.230000 529.539000 1 1.000000 1 -3.000000
313 2 730.252000 -2634.130000 532.919000 1 1.000000 1 -3.000000
314 2 739.415000 -2631.150000 534.953000 1 1.000000 1 -3.000000
315 2 749.089000 -2631.850000 536.478000 1 1.000000 1 -3.000000
316 2 758.713000 -2630.550000 538.265000 1 1.000000 1 -3.000000
317 2 766.759000 -2629.880000 543.920000 1 1.000000 1 -3.000000
318 2 775.162000 -2627.470000 548.515000 1 1.000000 13 -3.000000
319 1 800.159000 -2626.960000 508.453000 1 1.000000 13 0.000000
320 3 768.642000 -2638.160000 498.167000 1 1.000000 13 0.000000
321 2 806.636000 -2636.890000 462.764000 1 1.000000 13 -3.000000
322 2 797.882000 -2641.360000 462.769000 1 1.000000 1 -3.000000
323 2 788.505000 -2643.770000 460.688000 1 1.000000 1 -3.000000
324 2 779.901000 -2645.890000 456.038000 1 1.000000 1 -3.000000
325 2 770.385000 -2647.670000 454.860000 1 1.000000 1 -3.000000
326 2 761.567000 -2648.640000 450.373000 1 1.000000 1 -3.000000
327 2 753.352000 -2649.950000 445.116000 1 1.000000 1 -3.000000
328 2 744.422000 -2650.600000 440.980000 1 1.000000 1 -3.000000
329 2 736.807000 -2652.930000 434.922000 1 1.000000 1 -3.000000
330 2 730.433000 -2657.400000 428.698000 1 1.000000 1 -3.000000
331 2 721.739000 -2657.220000 423.950000 1 1.000000 1 -3.000000
332 2 713.993000 -2654.000000 418.712000 1 1.000000 1 -3.000000
333 2 709.199000 -2650.810000 410.586000 1 1.000000 1 -3.000000
334 2 703.264000 -2645.730000 404.476000 1 1.000000 1 -3.000000
335 2 699.801000 -2644.350000 395.346000 1 1.000000 1 -3.000000
336 2 694.742000 -2642.890000 386.863000 1 1.000000 1 -3.000000
337 2 686.367000 -2640.520000 382.088000 1 1.000000 1 -3.000000
338 2 677.447000 -2638.250000 378.362000 1 1.000000 1 -3.000000
339 2 670.832000 -2635.430000 371.610000 1 1.000000 1 -3.000000
340 2 663.744000 -2631.150000 366.135000 1 1.000000 1 -3.000000
341 2 657.759000 -2627.910000 358.927000 1 1.000000 1 -3.000000
342 2 651.470000 -2625.870000 351.559000 1 1.000000 1 -3.000000
343 2 645.072000 -2621.360000 345.448000 1 1.000000 1 -3.000000
344 2 641.845000 -2618.930000 336.517000 1 1.000000 1 -3.000000
345 2 641.116000 -2619.990000 326.824000 1 1.000000 14 -3.000000
346 1 639.284000 -2572.990000 322.432000 1 1.000000 14 0.000000
347 3 642.785000 -2577.600000 356.856000 1 1.000000 14 0.000000
348 2 635.120000 -2529.250000 339.603000 1 1.000000 14 -3.000000
349 2 629.135000 -2531.810000 346.961000 1 1.000000 1 -3.000000
350 2 623.831000 -2536.340000 354.084000 1 1.000000 1 -3.000000
351 2 619.615000 -2537.310000 363.016000 1 1.000000 1 -3.000000
352 2 614.328000 -2535.720000 371.035000 1 1.000000 1 -3.000000
353 2 609.056000 -2533.470000 379.031000 1 1.000000 1 -3.000000
354 2 605.018000 -2533.190000 388.128000 1 1.000000 1 -3.000000
355 2 602.334000 -2536.710000 396.969000 1 1.000000 1 -3.000000
356 2 600.661000 -2539.890000 406.261000 1 1.000000 1 -3.000000
357 2 597.115000 -2539.830000 415.452000 1 1.000000 1 -3.000000
358 2 591.981000 -2537.580000 423.564000 1 1.000000 1 -3.000000
359 2 584.031000 -2535.820000 429.404000 1 1.000000 1 -3.000000
360 2 575.737000 -2537.240000 434.385000 1 1.000000 1 -3.000000
361 2 567.521000 -2539.650000 439.123000 1 1.000000 1 -3.000000
362 2 558.687000 -2539.370000 443.823000 1 1.000000 1 -3.000000
363 2 550.374000 -2539.660000 449.107000 1 1.000000 1 -3.000000
364 2 543.501000 -2542.980000 455.334000 1 1.000000 1 -3.000000
365 2 535.476000 -2546.090000 460.242000 1 1.000000 1 -3.000000
366 2 527.245000 -2548.650000 465.295000 1 1.000000 1 -3.000000
367 2 521.509000 -2551.150000 472.999000 1 1.000000 1 -3.000000
368 2 515.045000 -2555.820000 478.916000 1 1.000000 1 -3.000000
369 2 511.413000 -2558.640000 487.747000 1 1.000000 1 -3.000000
370 2 506.437000 -2561.100000 495.874000 1 1.000000 1 -3.000000
371 2 502.632000 -2567.310000 502.560000 1 1.000000 1 -3.000000
372 2 499.119000 -2573.610000 509.272000 1 1.000000 15 -3.000000
373 1 487.299000 -2616.430000 493.291000 1 1.000000 15 0.000000
374 3 495.780000 -2599.120000 464.153000 1 1.000000 15 0.000000
375 2 480.949000 -2648.610000 459.444000 1 1.000000 15 -3.000000
376 2 483.591000 -2642.760000 451.821000 1 1.000000 1 -3.000000
377 2 489.005000 -2639.320000 444.256000 1 1.000000 1 -3.000000
378 2 489.242000 -2633.770000 436.068000 1 1.000000 1 -3.000000
379 2 491.662000 -2627.880000 428.518000 1 1.000000 1 -3.000000
380 2 494.909000 -2619.970000 423.433000 1 1.000000 1 -3.000000
381 2 498.228000 -2611.250000 419.974000 1 1.000000 1 -3.000000
382 2 497.564000 -2601.400000 419.010000 1 1.000000 1 -3.000000
383 2 493.126000 -2592.800000 416.993000 1 1.000000 1 -3.000000
384 2 490.094000 -2583.410000 416.615000 1 1.000000 1 -3.000000
385 2 486.447000 -2574.310000 417.418000 1 1.000000 1 -3.000000
386 2 481.802000 -2565.520000 417.707000 1 1.000000 1 -3.000000
387 2 475.218000 -2558.260000 418.435000 1 1.000000 1 -3.000000
388 2 466.717000 -2553.340000 416.677000 1 1.000000 1 -3.000000
389 2 456.950000 -2551.850000 416.682000 1 1.000000 1 -3.000000
390 2 448.097000 -2547.890000 415.180000 1 1.000000 1 -3.000000
391 2 440.388000 -2541.780000 414.253000 1 1.000000 1 -3.000000
392 2 433.824000 -2534.650000 413.125000 1 1.000000 1 -3.000000
393 2 427.449000 -2528.260000 409.225000 1 1.000000 1 -3.000000
394 2 420.354000 -2525.490000 403.016000 1 1.000000 1 -3.000000
395 2 414.583000 -2522.660000 395.459000 1 1.000000 1 -3.000000
396 2 407.826000 -2519.670000 388.831000 1 1.000000 1 -3.000000
397 2 400.504000 -2515.510000 383.647000 1 1.000000 1 -3.000000
398 2 392.586000 -2513.640000 378.001000 1 1.000000 1 -3.000000
399 2 383.591000 -2513.950000 374.005000 1 1.000000 16 -3.000000
400 1 368.397000 -2540.980000 409.518000 1 1.000000 16 0.000000
401 3 401.545000 -2533.740000 418.408000 1 1.000000 16 0.000000
402 2 372.192000 -2559.930000 452.540000 1 1.000000 16 -3.000000
403 2 377.684000 -2552.770000 456.318000 1 1.000000 1 -3.000000
404 2 384.503000 -2546.180000 458.922000 1 1.000000 1 -3.000000
405 2 389.958000 -2538.570000 462.149000 1 1.000000 1 -3.000000
406 2 396.899000 -2531.900000 464.391000 1 1.000000 1 -3.000000
407 2 403.167000 -2524.310000 463.284000 1 1.000000 1 -3.000000
408 2 407.993000 -2515.780000 464.929000 1 1.000000 1 -3.000000
409 2 410.066000 -2506.250000 466.832000 1 1.000000 1 -3.000000
410 2 412.207000 -2496.840000 469.164000 1 1.000000 1 -3.000000
411 2 412.298000 -2486.920000 469.090000 1 1.000000 1 -3.000000
412 2 412.167000 -2476.900000 468.191000 1 1.000000 1 -3.000000
413 2 410.600000 -2467.410000 466.292000 1 1.000000 1 -3.000000
414 2 409.403000 -2458.540000 461.950000 1 1.000000 1 -3.000000
415 2 406.809000 -2449.710000 458.083000 1 1.000000 1 -3.000000
416 2 403.651000 -2442.210000 452.521000 1 1.000000 1 -3.000000
417 2 401.496000 -2433.840000 447.590000 1 1.000000 1 -3.000000
418 2 400.370000 -2424.890000 443.540000 1 1.000000 1 -3.000000
419 2 401.092000 -2416.340000 438.504000 1 1.000000 1 -3.000000
420 2 398.912000 -2408.180000 433.592000 1 1.000000 1 -3.000000
421 2 396.451000 -2400.400000 427.861000 1 1.000000 1 -3.000000
422 2 398.267000 -2392.490000 422.300000 1 1.000000 1 -3.000000
423 2 402.820000 -2385.290000 417.665000 1 1.000000 1 -3.000000
424 2 403.853000 -2376.630000 412.926000 1 1.000000 1 -3.000000
425 2 406.643000 -2370.290000 405.934000 1 1.000000 1 -3.000000
426 2 410.293000 -2363.260000 400.035000 1 1.000000 17 -3.000000
427 1 370.652000 -2338.130000 405.598000 1 1.000000 17 0.000000
428 3 372.301000 -2357.180000 434.974000 1 1.000000 17 0.000000
429 2 331.413000 -2325.920000 428.687000 1 1.000000 17 -3.000000
430 2 335.139000 -2329.170000 437.289000 1 1.000000 1 -3.000000
431 2 336.520000 -2333.580000 446.059000 1 1.000000 1 -3.000000
432 2 340.648000 -2334.840000 454.915000 1 1.000000 1 -3.000000
433 2 343.736000 -2337.830000 463.743000 1 1.000000 1 -3.000000
434 2 347.122000 -2344.910000 469.852000 1 1.000000 1 -3.000000
435 2 353.922000 -2346.190000 477.087000 1 1.000000 1 -3.000000
436 2 359.357000 -2349.470000 484.676000 1 1.000000 1 -3.000000
437 2 366.387000 -2350.900000 491.651000 1 1.000000 1 -3.000000
438 2 373.132000 -2351.100000 498.975000 1 1.000000 1 -3.000000
439 2 379.453000 -2351.470000 506.643000 1 1.000000 1 -3.000000
440 2 384.491000 -2354.690000 514.495000 1 1.000000 1 -3.000000
441 2 388.488000 -2360.570000 521.426000 1 1.000000 1 -3.000000
442 2 391.239000 -2366.110000 528.957000 1 1.000000 1 -3.000000
443 2 394.977000 -2373.460000 534.556000 1 1.000000 1 -3.000000
444 2 399.886000 -2379.510000 540.603000 1 1.000000 1 -3.000000
445 2 403.476000 -2385.010000 548.174000 1 1.000000 1 -3.000000
446 2 405.117000 -2392.380000 554.597000 1 1.000000 1 -3.000000
447 2 404.318000 -2401.190000 559.227000 1 1.000000 1 -3.000000
448 2 405.619000 -2409.520000 564.209000 1 1.000000 1 -3.000000
449 2 405.442000 -2418.680000 567.618000 1 1.000000 1 -3.000000
450 2 406.899000 -2427.030000 572.575000 1 1.000000 1 -3.000000
451 2 408.063000 -2433.970000 579.506000 1 1.000000 1 -3.000000
452 2 409.515000 -2437.470000 588.569000 1 1.000000 1 -3.000000
453 2 412.032000 -2443.100000 596.297000 1 1.000000 18 -3.000000
454 1 453.647000 -2444.410000 574.161000 1 1.000000 18 0.000000
455 3 433.945000 -2425.170000 552.681000 1 1.000000 18 0.000000
456 2 483.273000 -2433.160000 539.312000 1 1.000000 18 -3.000000
457 2 478.647000 -2424.430000 539.261000 1 1.000000 1 -3.000000
458 2 472.808000 -2416.810000 541.268000 1 1.000000 1 -3.000000
459 2 469.214000 -2407.570000 542.419000 1 1.000000 1 -3.000000
460 2 464.324000 -2399.650000 538.942000 1 1.000000 1 -3.000000
461 2 460.737000 -2391.370000 534.865000 1 1.000000 1 -3.000000
462 2 458.343000 -2383.330000 529.529000 1 1.000000 1 -3.000000
463 2 457.010000 -2375.470000 523.506000 1 1.000000 1 -3.000000
464 2 456.974000 -2367.420000 517.624000 1 1.000000 1 -3.000000
465 2 455.506000 -2363.000000 508.907000 1 1.000000 1 -3.000000