LAMMPS data file

4067 atoms
4067 ellipsoids
4516 bonds
8882 angles
0 dihedrals

3 atom types
5 bond types
12 angle types
0 dihedral types

-4631.092947 4670.465898 xlo xhi
-4631.092947 4670.465898 ylo yhi
-4631.092947 4670.465898 zlo zhi

Masses

1 196016.000000
2 1950.000000
3 19500.000000

Atoms

1 2 544.226000 -3095.010000 776.106000 1 1.000000 1 -3.000000
2 2 549.214000 -3101.570000 770.578000 1 1.000000 1 -3.000000
3 2 554.302000 -3109.060000 766.630000 1 1.000000 1 -3.000000
4 2 559.484000 -3117.380000 765.451000 1 1.000000 1 -3.000000
5 2 563.043000 -3126.670000 765.771000 1 1.000000 1 -3.000000
6 2 566.671000 -3135.140000 769.103000 1 1.000000 1 -3.000000
7 2 572.751000 -3142.790000 771.166000 1 1.000000 1 -3.000000
8 2 580.246000 -3149.340000 771.379000 1 1.000000 1 -3.000000
9 2 588.965000 -3153.660000 770.183000 1 1.000000 1 -3.000000
10 2 595.711000 -3160.060000 766.617000 1 1.000000 1 -3.000000
11 2 598.545000 -3168.090000 761.689000 1 1.000000 1 -3.000000
12 2 602.681000 -3173.090000 754.291000 1 1.000000 1 -3.000000
13 2 605.939000 -3178.040000 746.385000 1 1.000000 1 -3.000000
14 2 611.907000 -3182.510000 740.012000 1 1.000000 1 -3.000000
15 2 615.557000 -3190.070000 734.675000 1 1.000000 1 -3.000000
16 2 616.093000 -3197.150000 727.910000 1 1.000000 1 -3.000000
17 2 613.418000 -3203.020000 720.331000 1 1.000000 1 -3.000000
18 2 612.580000 -3208.710000 712.379000 1 1.000000 1 -3.000000
19 2 610.559000 -3215.160000 705.251000 1 1.000000 1 -3.000000
20 2 609.634000 -3223.400000 699.766000 1 1.000000 1 -3.000000
21 2 607.835000 -3232.290000 695.924000 1 1.000000 2 -3.000000
22 1 603.253000 -3231.410000 648.945000 1 1.000000 2 0.000000
23 3 623.627000 -3203.760000 655.823000 1 1.000000 2 0.000000
24 2 611.926000 -3213.780000 606.053000 1 1.000000 2 -3.000000
25 2 616.690000 -3206.520000 610.963000 1 1.000000 1 -3.000000
26 2 621.936000 -3200.460000 616.664000 1 1.000000 1 -3.000000
27 2 629.937000 -3196.800000 621.108000 1 1.000000 1 -3.000000
28 2 638.904000 -3192.710000 622.346000 1 1.000000 1 -3.000000
29 2 648.103000 -3188.990000 623.495000 1 1.000000 1 -3.000000
30 2 657.445000 -3185.770000 623.604000 1 1.000000 1 -3.000000
31 2 666.532000 -3181.920000 624.469000 1 1.000000 1 -3.000000
32 2 675.110000 -3181.010000 629.375000 1 1.000000 1 -3.000000
33 2 683.532000 -3178.950000 634.055000 1 1.000000 1 -3.000000
34 2 692.252000 -3175.680000 637.384000 1 1.000000 1 -3.000000
35 2 700.816000 -3173.230000 641.844000 1 1.000000 1 -3.000000
36 2 707.463000 -3170.490000 648.633000 1 1.000000 1 -3.000000
37 2 713.256000 -3168.930000 656.495000 1 1.000000 1 -3.000000
38 2 719.255000 -3167.410000 664.331000 1 1.000000 1 -3.000000
39 2 722.462000 -3166.940000 673.671000 1 1.000000 1 -3.000000
40 2 723.385000 -3168.990000 683.288000 1 1.000000 1 -3.000000
41 2 724.439000 -3170.290000 693.073000 1 1.000000 1 -3.000000
42 2 724.273000 -3174.560000 701.870000 1 1.000000 1 -3.000000
43 2 723.479000 -3177.610000 711.227000 1 1.000000 1 -3.000000
44 2 722.944000 -3181.650000 720.134000 1 1.000000 1 -3.000000
45 2 723.555000 -3184.090000 729.773000 1 1.000000 1 -3.000000
46 2 726.008000 -3189.110000 738.092000 1 1.000000 1 -3.000000
47 2 729.282000 -3193.650000 746.297000 1 1.000000 1 -3.000000
48 2 729.585000 -3199.740000 754.096000 1 1.000000 3 -3.000000
49 1 770.284000 -3177.340000 762.748000 1 1.000000 3 0.000000
50 3 759.146000 -3162.380000 733.205000 1 1.000000 3 0.000000
51 2 802.839000 -3144.200000 754.435000 1 1.000000 3 -3.000000
52 2 800.485000 -3144.580000 744.892000 1 1.000000 1 -3.000000
53 2 797.607000 -3141.770000 735.800000 1 1.000000 1 -3.000000
54 2 792.718000 -3140.690000 727.163000 1 1.000000 1 -3.000000
55 2 788.252000 -3137.400000 719.046000 1 1.000000 1 -3.000000
56 2 785.870000 -3133.440000 710.288000 1 1.000000 1 -3.000000
57 2 785.582000 -3129.460000 701.193000 1 1.000000 1 -3.000000
58 2 786.613000 -3128.460000 691.456000 1 1.000000 1 -3.000000
59 2 787.271000 -3128.860000 681.691000 1 1.000000 1 -3.000000
60 2 789.263000 -3128.830000 671.945000 1 1.000000 1 -3.000000
61 2 792.445000 -3131.680000 663.126000 1 1.000000 1 -3.000000
62 2 796.750000 -3134.620000 654.829000 1 1.000000 1 -3.000000
63 2 801.984000 -3137.780000 647.049000 1 1.000000 1 -3.000000
64 2 806.765000 -3143.270000 640.385000 1 1.000000 1 -3.000000
65 2 811.088000 -3146.730000 632.184000 1 1.000000 1 -3.000000
66 2 816.102000 -3146.810000 623.567000 1 1.000000 1 -3.000000
67 2 819.392000 -3149.120000 614.303000 1 1.000000 1 -3.000000
68 2 822.648000 -3151.400000 605.307000 1 1.000000 1 -3.000000
69 2 821.691000 -3154.430000 595.861000 1 1.000000 1 -3.000000
70 2 819.944000 -3151.210000 586.565000 1 1.000000 1 -3.000000
71 2 817.515000 -3146.590000 578.036000 1 1.000000 1 -3.000000
72 2 818.810000 -3141.370000 569.710000 1 1.000000 1 -3.000000
73 2 822.426000 -3137.900000 561.158000 1 1.000000 1 -3.000000
74 2 823.732000 -3136.170000 551.480000 1 1.000000 1 -3.000000
75 2 826.689000 -3135.300000 542.201000 1 1.000000 4 -3.000000
76 1 865.561000 -3116.910000 561.442000 1 1.000000 4 0.000000
77 3 849.327000 -3131.570000 588.796000 1 1.000000 4 0.000000
78 2 894.687000 -3107.880000 597.435000 1 1.000000 4 -3.000000
79 2 888.211000 -3108.360000 604.945000 1 1.000000 1 -3.000000
80 2 881.854000 -3110.420000 612.176000 1 1.000000 1 -3.000000
81 2 876.121000 -3113.450000 619.677000 1 1.000000 1 -3.000000
82 2 870.789000 -3115.220000 627.725000 1 1.000000 1 -3.000000
83 2 861.920000 -3118.710000 630.154000 1 1.000000 1 -3.000000
84 2 852.151000 -3119.920000 631.285000 1 1.000000 1 -3.000000
85 2 842.417000 -3118.700000 632.689000 1 1.000000 1 -3.000000
86 2 834.353000 -3113.060000 633.518000 1 1.000000 1 -3.000000
87 2 825.951000 -3108.780000 636.442000 1 1.000000 1 -3.000000
88 2 818.730000 -3103.110000 640.174000 1 1.000000 1 -3.000000
89 2 812.030000 -3095.820000 641.444000 1 1.000000 1 -3.000000
90 2 805.663000 -3088.400000 642.007000 1 1.000000 1 -3.000000
91 2 800.471000 -3080.230000 640.390000 1 1.000000 1 -3.000000
92 2 795.058000 -3072.270000 637.992000 1 1.000000 1 -3.000000
93 2 788.707000 -3064.780000 636.285000 1 1.000000 1 -3.000000
94 2 781.346000 -3058.090000 635.412000 1 1.000000 1 -3.000000
95 2 774.738000 -3050.950000 633.928000 1 1.000000 1 -3.000000
96 2 770.067000 -3042.400000 635.100000 1 1.000000 1 -3.000000
97 2 765.015000 -3033.930000 635.891000 1 1.000000 1 -3.000000
98 2 765.696000 -3024.030000 636.736000 1 1.000000 1 -3.000000
99 2 765.593000 -3014.230000 637.964000 1 1.000000 1 -3.000000
100 2 764.743000 -3004.640000 640.097000 1 1.000000 1 -3.000000
101 2 765.702000 -2996.650000 645.910000 1 1.000000 1 -3.000000
102 2 766.680000 -2989.770000 653.112000 1 1.000000 5 -3.000000
103 1 813.651000 -2989.680000 656.910000 1 1.000000 5 0.000000
104 3 807.247000 -3018.100000 637.349000 1 1.000000 5 0.000000
105 2 856.591000 -3008.070000 650.346000 1 1.000000 5 -3.000000
106 2 856.237000 -3015.330000 643.648000 1 1.000000 1 -3.000000
107 2 855.393000 -3023.640000 638.361000 1 1.000000 1 -3.000000
108 2 853.328000 -3031.220000 632.292000 1 1.000000 1 -3.000000
109 2 851.808000 -3036.300000 624.030000 1 1.000000 1 -3.000000
110 2 851.421000 -3040.110000 614.968000 1 1.000000 1 -3.000000
111 2 853.162000 -3038.660000 605.358000 1 1.000000 1 -3.000000
112 2 854.783000 -3038.920000 595.540000 1 1.000000 1 -3.000000
113 2 856.381000 -3042.090000 586.218000 1 1.000000 1 -3.000000
114 2 853.033000 -3040.550000 577.180000 1 1.000000 1 -3.000000
115 2 849.771000 -3040.310000 567.911000 1 1.000000 1 -3.000000
116 2 845.121000 -3040.880000 559.149000 1 1.000000 1 -3.000000
117 2 839.589000 -3041.090000 550.905000 1 1.000000 1 -3.000000
118 2 833.103000 -3039.800000 543.439000 1 1.000000 1 -3.000000
119 2 827.132000 -3039.740000 535.555000 1 1.000000 1 -3.000000
120 2 820.544000 -3039.130000 528.176000 1 1.000000 1 -3.000000
121 2 814.543000 -3036.780000 520.633000 1 1.000000 1 -3.000000
122 2 808.784000 -3035.300000 512.736000 1 1.000000 1 -3.000000
123 2 806.643000 -3032.460000 503.545000 1 1.000000 1 -3.000000
124 2 805.942000 -3029.260000 494.215000 1 1.000000 1 -3.000000
125 2 805.245000 -3025.450000 485.089000 1 1.000000 1 -3.000000
126 2 805.873000 -3020.710000 476.499000 1 1.000000 1 -3.000000
127 2 804.901000 -3016.200000 467.798000 1 1.000000 1 -3.000000
128 2 807.591000 -3012.550000 459.098000 1 1.000000 1 -3.000000
129 2 807.268000 -3011.000000 449.301000 1 1.000000 6 -3.000000
130 1 786.718000 -2969.050000 456.051000 1 1.000000 6 0.000000
131 3 806.649000 -2972.890000 484.594000 1 1.000000 6 0.000000
132 2 776.014000 -2930.960000 481.805000 1 1.000000 6 -3.000000
133 2 782.449000 -2931.680000 489.263000 1 1.000000 1 -3.000000
134 2 789.126000 -2930.600000 496.617000 1 1.000000 1 -3.000000
135 2 796.828000 -2932.230000 502.639000 1 1.000000 1 -3.000000
136 2 803.468000 -2935.790000 509.329000 1 1.000000 1 -3.000000
137 2 809.540000 -2940.940000 515.273000 1 1.000000 1 -3.000000
138 2 813.514000 -2947.970000 520.832000 1 1.000000 1 -3.000000
139 2 816.243000 -2957.120000 523.687000 1 1.000000 1 -3.000000
140 2 817.531000 -2966.430000 526.975000 1 1.000000 1 -3.000000
141 2 816.802000 -2976.270000 525.701000 1 1.000000 1 -3.000000
142 2 810.483000 -2983.930000 525.609000 1 1.000000 1 -3.000000
143 2 803.507000 -2990.900000 526.484000 1 1.000000 1 -3.000000
144 2 795.686000 -2996.470000 524.057000 1 1.000000 1 -3.000000
145 2 790.009000 -3001.710000 517.950000 1 1.000000 1 -3.000000
146 2 783.945000 -3003.820000 510.367000 1 1.000000 1 -3.000000
147 2 777.598000 -3002.580000 502.863000 1 1.000000 1 -3.000000
148 2 771.310000 -3004.320000 495.479000 1 1.000000 1 -3.000000
149 2 765.545000 -3006.090000 487.539000 1 1.000000 1 -3.000000
150 2 760.151000 -3008.250000 479.497000 1 1.000000 1 -3.000000
151 2 752.462000 -3012.510000 474.946000 1 1.000000 1 -3.000000
152 2 743.700000 -3013.820000 470.629000 1 1.000000 1 -3.000000
153 2 734.221000 -3013.180000 467.932000 1 1.000000 1 -3.000000
154 2 724.393000 -3012.410000 468.188000 1 1.000000 1 -3.000000
155 2 714.510000 -3011.190000 468.476000 1 1.000000 1 -3.000000
156 2 704.611000 -3011.250000 467.878000 1 1.000000 7 -3.000000
157 1 701.871000 -2969.890000 445.324000 1 1.000000 7 0.000000
158 3 734.677000 -2980.210000 439.161000 1 1.000000 7 0.000000
159 2 718.903000 -2935.660000 417.717000 1 1.000000 7 -3.000000
160 2 727.624000 -2932.030000 420.574000 1 1.000000 1 -3.000000
161 2 737.303000 -2929.730000 420.564000 1 1.000000 1 -3.000000
162 2 746.116000 -2926.760000 417.517000 1 1.000000 1 -3.000000
163 2 753.816000 -2922.180000 413.321000 1 1.000000 1 -3.000000
164 2 761.029000 -2916.940000 408.861000 1 1.000000 1 -3.000000
165 2 769.517000 -2917.100000 403.717000 1 1.000000 1 -3.000000
166 2 775.930000 -2917.020000 396.192000 1 1.000000 1 -3.000000
167 2 780.758000 -2917.370000 387.683000 1 1.000000 1 -3.000000
168 2 788.244000 -2915.680000 381.523000 1 1.000000 1 -3.000000
169 2 797.599000 -2917.650000 378.778000 1 1.000000 1 -3.000000
170 2 806.686000 -2917.700000 374.684000 1 1.000000 1 -3.000000
171 2 815.194000 -2914.360000 370.746000 1 1.000000 1 -3.000000
172 2 823.816000 -2910.220000 368.388000 1 1.000000 1 -3.000000
173 2 832.647000 -2908.060000 364.489000 1 1.000000 1 -3.000000
174 2 840.572000 -2904.480000 359.723000 1 1.000000 1 -3.000000
175 2 849.599000 -2901.000000 357.592000 1 1.000000 1 -3.000000
176 2 856.550000 -2894.310000 359.320000 1 1.000000 1 -3.000000
177 2 863.057000 -2886.950000 359.945000 1 1.000000 1 -3.000000
178 2 870.125000 -2880.360000 357.248000 1 1.000000 1 -3.000000
179 2 876.647000 -2873.560000 354.670000 1 1.000000 1 -3.000000
180 2 883.056000 -2866.050000 353.688000 1 1.000000 1 -3.000000
181 2 888.758000 -2857.920000 352.696000 1 1.000000 1 -3.000000
182 2 896.885000 -2854.620000 347.958000 1 1.000000 1 -3.000000
183 2 903.144000 -2856.310000 340.721000 1 1.000000 8 -3.000000
184 1 880.543000 -2842.290000 301.728000 1 1.000000 8 0.000000
185 3 854.500000 -2851.530000 323.181000 1 1.000000 8 0.000000
186 2 841.771000 -2831.670000 276.983000 1 1.000000 8 -3.000000
187 2 835.752000 -2836.200000 283.489000 1 1.000000 1 -3.000000
188 2 829.038000 -2837.880000 290.525000 1 1.000000 1 -3.000000
189 2 821.879000 -2841.210000 296.406000 1 1.000000 1 -3.000000
190 2 816.690000 -2844.200000 304.297000 1 1.000000 1 -3.000000
191 2 813.184000 -2847.380000 312.891000 1 1.000000 1 -3.000000
192 2 808.751000 -2846.750000 321.653000 1 1.000000 1 -3.000000
193 2 808.621000 -2847.250000 331.542000 1 1.000000 1 -3.000000
194 2 810.415000 -2845.120000 341.065000 1 1.000000 1 -3.000000
195 2 811.676000 -2843.030000 350.638000 1 1.000000 1 -3.000000
196 2 809.701000 -2842.170000 360.308000 1 1.000000 1 -3.000000
197 2 808.904000 -2841.640000 370.167000 1 1.000000 1 -3.000000
198 2 805.027000 -2843.550000 379.041000 1 1.000000 1 -3.000000
199 2 804.409000 -2844.970000 388.997000 1 1.000000 1 -3.000000
200 2 804.306000 -2847.570000 398.563000 1 1.000000 1 -3.000000
201 2 805.154000 -2852.130000 407.339000 1 1.000000 1 -3.000000
202 2 806.297000 -2855.290000 416.768000 1 1.000000 1 -3.000000
203 2 807.515000 -2856.940000 426.366000 1 1.000000 1 -3.000000
204 2 808.977000 -2860.580000 435.393000 1 1.000000 1 -3.000000
205 2 810.109000 -2865.040000 443.943000 1 1.000000 1 -3.000000
206 2 811.658000 -2866.570000 453.652000 1 1.000000 1 -3.000000
207 2 812.219000 -2868.930000 463.123000 1 1.000000 1 -3.000000
208 2 810.226000 -2870.280000 472.789000 1 1.000000 1 -3.000000
209 2 803.972000 -2871.820000 480.294000 1 1.000000 1 -3.000000
210 2 802.457000 -2872.930000 490.005000 1 1.000000 9 -3.000000
211 1 823.566000 -2838.840000 514.862000 1 1.000000 9 0.000000
212 3 829.132000 -2829.260000 481.687000 1 1.000000 9 0.000000
213 2 846.744000 -2797.950000 519.211000 1 1.000000 9 -3.000000
214 2 847.434000 -2795.580000 509.586000 1 1.000000 1 -3.000000
215 2 844.170000 -2791.330000 501.444000 1 1.000000 1 -3.000000
216 2 840.138000 -2788.250000 493.040000 1 1.000000 1 -3.000000
217 2 834.037000 -2786.120000 485.515000 1 1.000000 1 -3.000000
218 2 827.317000 -2783.710000 478.536000 1 1.000000 1 -3.000000
219 2 824.417000 -2785.610000 469.187000 1 1.000000 1 -3.000000
220 2 825.040000 -2788.550000 459.603000 1 1.000000 1 -3.000000
221 2 826.033000 -2792.010000 450.451000 1 1.000000 1 -3.000000
222 2 828.691000 -2789.550000 441.158000 1 1.000000 1 -3.000000
223 2 833.274000 -2787.220000 432.701000 1 1.000000 1 -3.000000
224 2 836.193000 -2783.750000 423.871000 1 1.000000 1 -3.000000
225 2 834.769000 -2781.760000 414.385000 1 1.000000 1 -3.000000
226 2 833.091000 -2779.510000 404.869000 1 1.000000 1 -3.000000
227 2 831.626000 -2774.750000 396.289000 1 1.000000 1 -3.000000
228 2 826.079000 -2771.660000 388.783000 1 1.000000 1 -3.000000
229 2 819.877000 -2768.780000 381.490000 1 1.000000 1 -3.000000
230 2 810.508000 -2767.630000 378.697000 1 1.000000 1 -3.000000
231 2 801.475000 -2766.230000 374.819000 1 1.000000 1 -3.000000
232 2 792.300000 -2764.130000 371.612000 1 1.000000 1 -3.000000
233 2 782.975000 -2764.190000 368.002000 1 1.000000 1 -3.000000
234 2 775.298000 -2761.530000 362.321000 1 1.000000 1 -3.000000
235 2 770.949000 -2758.900000 353.860000 1 1.000000 1 -3.000000
236 2 765.877000 -2758.930000 345.443000 1 1.000000 1 -3.000000
237 2 764.506000 -2756.280000 336.047000 1 1.000000 10 -3.000000
238 1 722.323000 -2736.690000 328.177000 1 1.000000 10 0.000000
239 3 722.122000 -2741.900000 362.639000 1 1.000000 10 0.000000
240 2 679.368000 -2722.220000 341.122000 1 1.000000 10 -3.000000
241 2 682.975000 -2723.920000 350.348000 1 1.000000 1 -3.000000
242 2 685.656000 -2718.740000 358.442000 1 1.000000 1 -3.000000
243 2 689.084000 -2713.420000 366.069000 1 1.000000 1 -3.000000
244 2 690.815000 -2706.750000 373.045000 1 1.000000 1 -3.000000
245 2 692.646000 -2701.630000 381.462000 1 1.000000 1 -3.000000
246 2 698.266000 -2699.460000 389.461000 1 1.000000 1 -3.000000
247 2 702.450000 -2698.660000 398.458000 1 1.000000 1 -3.000000
248 2 704.890000 -2697.430000 407.980000 1 1.000000 1 -3.000000
249 2 707.012000 -2695.820000 417.523000 1 1.000000 1 -3.000000
250 2 705.042000 -2694.100000 427.033000 1 1.000000 1 -3.000000
251 2 706.185000 -2695.880000 436.617000 1 1.000000 1 -3.000000
252 2 708.233000 -2697.300000 446.092000 1 1.000000 1 -3.000000
253 2 709.261000 -2701.130000 454.983000 1 1.000000 1 -3.000000
254 2 711.114000 -2705.230000 463.771000 1 1.000000 1 -3.000000
255 2 715.744000 -2711.040000 470.389000 1 1.000000 1 -3.000000
256 2 718.477000 -2717.500000 477.346000 1 1.000000 1 -3.000000
257 2 722.216000 -2723.070000 484.609000 1 1.000000 1 -3.000000
258 2 727.540000 -2726.950000 492.130000 1 1.000000 1 -3.000000
259 2 732.599000 -2731.950000 499.094000 1 1.000000 1 -3.000000
260 2 734.221000 -2741.270000 502.287000 1 1.000000 1 -3.000000
261 2 739.365000 -2747.920000 507.465000 1 1.000000 1 -3.000000
262 2 744.194000 -2756.200000 509.926000 1 1.000000 1 -3.000000
263 2 749.798000 -2763.350000 513.848000 1 1.000000 1 -3.000000
264 2 756.771000 -2770.330000 514.549000 1 1.000000 11 -3.000000
265 1 746.808000 -2795.770000 476.069000 1 1.000000 11 0.000000
266 3 737.530000 -2763.300000 466.720000 1 1.000000 11 0.000000
267 2 731.265000 -2801.130000 431.863000 1 1.000000 11 -3.000000
268 2 736.293000 -2792.660000 430.246000 1 1.000000 1 -3.000000
269 2 740.704000 -2784.340000 427.194000 1 1.000000 1 -3.000000
270 2 746.225000 -2776.830000 424.145000 1 1.000000 1 -3.000000
271 2 751.795000 -2768.680000 423.964000 1 1.000000 1 -3.000000
272 2 756.197000 -2759.990000 422.085000 1 1.000000 1 -3.000000
273 2 760.895000 -2751.330000 420.508000 1 1.000000 1 -3.000000
274 2 767.645000 -2745.120000 417.178000 1 1.000000 1 -3.000000
275 2 773.558000 -2738.330000 413.283000 1 1.000000 1 -3.000000
276 2 781.774000 -2733.880000 409.804000 1 1.000000 1 -3.000000
277 2 790.308000 -2730.740000 405.980000 1 1.000000 1 -3.000000
278 2 798.794000 -2726.620000 403.210000 1 1.000000 1 -3.000000
279 2 807.401000 -2721.920000 401.784000 1 1.000000 1 -3.000000
280 2 815.776000 -2720.310000 397.012000 1 1.000000 1 -3.000000
281 2 821.915000 -2720.910000 389.189000 1 1.000000 1 -3.000000
282 2 829.915000 -2723.910000 384.134000 1 1.000000 1 -3.000000
283 2 838.813000 -2723.660000 379.624000 1 1.000000 1 -3.000000
284 2 847.602000 -2719.190000 378.245000 1 1.000000 1 -3.000000
285 2 857.049000 -2718.820000 375.452000 1 1.000000 1 -3.000000
286 2 866.252000 -2719.820000 371.919000 1 1.000000 1 -3.000000
287 2 874.672000 -2718.140000 367.202000 1 1.000000 1 -3.000000
288 2 882.731000 -2718.610000 361.418000 1 1.000000 1 -3.000000
289 2 889.963000 -2718.530000 354.749000 1 1.000000 1 -3.000000
290 2 895.586000 -2720.750000 346.867000 1 1.000000 1 -3.000000
291 2 900.186000 -2725.990000 339.760000 1 1.000000 12 -3.000000
292 1 876.568000 -2699.810000 308.377000 1 1.000000 12 0.000000
293 3 870.575000 -2683.310000 338.625000 1 1.000000 12 0.000000
294 2 850.723000 -2662.550000 295.304000 1 1.000000 12 -3.000000
295 2 850.327000 -2657.450000 303.921000 1 1.000000 1 -3.000000
296 2 852.618000 -2651.380000 311.421000 1 1.000000 1 -3.000000
297 2 854.650000 -2646.310000 319.761000 1 1.000000 1 -3.000000
298 2 857.883000 -2642.720000 328.350000 1 1.000000 1 -3.000000
299 2 860.003000 -2639.840000 337.527000 1 1.000000 1 -3.000000
300 2 863.811000 -2640.370000 346.627000 1 1.000000 1 -3.000000
301 2 868.687000 -2641.830000 355.175000 1 1.000000 1 -3.000000
302 2 874.866000 -2641.560000 362.628000 1 1.000000 1 -3.000000
303 2 881.602000 -2638.130000 369.102000 1 1.000000 1 -3.000000
304 2 890.714000 -2637.790000 372.716000 1 1.000000 1 -3.000000
305 2 900.348000 -2637.160000 374.384000 1 1.000000 1 -3.000000
306 2 910.194000 -2636.280000 375.913000 1 1.000000 1 -3.000000
307 2 920.153000 -2636.420000 376.633000 1 1.000000 1 -3.000000
308 2 929.801000 -2636.860000 378.855000 1 1.000000 1 -3.000000
309 2 939.699000 -2635.780000 379.643000 1 1.000000 1 -3.000000
310 2 948.925000 -2633.080000 381.611000 1 1.000000 1 -3.000000
311 2 957.601000 -2628.260000 381.361000 1 1.000000 1 -3.000000
312 2 967.051000 -2625.950000 379.334000 1 1.000000 1 -3.000000
313 2 975.000000 -2620.150000 377.968000 1 1.000000 1 -3.000000
314 2 982.590000 -2614.370000 376.202000 1 1.000000 1 -3.000000
315 2 988.763000 -2609.640000 370.125000 1 1.000000 1 -3.000000
316 2 993.756000 -2603.380000 364.496000 1 1.000000 1 -3.000000
317 2 999.744000 -2596.610000 360.756000 1 1.000000 1 -3.000000
318 2 1006.360000 -2591.090000 355.918000 1 1.000000 13 -3.000000
319 1 973.090000 -2572.690000 327.877000 1 1.000000 13 0.000000
320 3 954.702000 -2590.910000 351.298000 1 1.000000 13 0.000000
321 2 928.463000 -2563.630000 315.641000 1 1.000000 13 -3.000000
322 2 926.389000 -2569.960000 322.810000 1 1.000000 1 -3.000000
323 2 925.455000 -2572.590000 332.340000 1 1.000000 1 -3.000000
324 2 921.711000 -2576.250000 340.838000 1 1.000000 1 -3.000000
325 2 917.092000 -2575.670000 349.500000 1 1.000000 1 -3.000000
326 2 913.862000 -2576.320000 358.734000 1 1.000000 1 -3.000000
327 2 909.290000 -2574.960000 367.462000 1 1.000000 1 -3.000000
328 2 904.235000 -2574.720000 375.855000 1 1.000000 1 -3.000000
329 2 898.796000 -2574.500000 384.064000 1 1.000000 1 -3.000000
330 2 893.683000 -2571.650000 392.091000 1 1.000000 1 -3.000000
331 2 886.955000 -2571.750000 399.234000 1 1.000000 1 -3.000000
332 2 882.464000 -2571.500000 408.243000 1 1.000000 1 -3.000000
333 2 878.528000 -2572.370000 417.321000 1 1.000000 1 -3.000000
334 2 873.442000 -2570.860000 425.460000 1 1.000000 1 -3.000000
335 2 868.424000 -2569.890000 434.158000 1 1.000000 1 -3.000000
336 2 865.177000 -2568.500000 443.405000 1 1.000000 1 -3.000000
337 2 859.877000 -2568.790000 451.813000 1 1.000000 1 -3.000000
338 2 854.379000 -2566.000000 459.506000 1 1.000000 1 -3.000000
339 2 849.887000 -2564.020000 468.151000 1 1.000000 1 -3.000000
340 2 842.625000 -2563.040000 474.725000 1 1.000000 1 -3.000000
341 2 836.474000 -2558.740000 481.045000 1 1.000000 1 -3.000000
342 2 830.629000 -2553.770000 487.192000 1 1.000000 1 -3.000000
343 2 822.996000 -2550.870000 492.820000 1 1.000000 1 -3.000000
344 2 816.218000 -2546.000000 498.030000 1 1.000000 1 -3.000000
345 2 809.990000 -2542.420000 504.776000 1 1.000000 14 -3.000000
346 1 841.877000 -2512.770000 523.030000 1 1.000000 14 0.000000
347 3 858.369000 -2526.180000 495.165000 1 1.000000 14 0.000000
348 2 884.610000 -2492.560000 524.666000 1 1.000000 14 -3.000000
349 2 885.601000 -2494.730000 514.896000 1 1.000000 1 -3.000000
350 2 885.796000 -2493.020000 505.047000 1 1.000000 1 -3.000000
351 2 885.213000 -2490.980000 495.329000 1 1.000000 1 -3.000000
352 2 881.252000 -2489.260000 486.524000 1 1.000000 1 -3.000000
353 2 879.884000 -2490.140000 476.716000 1 1.000000 1 -3.000000
354 2 874.454000 -2488.000000 468.663000 1 1.000000 1 -3.000000
355 2 865.843000 -2487.170000 463.812000 1 1.000000 1 -3.000000
356 2 857.512000 -2483.920000 459.324000 1 1.000000 1 -3.000000
357 2 850.184000 -2481.730000 453.187000 1 1.000000 1 -3.000000
358 2 841.657000 -2483.490000 448.590000 1 1.000000 1 -3.000000
359 2 833.645000 -2482.800000 442.916000 1 1.000000 1 -3.000000
360 2 824.660000 -2484.600000 438.765000 1 1.000000 1 -3.000000
361 2 816.422000 -2486.820000 433.968000 1 1.000000 1 -3.000000
362 2 809.585000 -2487.660000 426.890000 1 1.000000 1 -3.000000
363 2 804.319000 -2488.790000 418.646000 1 1.000000 1 -3.000000
364 2 799.737000 -2487.840000 409.987000 1 1.000000 1 -3.000000
365 2 796.691000 -2488.030000 400.524000 1 1.000000 1 -3.000000
366 2 795.701000 -2484.990000 391.113000 1 1.000000 1 -3.000000
367 2 794.564000 -2479.800000 382.770000 1 1.000000 1 -3.000000
368 2 795.666000 -2473.630000 375.109000 1 1.000000 1 -3.000000
369 2 795.086000 -2468.940000 366.484000 1 1.000000 1 -3.000000
370 2 793.114000 -2462.670000 359.010000 1 1.000000 1 -3.000000
371 2 790.530000 -2456.140000 352.097000 1 1.000000 1 -3.000000
372 2 786.052000 -2451.510000 344.539000 1 1.000000 15 -3.000000
373 1 739.296000 -2451.620000 350.671000 1 1.000000 15 0.000000
374 3 750.477000 -2475.680000 373.719000 1 1.000000 15 0.000000
375 2 699.759000 -2464.760000 372.873000 1 1.000000 15 -3.000000
376 2 704.258000 -2470.300000 379.820000 1 1.000000 1 -3.000000
377 2 708.147000 -2477.620000 385.039000 1 1.000000 1 -3.000000
378 2 712.510000 -2483.660000 391.624000 1 1.000000 1 -3.000000
379 2 716.831000 -2489.970000 397.718000 1 1.000000 1 -3.000000
380 2 716.690000 -2494.580000 406.500000 1 1.000000 1 -3.000000
381 2 717.240000 -2499.890000 414.699000 1 1.000000 1 -3.000000
382 2 718.599000 -2506.190000 422.219000 1 1.000000 1 -3.000000
383 2 722.025000 -2511.750000 429.677000 1 1.000000 1 -3.000000
384 2 725.359000 -2519.050000 435.293000 1 1.000000 1 -3.000000
385 2 724.902000 -2524.450000 443.584000 1 1.000000 1 -3.000000
386 2 724.230000 -2526.440000 453.347000 1 1.000000 1 -3.000000
387 2 724.508000 -2526.480000 463.243000 1 1.000000 1 -3.000000
388 2 724.011000 -2526.300000 473.140000 1 1.000000 1 -3.000000
389 2 725.107000 -2522.000000 481.934000 1 1.000000 1 -3.000000
390 2 729.408000 -2517.430000 489.556000 1 1.000000 1 -3.000000
391 2 733.348000 -2512.060000 496.914000 1 1.000000 1 -3.000000
392 2 736.812000 -2510.910000 506.112000 1 1.000000 1 -3.000000
393 2 737.167000 -2508.970000 515.870000 1 1.000000 1 -3.000000
394 2 742.775000 -2507.190000 523.711000 1 1.000000 1 -3.000000
395 2 749.870000 -2506.390000 530.589000 1 1.000000 1 -3.000000
396 2 755.968000 -2507.290000 538.383000 1 1.000000 1 -3.000000
397 2 758.980000 -2509.060000 547.641000 1 1.000000 1 -3.000000
398 2 763.538000 -2510.130000 556.389000 1 1.000000 1 -3.000000
399 2 770.886000 -2510.300000 563.066000 1 1.000000 16 -3.000000
400 1 738.503000 -2537.230000 584.503000 1 1.000000 16 0.000000
401 3 724.877000 -2532.150000 552.705000 1 1.000000 16 0.000000
402 2 699.501000 -2563.790000 585.143000 1 1.000000 16 -3.000000
403 2 701.814000 -2564.240000 575.552000 1 1.000000 1 -3.000000
404 2 703.033000 -2567.410000 566.188000 1 1.000000 1 -3.000000
405 2 704.182000 -2571.370000 557.191000 1 1.000000 1 -3.000000
406 2 705.017000 -2573.130000 547.428000 1 1.000000 1 -3.000000
407 2 702.163000 -2570.450000 538.256000 1 1.000000 1 -3.000000
408 2 696.780000 -2564.080000 532.787000 1 1.000000 1 -3.000000
409 2 693.174000 -2555.450000 529.932000 1 1.000000 1 -3.000000
410 2 690.423000 -2546.160000 528.142000 1 1.000000 1 -3.000000
411 2 686.735000 -2537.090000 526.446000 1 1.000000 1 -3.000000
412 2 682.365000 -2528.240000 526.603000 1 1.000000 1 -3.000000
413 2 675.961000 -2521.050000 528.415000 1 1.000000 1 -3.000000
414 2 670.988000 -2514.700000 534.194000 1 1.000000 1 -3.000000
415 2 664.186000 -2513.920000 541.385000 1 1.000000 1 -3.000000
416 2 658.511000 -2511.520000 549.187000 1 1.000000 1 -3.000000
417 2 655.051000 -2510.640000 558.418000 1 1.000000 1 -3.000000
418 2 651.201000 -2507.120000 566.846000 1 1.000000 1 -3.000000
419 2 650.222000 -2505.190000 576.509000 1 1.000000 1 -3.000000
420 2 650.338000 -2507.480000 586.242000 1 1.000000 1 -3.000000
421 2 651.108000 -2509.840000 595.751000 1 1.000000 1 -3.000000
422 2 654.649000 -2508.800000 605.013000 1 1.000000 1 -3.000000
423 2 661.223000 -2508.010000 612.438000 1 1.000000 1 -3.000000
424 2 666.064000 -2505.650000 620.676000 1 1.000000 1 -3.000000
425 2 674.760000 -2504.210000 625.093000 1 1.000000 1 -3.000000
426 2 682.208000 -2500.020000 630.212000 1 1.000000 17 -3.000000
427 1 658.948000 -2496.110000 671.163000 1 1.000000 17 0.000000
428 3 633.274000 -2498.180000 647.544000 1 1.000000 17 0.000000
429 2 620.101000 -2498.770000 697.832000 1 1.000000 17 -3.000000
430 2 612.811000 -2496.040000 691.830000 1 1.000000 1 -3.000000
431 2 608.275000 -2491.900000 684.129000 1 1.000000 1 -3.000000
432 2 603.689000 -2490.240000 675.559000 1 1.000000 1 -3.000000
433 2 598.295000 -2487.230000 667.655000 1 1.000000 1 -3.000000
434 2 592.774000 -2483.710000 660.237000 1 1.000000 1 -3.000000
435 2 588.601000 -2477.900000 653.481000 1 1.000000 1 -3.000000
436 2 582.092000 -2472.800000 648.162000 1 1.000000 1 -3.000000
437 2 574.697000 -2468.520000 643.083000 1 1.000000 1 -3.000000
438 2 567.319000 -2462.890000 639.709000 1 1.000000 1 -3.000000
439 2 562.138000 -2456.340000 634.447000 1 1.000000 1 -3.000000
440 2 558.027000 -2450.590000 627.465000 1 1.000000 1 -3.000000
441 2 555.431000 -2443.600000 621.025000 1 1.000000 1 -3.000000
442 2 551.224000 -2438.670000 613.613000 1 1.000000 1 -3.000000
443 2 547.029000 -2435.010000 605.483000 1 1.000000 1 -3.000000
444 2 543.806000 -2432.850000 596.290000 1 1.000000 1 -3.000000
445 2 541.535000 -2428.900000 587.462000 1 1.000000 1 -3.000000
446 2 542.853000 -2423.850000 579.021000 1 1.000000 1 -3.000000
447 2 544.225000 -2416.130000 572.859000 1 1.000000 1 -3.000000
448 2 544.892000 -2407.870000 567.470000 1 1.000000 1 -3.000000
449 2 542.931000 -2398.570000 564.972000 1 1.000000 1 -3.000000
450 2 541.125000 -2388.870000 563.120000 1 1.000000 1 -3.000000
451 2 538.545000 -2379.450000 561.414000 1 1.000000 1 -3.000000
452 2 536.783000 -2369.600000 561.454000 1 1.000000 1 -3.000000
453 2 531.455000 -2362.110000 565.002000 1 1.000000 18 -3.000000
454 1 556.974000 -2350.800000 603.106000 1 1.000000 18 0.000000
455 3 570.921000 -2381.130000 592.792000 1 1.000000 18 0.000000
456 2 591.768000 -2357.750000 634.181000 1 1.000000 18 -3.000000
457 2 595.703000 -2362.590000 626.500000 1 1.000000 1 -3.000000
458 2 601.708000 -2366.510000 619.720000 1 1.000000 1 -3.000000
459 2 606.365000 -2371.770000 612.683000 1 1.000000 1 -3.000000
460 2 613.906000 -2374.050000 606.664000 1 1.000000 1 -3.000000
461 2 620.811000 -2377.210000 600.203000 1 1.000000 1 -3.000000
462 2 627.859000 -2379.270000 593.507000 1 1.000000 1 -3.000000
463 2 633.115000 -2385.000000 587.435000 1 1.000000 1 -3.000000
464 2 639.044000 -2390.760000 582.081000 1 1.000000 1 -3.000000
465 2 644.033000 -2395.890000 575.135000 1 1.000000 1 -3.000000