LAMMPS data file

4067 atoms
4067 ellipsoids
4516 bonds
8882 angles
0 dihedrals

3 atom types
5 bond types
12 angle types
0 dihedral types

-4631.092947 4670.465898 xlo xhi
-4631.092947 4670.465898 ylo yhi
-4631.092947 4670.465898 zlo zhi

Masses

1 196016.000000
2 1950.000000
3 19500.000000

Atoms

1 2 817.441000 -3144.560000 478.876000 1 1.000000 1 -3.000000
2 2 809.016000 -3142.660000 483.876000 1 1.000000 1 -3.000000
3 2 802.077000 -3140.820000 490.725000 1 1.000000 1 -3.000000
4 2 798.165000 -3140.720000 499.812000 1 1.000000 1 -3.000000
5 2 792.816000 -3138.610000 507.930000 1 1.000000 1 -3.000000
6 2 785.875000 -3138.180000 515.213000 1 1.000000 1 -3.000000
7 2 777.596000 -3138.940000 520.623000 1 1.000000 1 -3.000000
8 2 770.558000 -3135.780000 526.801000 1 1.000000 1 -3.000000
9 2 763.164000 -3135.210000 533.381000 1 1.000000 1 -3.000000
10 2 755.460000 -3139.920000 537.549000 1 1.000000 1 -3.000000
11 2 747.933000 -3145.220000 541.313000 1 1.000000 1 -3.000000
12 2 740.111000 -3150.670000 543.630000 1 1.000000 1 -3.000000
13 2 733.071000 -3154.390000 549.392000 1 1.000000 1 -3.000000
14 2 730.000000 -3157.030000 558.464000 1 1.000000 1 -3.000000
15 2 725.070000 -3161.450000 565.822000 1 1.000000 1 -3.000000
16 2 717.661000 -3165.360000 570.900000 1 1.000000 1 -3.000000
17 2 710.259000 -3167.240000 577.354000 1 1.000000 1 -3.000000
18 2 703.094000 -3168.440000 584.169000 1 1.000000 1 -3.000000
19 2 696.014000 -3171.610000 590.367000 1 1.000000 1 -3.000000
20 2 688.344000 -3173.030000 596.378000 1 1.000000 1 -3.000000
21 2 681.752000 -3173.740000 603.790000 1 1.000000 2 -3.000000
22 1 707.681000 -3166.600000 642.608000 1 1.000000 2 0.000000
23 3 730.370000 -3160.590000 616.485000 1 1.000000 2 0.000000
24 2 747.423000 -3155.200000 665.260000 1 1.000000 2 -3.000000
25 2 752.692000 -3150.620000 658.168000 1 1.000000 1 -3.000000
26 2 756.234000 -3146.930000 649.710000 1 1.000000 1 -3.000000
27 2 762.329000 -3144.860000 642.237000 1 1.000000 1 -3.000000
28 2 765.140000 -3141.680000 633.328000 1 1.000000 1 -3.000000
29 2 768.934000 -3139.020000 624.718000 1 1.000000 1 -3.000000
30 2 770.592000 -3134.520000 616.100000 1 1.000000 1 -3.000000
31 2 773.943000 -3128.860000 608.738000 1 1.000000 1 -3.000000
32 2 780.500000 -3124.150000 602.845000 1 1.000000 1 -3.000000
33 2 783.540000 -3115.660000 598.258000 1 1.000000 1 -3.000000
34 2 785.886000 -3108.820000 591.621000 1 1.000000 1 -3.000000
35 2 786.900000 -3101.990000 584.471000 1 1.000000 1 -3.000000
36 2 790.672000 -3096.800000 576.857000 1 1.000000 1 -3.000000
37 2 792.838000 -3092.300000 568.176000 1 1.000000 1 -3.000000
38 2 795.002000 -3085.290000 561.684000 1 1.000000 1 -3.000000
39 2 796.153000 -3078.540000 554.418000 1 1.000000 1 -3.000000
40 2 798.297000 -3070.690000 548.756000 1 1.000000 1 -3.000000
41 2 803.845000 -3065.370000 542.498000 1 1.000000 1 -3.000000
42 2 809.787000 -3060.450000 536.272000 1 1.000000 1 -3.000000
43 2 815.112000 -3058.000000 528.441000 1 1.000000 1 -3.000000
44 2 819.543000 -3055.870000 519.960000 1 1.000000 1 -3.000000
45 2 822.929000 -3056.950000 510.851000 1 1.000000 1 -3.000000
46 2 820.743000 -3058.270000 501.318000 1 1.000000 1 -3.000000
47 2 814.899000 -3060.230000 493.595000 1 1.000000 1 -3.000000
48 2 809.471000 -3059.760000 485.118000 1 1.000000 3 -3.000000
49 1 776.763000 -3090.780000 499.061000 1 1.000000 3 0.000000
50 3 784.661000 -3073.570000 528.428000 1 1.000000 3 0.000000
51 2 748.891000 -3111.260000 531.145000 1 1.000000 3 -3.000000
52 2 748.744000 -3104.800000 538.605000 1 1.000000 1 -3.000000
53 2 750.964000 -3098.000000 545.505000 1 1.000000 1 -3.000000
54 2 753.004000 -3091.030000 552.313000 1 1.000000 1 -3.000000
55 2 751.544000 -3082.070000 556.024000 1 1.000000 1 -3.000000
56 2 756.043000 -3073.260000 555.786000 1 1.000000 1 -3.000000
57 2 760.076000 -3064.390000 557.479000 1 1.000000 1 -3.000000
58 2 766.181000 -3056.610000 558.405000 1 1.000000 1 -3.000000
59 2 773.112000 -3049.590000 559.876000 1 1.000000 1 -3.000000
60 2 782.146000 -3046.220000 561.882000 1 1.000000 1 -3.000000
61 2 791.129000 -3044.200000 565.526000 1 1.000000 1 -3.000000
62 2 800.409000 -3041.590000 566.800000 1 1.000000 1 -3.000000
63 2 810.324000 -3041.290000 567.782000 1 1.000000 1 -3.000000
64 2 818.619000 -3039.790000 562.724000 1 1.000000 1 -3.000000
65 2 825.951000 -3040.150000 556.185000 1 1.000000 1 -3.000000
66 2 829.982000 -3045.040000 548.626000 1 1.000000 1 -3.000000
67 2 834.344000 -3047.240000 540.044000 1 1.000000 1 -3.000000
68 2 839.923000 -3049.910000 532.323000 1 1.000000 1 -3.000000
69 2 846.448000 -3052.670000 525.423000 1 1.000000 1 -3.000000
70 2 854.580000 -3058.060000 523.238000 1 1.000000 1 -3.000000
71 2 862.617000 -3062.700000 519.639000 1 1.000000 1 -3.000000
72 2 869.216000 -3069.240000 516.135000 1 1.000000 1 -3.000000
73 2 874.872000 -3076.440000 512.568000 1 1.000000 1 -3.000000
74 2 880.207000 -3082.780000 507.207000 1 1.000000 1 -3.000000
75 2 884.571000 -3090.350000 502.740000 1 1.000000 4 -3.000000
76 1 897.152000 -3068.840000 462.658000 1 1.000000 4 0.000000
77 3 886.559000 -3042.310000 482.866000 1 1.000000 4 0.000000
78 2 903.354000 -3031.060000 435.119000 1 1.000000 4 -3.000000
79 2 897.859000 -3025.470000 441.072000 1 1.000000 1 -3.000000
80 2 893.347000 -3018.220000 446.018000 1 1.000000 1 -3.000000
81 2 887.462000 -3011.160000 449.570000 1 1.000000 1 -3.000000
82 2 883.054000 -3002.970000 453.182000 1 1.000000 1 -3.000000
83 2 879.245000 -2995.630000 458.789000 1 1.000000 1 -3.000000
84 2 875.059000 -2988.300000 463.884000 1 1.000000 1 -3.000000
85 2 869.673000 -2981.130000 468.024000 1 1.000000 1 -3.000000
86 2 866.660000 -2974.370000 474.712000 1 1.000000 1 -3.000000
87 2 861.399000 -2966.330000 476.968000 1 1.000000 1 -3.000000
88 2 857.445000 -2957.290000 477.652000 1 1.000000 1 -3.000000
89 2 851.755000 -2950.100000 481.404000 1 1.000000 1 -3.000000
90 2 848.134000 -2941.860000 485.356000 1 1.000000 1 -3.000000
91 2 845.676000 -2933.200000 489.416000 1 1.000000 1 -3.000000
92 2 844.310000 -2923.470000 491.023000 1 1.000000 1 -3.000000
93 2 843.042000 -2913.700000 490.912000 1 1.000000 1 -3.000000
94 2 844.542000 -2904.970000 494.976000 1 1.000000 1 -3.000000
95 2 850.482000 -2897.100000 496.043000 1 1.000000 1 -3.000000
96 2 857.308000 -2890.160000 497.445000 1 1.000000 1 -3.000000
97 2 864.653000 -2886.920000 503.101000 1 1.000000 1 -3.000000
98 2 872.675000 -2884.540000 508.329000 1 1.000000 1 -3.000000
99 2 879.402000 -2878.750000 512.622000 1 1.000000 1 -3.000000
100 2 885.855000 -2871.590000 514.374000 1 1.000000 1 -3.000000
101 2 890.332000 -2863.200000 516.675000 1 1.000000 1 -3.000000
102 2 892.906000 -2854.610000 521.002000 1 1.000000 5 -3.000000
103 1 867.931000 -2822.990000 496.470000 1 1.000000 5 0.000000
104 3 847.399000 -2851.320000 496.152000 1 1.000000 5 0.000000
105 2 831.138000 -2809.130000 470.447000 1 1.000000 5 -3.000000
106 2 825.082000 -2816.660000 472.649000 1 1.000000 1 -3.000000
107 2 819.130000 -2824.520000 473.416000 1 1.000000 1 -3.000000
108 2 814.853000 -2833.370000 473.762000 1 1.000000 1 -3.000000
109 2 812.847000 -2842.970000 472.059000 1 1.000000 1 -3.000000
110 2 806.971000 -2850.820000 471.139000 1 1.000000 1 -3.000000
111 2 799.749000 -2856.770000 474.390000 1 1.000000 1 -3.000000
112 2 792.127000 -2862.550000 476.221000 1 1.000000 1 -3.000000
113 2 784.617000 -2868.590000 478.137000 1 1.000000 1 -3.000000
114 2 779.512000 -2877.000000 477.808000 1 1.000000 1 -3.000000
115 2 772.585000 -2883.650000 475.527000 1 1.000000 1 -3.000000
116 2 767.554000 -2890.140000 470.152000 1 1.000000 1 -3.000000
117 2 762.494000 -2898.630000 469.477000 1 1.000000 1 -3.000000
118 2 758.038000 -2907.210000 467.935000 1 1.000000 1 -3.000000
119 2 753.745000 -2915.790000 470.093000 1 1.000000 1 -3.000000
120 2 749.696000 -2924.640000 468.701000 1 1.000000 1 -3.000000
121 2 745.185000 -2933.290000 466.671000 1 1.000000 1 -3.000000
122 2 739.679000 -2941.290000 464.392000 1 1.000000 1 -3.000000
123 2 734.864000 -2949.820000 465.980000 1 1.000000 1 -3.000000
124 2 728.986000 -2957.260000 468.815000 1 1.000000 1 -3.000000
125 2 723.686000 -2964.680000 472.415000 1 1.000000 1 -3.000000
126 2 717.688000 -2971.770000 475.553000 1 1.000000 1 -3.000000
127 2 711.779000 -2979.150000 478.497000 1 1.000000 1 -3.000000
128 2 706.033000 -2986.050000 482.732000 1 1.000000 1 -3.000000
129 2 699.633000 -2992.280000 486.781000 1 1.000000 6 -3.000000
130 1 682.476000 -3004.670000 444.678000 1 1.000000 6 0.000000
131 3 703.102000 -2977.480000 436.976000 1 1.000000 6 0.000000
132 2 675.780000 -2998.730000 398.392000 1 1.000000 6 -3.000000
133 2 682.453000 -2991.580000 396.678000 1 1.000000 1 -3.000000
134 2 689.074000 -2984.530000 394.677000 1 1.000000 1 -3.000000
135 2 694.564000 -2976.290000 394.304000 1 1.000000 1 -3.000000
136 2 699.610000 -2967.820000 393.375000 1 1.000000 1 -3.000000
137 2 708.062000 -2962.870000 395.009000 1 1.000000 1 -3.000000
138 2 715.544000 -2956.850000 397.284000 1 1.000000 1 -3.000000
139 2 722.716000 -2950.330000 399.526000 1 1.000000 1 -3.000000
140 2 727.372000 -2941.700000 399.335000 1 1.000000 1 -3.000000
141 2 731.580000 -2932.790000 398.961000 1 1.000000 1 -3.000000
142 2 736.398000 -2924.210000 398.051000 1 1.000000 1 -3.000000
143 2 741.131000 -2915.770000 396.070000 1 1.000000 1 -3.000000
144 2 746.954000 -2907.770000 396.788000 1 1.000000 1 -3.000000
145 2 754.026000 -2900.930000 395.642000 1 1.000000 1 -3.000000
146 2 762.726000 -2896.730000 393.126000 1 1.000000 1 -3.000000
147 2 771.178000 -2891.640000 391.992000 1 1.000000 1 -3.000000
148 2 780.130000 -2888.740000 388.872000 1 1.000000 1 -3.000000
149 2 788.349000 -2885.220000 384.777000 1 1.000000 1 -3.000000
150 2 796.756000 -2881.720000 381.090000 1 1.000000 1 -3.000000
151 2 805.905000 -2879.450000 378.029000 1 1.000000 1 -3.000000
152 2 811.747000 -2874.850000 371.502000 1 1.000000 1 -3.000000
153 2 818.524000 -2874.220000 364.374000 1 1.000000 1 -3.000000
154 2 824.163000 -2878.260000 357.387000 1 1.000000 1 -3.000000
155 2 831.673000 -2881.180000 351.750000 1 1.000000 1 -3.000000
156 2 835.995000 -2885.680000 343.890000 1 1.000000 7 -3.000000
157 1 869.909000 -2854.540000 354.364000 1 1.000000 7 0.000000
158 3 845.097000 -2847.780000 378.049000 1 1.000000 7 0.000000
159 2 889.114000 -2820.140000 380.345000 1 1.000000 7 -3.000000
160 2 880.866000 -2819.660000 385.708000 1 1.000000 1 -3.000000
161 2 875.259000 -2818.020000 393.773000 1 1.000000 1 -3.000000
162 2 871.301000 -2818.960000 402.828000 1 1.000000 1 -3.000000
163 2 867.223000 -2822.800000 411.093000 1 1.000000 1 -3.000000
164 2 863.115000 -2828.630000 418.006000 1 1.000000 1 -3.000000
165 2 856.980000 -2833.100000 424.390000 1 1.000000 1 -3.000000
166 2 850.626000 -2836.140000 431.268000 1 1.000000 1 -3.000000
167 2 841.628000 -2836.320000 435.422000 1 1.000000 1 -3.000000
168 2 831.937000 -2836.060000 437.243000 1 1.000000 1 -3.000000
169 2 822.772000 -2833.570000 439.944000 1 1.000000 1 -3.000000
170 2 814.430000 -2830.710000 444.608000 1 1.000000 1 -3.000000
171 2 808.346000 -2825.820000 450.693000 1 1.000000 1 -3.000000
172 2 804.332000 -2819.270000 456.915000 1 1.000000 1 -3.000000
173 2 802.123000 -2812.400000 463.707000 1 1.000000 1 -3.000000
174 2 800.319000 -2806.940000 471.855000 1 1.000000 1 -3.000000
175 2 797.275000 -2803.290000 480.516000 1 1.000000 1 -3.000000
176 2 794.511000 -2798.750000 488.842000 1 1.000000 1 -3.000000
177 2 797.699000 -2792.370000 495.582000 1 1.000000 1 -3.000000
178 2 801.016000 -2784.290000 500.306000 1 1.000000 1 -3.000000
179 2 805.776000 -2776.920000 504.924000 1 1.000000 1 -3.000000
180 2 809.415000 -2768.170000 507.990000 1 1.000000 1 -3.000000
181 2 813.344000 -2759.080000 508.960000 1 1.000000 1 -3.000000
182 2 818.467000 -2750.850000 507.196000 1 1.000000 1 -3.000000
183 2 825.079000 -2743.290000 507.035000 1 1.000000 8 -3.000000
184 1 821.887000 -2732.740000 461.146000 1 1.000000 8 0.000000
185 3 800.474000 -2760.320000 464.547000 1 1.000000 8 0.000000
186 2 803.766000 -2737.880000 417.877000 1 1.000000 8 -3.000000
187 2 797.095000 -2745.190000 416.795000 1 1.000000 1 -3.000000
188 2 789.308000 -2751.110000 415.742000 1 1.000000 1 -3.000000
189 2 780.918000 -2756.380000 416.501000 1 1.000000 1 -3.000000
190 2 772.212000 -2760.670000 418.607000 1 1.000000 1 -3.000000
191 2 762.984000 -2762.940000 421.520000 1 1.000000 1 -3.000000
192 2 754.286000 -2767.820000 422.147000 1 1.000000 1 -3.000000
193 2 747.356000 -2774.210000 425.119000 1 1.000000 1 -3.000000
194 2 739.174000 -2779.780000 425.921000 1 1.000000 1 -3.000000
195 2 733.017000 -2787.380000 427.045000 1 1.000000 1 -3.000000
196 2 724.986000 -2792.830000 429.233000 1 1.000000 1 -3.000000
197 2 716.770000 -2797.940000 431.134000 1 1.000000 1 -3.000000
198 2 709.379000 -2802.860000 435.427000 1 1.000000 1 -3.000000
199 2 701.972000 -2807.490000 439.991000 1 1.000000 1 -3.000000
200 2 696.462000 -2814.450000 444.372000 1 1.000000 1 -3.000000
201 2 693.173000 -2822.190000 449.901000 1 1.000000 1 -3.000000
202 2 689.591000 -2829.290000 455.905000 1 1.000000 1 -3.000000
203 2 684.358000 -2835.490000 461.454000 1 1.000000 1 -3.000000
204 2 681.047000 -2842.410000 467.593000 1 1.000000 1 -3.000000
205 2 676.888000 -2849.760000 472.777000 1 1.000000 1 -3.000000
206 2 672.086000 -2856.130000 478.684000 1 1.000000 1 -3.000000
207 2 674.948000 -2862.640000 485.604000 1 1.000000 1 -3.000000
208 2 681.757000 -2867.980000 490.516000 1 1.000000 1 -3.000000
209 2 686.699000 -2875.650000 494.431000 1 1.000000 1 -3.000000
210 2 686.929000 -2885.570000 494.283000 1 1.000000 9 -3.000000
211 1 642.952000 -2888.550000 510.806000 1 1.000000 9 0.000000
212 3 642.506000 -2858.610000 492.517000 1 1.000000 9 0.000000
213 2 598.802000 -2872.800000 516.656000 1 1.000000 9 -3.000000
214 2 598.661000 -2863.580000 513.141000 1 1.000000 1 -3.000000
215 2 596.157000 -2854.050000 511.944000 1 1.000000 1 -3.000000
216 2 595.924000 -2844.250000 511.824000 1 1.000000 1 -3.000000
217 2 600.807000 -2835.810000 513.747000 1 1.000000 1 -3.000000
218 2 603.675000 -2827.380000 517.959000 1 1.000000 1 -3.000000
219 2 607.535000 -2819.050000 521.874000 1 1.000000 1 -3.000000
220 2 608.760000 -2809.360000 521.486000 1 1.000000 1 -3.000000
221 2 608.304000 -2799.550000 520.754000 1 1.000000 1 -3.000000
222 2 610.019000 -2789.840000 520.215000 1 1.000000 1 -3.000000
223 2 609.381000 -2779.990000 520.248000 1 1.000000 1 -3.000000
224 2 610.119000 -2770.180000 520.049000 1 1.000000 1 -3.000000
225 2 611.604000 -2760.410000 521.488000 1 1.000000 1 -3.000000
226 2 616.737000 -2752.540000 524.135000 1 1.000000 1 -3.000000
227 2 617.955000 -2743.610000 528.160000 1 1.000000 1 -3.000000
228 2 620.045000 -2734.250000 530.479000 1 1.000000 1 -3.000000
229 2 623.375000 -2725.350000 533.108000 1 1.000000 1 -3.000000
230 2 626.340000 -2719.370000 540.421000 1 1.000000 1 -3.000000
231 2 625.516000 -2713.850000 548.600000 1 1.000000 1 -3.000000
232 2 625.225000 -2709.780000 557.487000 1 1.000000 1 -3.000000
233 2 622.278000 -2707.500000 566.719000 1 1.000000 1 -3.000000
234 2 616.608000 -2707.480000 574.895000 1 1.000000 1 -3.000000
235 2 611.716000 -2705.980000 583.557000 1 1.000000 1 -3.000000
236 2 606.038000 -2703.570000 591.510000 1 1.000000 1 -3.000000
237 2 602.079000 -2698.620000 599.125000 1 1.000000 10 -3.000000
238 1 571.552000 -2734.360000 603.608000 1 1.000000 10 0.000000
239 3 573.585000 -2729.740000 568.996000 1 1.000000 10 0.000000
240 2 543.553000 -2768.310000 586.670000 1 1.000000 10 -3.000000
241 2 549.078000 -2767.110000 578.495000 1 1.000000 1 -3.000000
242 2 554.513000 -2765.880000 570.254000 1 1.000000 1 -3.000000
243 2 556.643000 -2767.590000 560.742000 1 1.000000 1 -3.000000
244 2 559.025000 -2766.610000 551.217000 1 1.000000 1 -3.000000
245 2 560.860000 -2762.680000 542.228000 1 1.000000 1 -3.000000
246 2 563.932000 -2758.160000 533.930000 1 1.000000 1 -3.000000
247 2 567.632000 -2755.980000 524.942000 1 1.000000 1 -3.000000
248 2 567.083000 -2755.930000 515.092000 1 1.000000 1 -3.000000
249 2 570.233000 -2753.530000 505.999000 1 1.000000 1 -3.000000
250 2 572.017000 -2754.550000 496.312000 1 1.000000 1 -3.000000
251 2 574.355000 -2756.660000 486.841000 1 1.000000 1 -3.000000
252 2 575.233000 -2759.540000 477.356000 1 1.000000 1 -3.000000
253 2 578.706000 -2762.830000 468.702000 1 1.000000 1 -3.000000
254 2 581.042000 -2764.350000 459.293000 1 1.000000 1 -3.000000
255 2 586.544000 -2763.290000 451.082000 1 1.000000 1 -3.000000
256 2 594.854000 -2760.200000 446.946000 1 1.000000 1 -3.000000
257 2 603.082000 -2756.210000 443.000000 1 1.000000 1 -3.000000
258 2 612.125000 -2754.160000 439.409000 1 1.000000 1 -3.000000
259 2 621.789000 -2753.230000 437.725000 1 1.000000 1 -3.000000
260 2 631.522000 -2755.430000 437.307000 1 1.000000 1 -3.000000
261 2 641.318000 -2755.610000 436.118000 1 1.000000 1 -3.000000
262 2 651.091000 -2757.230000 437.182000 1 1.000000 1 -3.000000
263 2 661.055000 -2757.480000 437.047000 1 1.000000 1 -3.000000
264 2 670.584000 -2757.600000 439.358000 1 1.000000 11 -3.000000
265 1 683.257000 -2785.850000 403.755000 1 1.000000 11 0.000000
266 3 650.537000 -2776.630000 395.598000 1 1.000000 11 0.000000
267 2 674.762000 -2810.890000 364.698000 1 1.000000 11 -3.000000
268 2 664.977000 -2810.190000 363.498000 1 1.000000 1 -3.000000
269 2 655.301000 -2808.410000 363.403000 1 1.000000 1 -3.000000
270 2 646.747000 -2804.670000 359.876000 1 1.000000 1 -3.000000
271 2 638.019000 -2800.850000 357.121000 1 1.000000 1 -3.000000
272 2 631.471000 -2793.440000 356.893000 1 1.000000 1 -3.000000
273 2 627.028000 -2784.610000 357.437000 1 1.000000 1 -3.000000
274 2 625.371000 -2774.910000 359.242000 1 1.000000 1 -3.000000
275 2 624.805000 -2765.480000 362.125000 1 1.000000 1 -3.000000
276 2 621.042000 -2757.730000 366.837000 1 1.000000 1 -3.000000
277 2 621.018000 -2748.750000 370.915000 1 1.000000 1 -3.000000
278 2 619.938000 -2740.400000 376.328000 1 1.000000 1 -3.000000
279 2 616.885000 -2731.040000 377.120000 1 1.000000 1 -3.000000
280 2 614.520000 -2721.450000 376.818000 1 1.000000 1 -3.000000
281 2 611.614000 -2712.210000 375.217000 1 1.000000 1 -3.000000
282 2 607.855000 -2703.240000 376.786000 1 1.000000 1 -3.000000
283 2 605.042000 -2693.770000 376.491000 1 1.000000 1 -3.000000
284 2 601.975000 -2684.660000 374.669000 1 1.000000 1 -3.000000
285 2 598.706000 -2676.580000 370.016000 1 1.000000 1 -3.000000
286 2 594.195000 -2670.050000 364.055000 1 1.000000 1 -3.000000
287 2 591.971000 -2662.820000 357.675000 1 1.000000 1 -3.000000
288 2 589.622000 -2657.680000 349.526000 1 1.000000 1 -3.000000
289 2 588.105000 -2651.490000 341.926000 1 1.000000 1 -3.000000
290 2 584.155000 -2645.210000 335.304000 1 1.000000 1 -3.000000
291 2 582.913000 -2641.060000 326.448000 1 1.000000 12 -3.000000
292 1 624.100000 -2618.190000 324.702000 1 1.000000 12 0.000000
293 3 629.058000 -2641.790000 350.041000 1 1.000000 12 0.000000
294 2 668.701000 -2610.530000 337.969000 1 1.000000 12 -3.000000
295 2 664.311000 -2614.060000 346.180000 1 1.000000 1 -3.000000
296 2 664.705000 -2614.420000 356.046000 1 1.000000 1 -3.000000
297 2 665.029000 -2613.530000 365.880000 1 1.000000 1 -3.000000
298 2 666.577000 -2611.820000 375.571000 1 1.000000 1 -3.000000
299 2 667.688000 -2610.990000 385.398000 1 1.000000 1 -3.000000
300 2 672.170000 -2610.700000 394.376000 1 1.000000 1 -3.000000
301 2 674.712000 -2612.740000 403.723000 1 1.000000 1 -3.000000
302 2 679.021000 -2614.680000 412.304000 1 1.000000 1 -3.000000
303 2 684.096000 -2615.950000 420.722000 1 1.000000 1 -3.000000
304 2 687.582000 -2618.390000 429.536000 1 1.000000 1 -3.000000
305 2 695.568000 -2618.680000 435.425000 1 1.000000 1 -3.000000
306 2 703.864000 -2618.790000 440.845000 1 1.000000 1 -3.000000
307 2 711.883000 -2619.320000 446.578000 1 1.000000 1 -3.000000
308 2 721.180000 -2619.650000 450.230000 1 1.000000 1 -3.000000
309 2 729.841000 -2618.690000 454.732000 1 1.000000 1 -3.000000
310 2 738.104000 -2619.330000 460.153000 1 1.000000 1 -3.000000
311 2 744.995000 -2616.790000 466.763000 1 1.000000 1 -3.000000
312 2 754.001000 -2618.280000 470.554000 1 1.000000 1 -3.000000
313 2 762.185000 -2617.330000 476.068000 1 1.000000 1 -3.000000
314 2 768.482000 -2615.620000 483.595000 1 1.000000 1 -3.000000
315 2 775.809000 -2616.820000 490.105000 1 1.000000 1 -3.000000
316 2 784.398000 -2619.030000 494.234000 1 1.000000 1 -3.000000
317 2 792.647000 -2622.090000 498.617000 1 1.000000 1 -3.000000
318 2 800.923000 -2626.380000 502.280000 1 1.000000 13 -3.000000
319 1 781.142000 -2667.740000 513.365000 1 1.000000 13 0.000000
320 3 767.697000 -2660.640000 481.890000 1 1.000000 13 0.000000
321 2 754.113000 -2705.400000 504.637000 1 1.000000 13 -3.000000
322 2 746.354000 -2699.450000 502.434000 1 1.000000 1 -3.000000
323 2 740.961000 -2691.210000 502.804000 1 1.000000 1 -3.000000
324 2 733.999000 -2684.220000 503.625000 1 1.000000 1 -3.000000
325 2 725.884000 -2679.600000 506.569000 1 1.000000 1 -3.000000
326 2 716.916000 -2675.540000 507.480000 1 1.000000 1 -3.000000
327 2 707.027000 -2674.470000 507.235000 1 1.000000 1 -3.000000
328 2 697.575000 -2677.510000 507.734000 1 1.000000 1 -3.000000
329 2 687.795000 -2676.030000 508.328000 1 1.000000 1 -3.000000
330 2 678.766000 -2672.110000 508.028000 1 1.000000 1 -3.000000
331 2 668.899000 -2671.780000 508.956000 1 1.000000 1 -3.000000
332 2 659.073000 -2671.930000 507.543000 1 1.000000 1 -3.000000
333 2 649.147000 -2673.050000 507.574000 1 1.000000 1 -3.000000
334 2 640.022000 -2676.260000 509.643000 1 1.000000 1 -3.000000
335 2 630.306000 -2678.530000 509.318000 1 1.000000 1 -3.000000
336 2 620.757000 -2681.000000 509.758000 1 1.000000 1 -3.000000
337 2 611.428000 -2683.800000 508.586000 1 1.000000 1 -3.000000
338 2 603.515000 -2689.350000 506.088000 1 1.000000 1 -3.000000
339 2 596.184000 -2694.920000 502.674000 1 1.000000 1 -3.000000
340 2 589.015000 -2699.670000 497.695000 1 1.000000 1 -3.000000
341 2 582.899000 -2705.790000 492.768000 1 1.000000 1 -3.000000
342 2 575.237000 -2709.540000 487.690000 1 1.000000 1 -3.000000
343 2 566.966000 -2713.550000 483.961000 1 1.000000 1 -3.000000
344 2 558.391000 -2715.410000 479.333000 1 1.000000 1 -3.000000
345 2 550.050000 -2719.560000 476.075000 1 1.000000 14 -3.000000
346 1 530.693000 -2677.590000 466.479000 1 1.000000 14 0.000000
347 3 563.397000 -2669.620000 476.100000 1 1.000000 14 0.000000
348 2 531.379000 -2630.420000 464.652000 1 1.000000 14 -3.000000
349 2 540.745000 -2629.990000 461.680000 1 1.000000 1 -3.000000
350 2 550.568000 -2628.720000 459.959000 1 1.000000 1 -3.000000
351 2 559.984000 -2626.130000 458.183000 1 1.000000 1 -3.000000
352 2 569.911000 -2625.320000 457.553000 1 1.000000 1 -3.000000
353 2 579.011000 -2625.730000 461.422000 1 1.000000 1 -3.000000
354 2 585.288000 -2628.800000 468.407000 1 1.000000 1 -3.000000
355 2 588.226000 -2632.930000 476.909000 1 1.000000 1 -3.000000
356 2 593.563000 -2635.410000 484.947000 1 1.000000 1 -3.000000
357 2 597.516000 -2636.290000 493.962000 1 1.000000 1 -3.000000
358 2 598.695000 -2640.060000 503.013000 1 1.000000 1 -3.000000
359 2 596.027000 -2647.800000 508.733000 1 1.000000 1 -3.000000
360 2 592.229000 -2653.240000 515.920000 1 1.000000 1 -3.000000
361 2 590.041000 -2656.770000 524.903000 1 1.000000 1 -3.000000
362 2 587.513000 -2656.860000 534.572000 1 1.000000 1 -3.000000
363 2 583.405000 -2659.590000 543.073000 1 1.000000 1 -3.000000
364 2 578.711000 -2663.310000 550.937000 1 1.000000 1 -3.000000
365 2 572.903000 -2667.090000 558.108000 1 1.000000 1 -3.000000
366 2 568.569000 -2667.100000 566.891000 1 1.000000 1 -3.000000
367 2 566.613000 -2665.850000 576.540000 1 1.000000 1 -3.000000
368 2 562.435000 -2665.660000 585.515000 1 1.000000 1 -3.000000
369 2 557.950000 -2662.870000 593.905000 1 1.000000 1 -3.000000
370 2 554.526000 -2658.730000 602.167000 1 1.000000 1 -3.000000
371 2 552.142000 -2655.430000 611.152000 1 1.000000 1 -3.000000
372 2 551.695000 -2653.950000 620.952000 1 1.000000 15 -3.000000
373 1 505.416000 -2661.810000 625.240000 1 1.000000 15 0.000000
374 3 511.045000 -2666.330000 591.076000 1 1.000000 15 0.000000
375 2 462.151000 -2669.590000 608.056000 1 1.000000 15 -3.000000
376 2 464.645000 -2674.950000 600.017000 1 1.000000 1 -3.000000
377 2 469.045000 -2678.430000 591.927000 1 1.000000 1 -3.000000
378 2 470.311000 -2682.180000 582.824000 1 1.000000 1 -3.000000
379 2 470.875000 -2683.790000 573.102000 1 1.000000 1 -3.000000
380 2 472.909000 -2684.540000 563.437000 1 1.000000 1 -3.000000
381 2 471.725000 -2682.920000 553.782000 1 1.000000 1 -3.000000
382 2 470.515000 -2681.500000 544.086000 1 1.000000 1 -3.000000
383 2 467.591000 -2680.500000 534.811000 1 1.000000 1 -3.000000
384 2 468.674000 -2679.330000 524.996000 1 1.000000 1 -3.000000
385 2 469.309000 -2675.870000 515.743000 1 1.000000 1 -3.000000
386 2 468.572000 -2674.100000 506.110000 1 1.000000 1 -3.000000
387 2 466.870000 -2674.110000 496.352000 1 1.000000 1 -3.000000
388 2 467.590000 -2676.630000 486.755000 1 1.000000 1 -3.000000
389 2 470.545000 -2678.650000 477.603000 1 1.000000 1 -3.000000
390 2 471.470000 -2682.160000 468.265000 1 1.000000 1 -3.000000
391 2 477.107000 -2687.830000 462.494000 1 1.000000 1 -3.000000
392 2 483.096000 -2691.930000 455.801000 1 1.000000 1 -3.000000
393 2 489.093000 -2695.630000 448.924000 1 1.000000 1 -3.000000
394 2 495.098000 -2701.250000 443.171000 1 1.000000 1 -3.000000
395 2 500.014000 -2707.940000 437.743000 1 1.000000 1 -3.000000
396 2 504.069000 -2715.520000 433.045000 1 1.000000 1 -3.000000
397 2 510.095000 -2720.010000 426.549000 1 1.000000 1 -3.000000
398 2 519.218000 -2721.610000 423.081000 1 1.000000 1 -3.000000
399 2 527.277000 -2724.110000 417.735000 1 1.000000 16 -3.000000
400 1 495.653000 -2738.320000 385.737000 1 1.000000 16 0.000000
401 3 480.917000 -2709.590000 399.211000 1 1.000000 16 0.000000
402 2 455.099000 -2734.630000 361.937000 1 1.000000 16 -3.000000
403 2 451.987000 -2726.450000 366.585000 1 1.000000 1 -3.000000
404 2 446.990000 -2718.180000 368.606000 1 1.000000 1 -3.000000
405 2 444.116000 -2709.690000 372.664000 1 1.000000 1 -3.000000
406 2 441.962000 -2700.630000 376.348000 1 1.000000 1 -3.000000
407 2 443.468000 -2691.490000 379.578000 1 1.000000 1 -3.000000
408 2 443.152000 -2681.840000 381.793000 1 1.000000 1 -3.000000
409 2 444.968000 -2672.970000 385.783000 1 1.000000 1 -3.000000
410 2 446.216000 -2663.460000 387.400000 1 1.000000 1 -3.000000
411 2 448.434000 -2653.780000 387.855000 1 1.000000 1 -3.000000
412 2 449.161000 -2643.870000 387.781000 1 1.000000 1 -3.000000
413 2 448.138000 -2634.000000 387.092000 1 1.000000 1 -3.000000
414 2 444.529000 -2625.100000 389.185000 1 1.000000 1 -3.000000
415 2 437.781000 -2618.410000 391.731000 1 1.000000 1 -3.000000
416 2 430.468000 -2613.610000 396.248000 1 1.000000 1 -3.000000
417 2 420.904000 -2611.980000 398.695000 1 1.000000 1 -3.000000
418 2 411.728000 -2609.270000 401.101000 1 1.000000 1 -3.000000
419 2 402.643000 -2605.790000 403.261000 1 1.000000 1 -3.000000
420 2 394.279000 -2601.620000 406.383000 1 1.000000 1 -3.000000
421 2 388.549000 -2594.270000 409.783000 1 1.000000 1 -3.000000
422 2 384.491000 -2585.270000 410.551000 1 1.000000 1 -3.000000
423 2 379.332000 -2576.850000 411.508000 1 1.000000 1 -3.000000
424 2 374.732000 -2569.250000 416.005000 1 1.000000 1 -3.000000
425 2 373.256000 -2563.440000 423.808000 1 1.000000 1 -3.000000
426 2 370.511000 -2558.150000 431.908000 1 1.000000 17 -3.000000
427 1 368.711000 -2520.830000 403.166000 1 1.000000 17 0.000000
428 3 401.781000 -2531.590000 400.137000 1 1.000000 17 0.000000
429 2 386.887000 -2490.860000 371.597000 1 1.000000 17 -3.000000
430 2 393.941000 -2497.490000 369.184000 1 1.000000 1 -3.000000
431 2 403.078000 -2500.100000 366.188000 1 1.000000 1 -3.000000
432 2 411.284000 -2505.200000 363.814000 1 1.000000 1 -3.000000
433 2 418.761000 -2511.310000 361.417000 1 1.000000 1 -3.000000
434 2 425.441000 -2517.980000 358.475000 1 1.000000 1 -3.000000
435 2 434.592000 -2521.570000 360.363000 1 1.000000 1 -3.000000
436 2 444.078000 -2523.100000 362.795000 1 1.000000 1 -3.000000
437 2 453.482000 -2525.930000 363.745000 1 1.000000 1 -3.000000
438 2 463.291000 -2525.860000 365.638000 1 1.000000 1 -3.000000
439 2 472.991000 -2525.630000 367.516000 1 1.000000 1 -3.000000
440 2 482.631000 -2524.410000 365.488000 1 1.000000 1 -3.000000
441 2 492.577000 -2524.340000 366.169000 1 1.000000 1 -3.000000
442 2 502.602000 -2523.840000 365.504000 1 1.000000 1 -3.000000
443 2 512.035000 -2524.020000 362.570000 1 1.000000 1 -3.000000
444 2 520.874000 -2521.130000 359.280000 1 1.000000 1 -3.000000
445 2 529.751000 -2521.290000 354.914000 1 1.000000 1 -3.000000
446 2 537.663000 -2519.470000 349.143000 1 1.000000 1 -3.000000
447 2 543.378000 -2516.470000 341.636000 1 1.000000 1 -3.000000
448 2 547.915000 -2519.570000 333.396000 1 1.000000 1 -3.000000
449 2 551.820000 -2519.400000 324.344000 1 1.000000 1 -3.000000
450 2 557.199000 -2516.030000 316.765000 1 1.000000 1 -3.000000
451 2 563.257000 -2510.080000 311.466000 1 1.000000 1 -3.000000
452 2 567.865000 -2505.580000 304.109000 1 1.000000 1 -3.000000
453 2 572.539000 -2502.280000 296.002000 1 1.000000 18 -3.000000
454 1 538.572000 -2472.210000 283.068000 1 1.000000 18 0.000000
455 3 530.632000 -2479.130000 316.556000 1 1.000000 18 0.000000
456 2 501.631000 -2444.080000 291.585000 1 1.000000 18 -3.000000
457 2 502.781000 -2441.310000 300.968000 1 1.000000 1 -3.000000
458 2 505.286000 -2440.330000 310.625000 1 1.000000 1 -3.000000
459 2 505.593000 -2436.120000 319.544000 1 1.000000 1 -3.000000
460 2 505.909000 -2433.790000 329.135000 1 1.000000 1 -3.000000
461 2 506.189000 -2430.090000 338.421000 1 1.000000 1 -3.000000
462 2 508.154000 -2423.920000 345.892000 1 1.000000 1 -3.000000
463 2 508.699000 -2417.950000 353.778000 1 1.000000 1 -3.000000
464 2 509.341000 -2411.840000 361.587000 1 1.000000 1 -3.000000
465 2 508.933000 -2406.020000 369.519000 1 1.000000 1 -3.000000