LAMMPS data file

4067 atoms
4067 ellipsoids
4516 bonds
8882 angles
0 dihedrals

3 atom types
5 bond types
12 angle types
0 dihedral types

-4631.092947 4670.465898 xlo xhi
-4631.092947 4670.465898 ylo yhi
-4631.092947 4670.465898 zlo zhi

Masses

1 196016.000000
2 1950.000000
3 19500.000000

Atoms

1 2 555.905000 -3153.490000 453.501000 1 1.000000 1 -3.000000
2 2 547.028000 -3155.020000 457.555000 1 1.000000 1 -3.000000
3 2 537.474000 -3155.430000 460.323000 1 1.000000 1 -3.000000
4 2 530.037000 -3155.900000 466.692000 1 1.000000 1 -3.000000
5 2 523.524000 -3155.810000 474.215000 1 1.000000 1 -3.000000
6 2 516.464000 -3157.340000 481.129000 1 1.000000 1 -3.000000
7 2 511.406000 -3154.280000 489.065000 1 1.000000 1 -3.000000
8 2 503.514000 -3152.300000 494.571000 1 1.000000 1 -3.000000
9 2 496.291000 -3149.700000 500.635000 1 1.000000 1 -3.000000
10 2 490.013000 -3145.650000 507.202000 1 1.000000 1 -3.000000
11 2 484.304000 -3141.530000 514.269000 1 1.000000 1 -3.000000
12 2 477.352000 -3142.510000 521.173000 1 1.000000 1 -3.000000
13 2 471.748000 -3142.250000 529.331000 1 1.000000 1 -3.000000
14 2 466.499000 -3143.990000 537.438000 1 1.000000 1 -3.000000
15 2 461.502000 -3145.490000 545.957000 1 1.000000 1 -3.000000
16 2 457.790000 -3147.260000 555.020000 1 1.000000 1 -3.000000
17 2 456.394000 -3150.730000 564.173000 1 1.000000 1 -3.000000
18 2 454.472000 -3153.290000 573.424000 1 1.000000 1 -3.000000
19 2 455.482000 -3153.760000 583.318000 1 1.000000 1 -3.000000
20 2 455.189000 -3155.320000 593.258000 1 1.000000 1 -3.000000
21 2 455.910000 -3153.820000 603.103000 1 1.000000 2 -3.000000
22 1 498.499000 -3134.880000 610.101000 1 1.000000 2 0.000000
23 3 496.352000 -3136.850000 575.275000 1 1.000000 2 0.000000
24 2 539.911000 -3117.350000 595.896000 1 1.000000 2 -3.000000
25 2 538.937000 -3116.750000 586.074000 1 1.000000 1 -3.000000
26 2 534.702000 -3113.830000 577.557000 1 1.000000 1 -3.000000
27 2 529.312000 -3108.710000 570.948000 1 1.000000 1 -3.000000
28 2 525.627000 -3102.550000 564.352000 1 1.000000 1 -3.000000
29 2 521.315000 -3097.520000 557.037000 1 1.000000 1 -3.000000
30 2 515.371000 -3090.940000 552.633000 1 1.000000 1 -3.000000
31 2 510.874000 -3084.300000 546.872000 1 1.000000 1 -3.000000
32 2 506.868000 -3078.640000 539.920000 1 1.000000 1 -3.000000
33 2 504.163000 -3071.740000 533.352000 1 1.000000 1 -3.000000
34 2 505.306000 -3064.280000 526.985000 1 1.000000 1 -3.000000
35 2 505.315000 -3055.620000 522.570000 1 1.000000 1 -3.000000
36 2 503.027000 -3046.590000 519.080000 1 1.000000 1 -3.000000
37 2 499.193000 -3037.620000 520.213000 1 1.000000 1 -3.000000
38 2 496.222000 -3028.150000 519.726000 1 1.000000 1 -3.000000
39 2 495.592000 -3018.690000 516.751000 1 1.000000 1 -3.000000
40 2 492.356000 -3010.290000 512.789000 1 1.000000 1 -3.000000
41 2 489.142000 -3001.850000 508.945000 1 1.000000 1 -3.000000
42 2 486.785000 -2992.440000 507.037000 1 1.000000 1 -3.000000
43 2 486.662000 -2982.420000 506.791000 1 1.000000 1 -3.000000
44 2 484.357000 -2973.020000 508.550000 1 1.000000 1 -3.000000
45 2 482.919000 -2963.750000 505.300000 1 1.000000 1 -3.000000
46 2 481.425000 -2954.520000 501.848000 1 1.000000 1 -3.000000
47 2 483.144000 -2944.750000 501.329000 1 1.000000 1 -3.000000
48 2 485.049000 -2935.050000 500.706000 1 1.000000 3 -3.000000
49 1 523.694000 -2935.490000 473.529000 1 1.000000 3 0.000000
50 3 517.947000 -2969.390000 480.012000 1 1.000000 3 0.000000
51 2 559.096000 -2956.690000 450.670000 1 1.000000 3 -3.000000
52 2 553.981000 -2964.590000 453.542000 1 1.000000 1 -3.000000
53 2 550.408000 -2973.880000 454.361000 1 1.000000 1 -3.000000
54 2 546.862000 -2982.510000 451.482000 1 1.000000 1 -3.000000
55 2 544.196000 -2991.960000 450.741000 1 1.000000 1 -3.000000
56 2 540.529000 -3000.440000 447.262000 1 1.000000 1 -3.000000
57 2 536.087000 -3008.990000 444.982000 1 1.000000 1 -3.000000
58 2 532.952000 -3018.030000 442.955000 1 1.000000 1 -3.000000
59 2 532.911000 -3027.680000 439.969000 1 1.000000 1 -3.000000
60 2 532.592000 -3036.980000 436.381000 1 1.000000 1 -3.000000
61 2 533.185000 -3046.440000 433.388000 1 1.000000 1 -3.000000
62 2 531.508000 -3054.850000 428.474000 1 1.000000 1 -3.000000
63 2 530.860000 -3061.600000 421.222000 1 1.000000 1 -3.000000
64 2 530.438000 -3070.330000 416.468000 1 1.000000 1 -3.000000
65 2 534.097000 -3075.300000 408.672000 1 1.000000 1 -3.000000
66 2 537.049000 -3081.650000 401.585000 1 1.000000 1 -3.000000
67 2 538.246000 -3089.540000 395.698000 1 1.000000 1 -3.000000
68 2 537.677000 -3097.940000 390.593000 1 1.000000 1 -3.000000
69 2 536.270000 -3105.760000 384.795000 1 1.000000 1 -3.000000
70 2 536.300000 -3113.530000 378.704000 1 1.000000 1 -3.000000
71 2 534.572000 -3121.640000 373.250000 1 1.000000 1 -3.000000
72 2 530.736000 -3129.210000 368.406000 1 1.000000 1 -3.000000
73 2 527.040000 -3136.610000 363.235000 1 1.000000 1 -3.000000
74 2 527.966000 -3142.010000 354.931000 1 1.000000 1 -3.000000
75 2 528.788000 -3150.030000 349.292000 1 1.000000 4 -3.000000
76 1 530.907000 -3124.180000 309.897000 1 1.000000 4 0.000000
77 3 529.506000 -3100.050000 335.284000 1 1.000000 4 0.000000
78 2 531.243000 -3083.350000 286.163000 1 1.000000 4 -3.000000
79 2 535.831000 -3079.580000 294.038000 1 1.000000 1 -3.000000
80 2 540.232000 -3075.730000 302.157000 1 1.000000 1 -3.000000
81 2 547.186000 -3072.900000 308.724000 1 1.000000 1 -3.000000
82 2 554.143000 -3074.470000 315.630000 1 1.000000 1 -3.000000
83 2 560.819000 -3079.530000 320.920000 1 1.000000 1 -3.000000
84 2 566.791000 -3083.610000 327.605000 1 1.000000 1 -3.000000
85 2 573.104000 -3088.000000 334.039000 1 1.000000 1 -3.000000
86 2 579.301000 -3092.240000 340.582000 1 1.000000 1 -3.000000
87 2 586.258000 -3093.790000 347.387000 1 1.000000 1 -3.000000
88 2 593.554000 -3093.300000 354.118000 1 1.000000 1 -3.000000
89 2 600.915000 -3095.000000 360.877000 1 1.000000 1 -3.000000
90 2 608.689000 -3097.660000 366.460000 1 1.000000 1 -3.000000
91 2 615.670000 -3100.230000 372.925000 1 1.000000 1 -3.000000
92 2 621.718000 -3105.300000 378.990000 1 1.000000 1 -3.000000
93 2 628.060000 -3112.140000 382.402000 1 1.000000 1 -3.000000
94 2 634.896000 -3118.320000 385.800000 1 1.000000 1 -3.000000
95 2 641.669000 -3123.950000 390.172000 1 1.000000 1 -3.000000
96 2 645.941000 -3130.300000 396.449000 1 1.000000 1 -3.000000
97 2 649.584000 -3135.220000 404.223000 1 1.000000 1 -3.000000
98 2 654.540000 -3142.440000 408.701000 1 1.000000 1 -3.000000
99 2 659.977000 -3148.010000 414.794000 1 1.000000 1 -3.000000
100 2 661.724000 -3151.640000 423.864000 1 1.000000 1 -3.000000
101 2 664.373000 -3155.210000 432.805000 1 1.000000 1 -3.000000
102 2 668.378000 -3158.890000 441.048000 1 1.000000 5 -3.000000
103 1 657.189000 -3123.580000 470.304000 1 1.000000 5 0.000000
104 3 635.441000 -3118.600000 443.289000 1 1.000000 5 0.000000
105 2 633.171000 -3084.910000 482.528000 1 1.000000 5 -3.000000
106 2 630.671000 -3081.560000 473.634000 1 1.000000 1 -3.000000
107 2 631.389000 -3075.880000 465.540000 1 1.000000 1 -3.000000
108 2 633.011000 -3072.250000 456.574000 1 1.000000 1 -3.000000
109 2 635.651000 -3070.710000 447.128000 1 1.000000 1 -3.000000
110 2 637.838000 -3067.610000 437.932000 1 1.000000 1 -3.000000
111 2 640.582000 -3063.450000 429.303000 1 1.000000 1 -3.000000
112 2 643.280000 -3059.700000 420.601000 1 1.000000 1 -3.000000
113 2 644.164000 -3053.850000 412.715000 1 1.000000 1 -3.000000
114 2 643.257000 -3046.250000 406.415000 1 1.000000 1 -3.000000
115 2 643.190000 -3039.430000 399.311000 1 1.000000 1 -3.000000
116 2 641.904000 -3030.850000 394.598000 1 1.000000 1 -3.000000
117 2 642.989000 -3025.490000 386.516000 1 1.000000 1 -3.000000
118 2 643.922000 -3018.610000 379.348000 1 1.000000 1 -3.000000
119 2 642.198000 -3011.930000 372.077000 1 1.000000 1 -3.000000
120 2 637.931000 -3004.470000 367.294000 1 1.000000 1 -3.000000
121 2 631.511000 -2997.400000 364.232000 1 1.000000 1 -3.000000
122 2 625.480000 -2992.980000 357.740000 1 1.000000 1 -3.000000
123 2 617.509000 -2989.360000 353.389000 1 1.000000 1 -3.000000
124 2 608.220000 -2987.490000 350.386000 1 1.000000 1 -3.000000
125 2 598.444000 -2985.990000 349.797000 1 1.000000 1 -3.000000
126 2 590.309000 -2980.220000 349.208000 1 1.000000 1 -3.000000
127 2 582.072000 -2975.100000 350.984000 1 1.000000 1 -3.000000
128 2 574.696000 -2968.470000 349.685000 1 1.000000 1 -3.000000
129 2 570.776000 -2959.450000 347.713000 1 1.000000 6 -3.000000
130 1 578.477000 -2941.800000 390.673000 1 1.000000 6 0.000000
131 3 607.410000 -2960.660000 384.754000 1 1.000000 6 0.000000
132 2 603.778000 -2935.700000 430.030000 1 1.000000 6 -3.000000
133 2 607.284000 -2944.610000 432.549000 1 1.000000 1 -3.000000
134 2 613.048000 -2952.330000 434.733000 1 1.000000 1 -3.000000
135 2 619.961000 -2959.240000 434.582000 1 1.000000 1 -3.000000
136 2 625.577000 -2967.380000 436.009000 1 1.000000 1 -3.000000
137 2 630.495000 -2975.190000 439.566000 1 1.000000 1 -3.000000
138 2 635.549000 -2982.360000 444.200000 1 1.000000 1 -3.000000
139 2 636.410000 -2991.280000 448.310000 1 1.000000 1 -3.000000
140 2 637.169000 -2999.800000 453.365000 1 1.000000 1 -3.000000
141 2 640.472000 -3006.740000 459.876000 1 1.000000 1 -3.000000
142 2 645.730000 -3012.050000 466.297000 1 1.000000 1 -3.000000
143 2 649.938000 -3018.160000 472.721000 1 1.000000 1 -3.000000
144 2 654.624000 -3021.500000 480.815000 1 1.000000 1 -3.000000
145 2 656.627000 -3024.510000 490.187000 1 1.000000 1 -3.000000
146 2 661.249000 -3028.270000 497.861000 1 1.000000 1 -3.000000
147 2 668.154000 -3026.460000 504.762000 1 1.000000 1 -3.000000
148 2 671.513000 -3025.660000 514.003000 1 1.000000 1 -3.000000
149 2 673.643000 -3027.250000 523.468000 1 1.000000 1 -3.000000
150 2 677.928000 -3030.660000 531.758000 1 1.000000 1 -3.000000
151 2 685.111000 -3033.450000 537.946000 1 1.000000 1 -3.000000
152 2 691.276000 -3034.250000 545.723000 1 1.000000 1 -3.000000
153 2 698.523000 -3033.830000 552.272000 1 1.000000 1 -3.000000
154 2 707.279000 -3033.660000 556.993000 1 1.000000 1 -3.000000
155 2 714.946000 -3036.480000 562.531000 1 1.000000 1 -3.000000
156 2 723.286000 -3036.590000 567.935000 1 1.000000 7 -3.000000
157 1 723.708000 -2992.640000 550.627000 1 1.000000 7 0.000000
158 3 689.895000 -2998.010000 558.314000 1 1.000000 7 0.000000
159 2 703.012000 -2952.410000 537.100000 1 1.000000 7 -3.000000
160 2 694.763000 -2957.240000 539.446000 1 1.000000 1 -3.000000
161 2 686.283000 -2959.150000 544.410000 1 1.000000 1 -3.000000
162 2 677.606000 -2959.730000 549.146000 1 1.000000 1 -3.000000
163 2 670.171000 -2958.860000 555.593000 1 1.000000 1 -3.000000
164 2 661.447000 -2958.590000 560.325000 1 1.000000 1 -3.000000
165 2 653.474000 -2958.290000 566.210000 1 1.000000 1 -3.000000
166 2 645.183000 -2955.870000 570.850000 1 1.000000 1 -3.000000
167 2 639.830000 -2951.470000 577.979000 1 1.000000 1 -3.000000
168 2 636.017000 -2946.750000 585.629000 1 1.000000 1 -3.000000
169 2 631.085000 -2942.060000 593.049000 1 1.000000 1 -3.000000
170 2 626.127000 -2935.710000 598.971000 1 1.000000 1 -3.000000
171 2 621.562000 -2928.150000 603.405000 1 1.000000 1 -3.000000
172 2 617.934000 -2919.680000 607.247000 1 1.000000 1 -3.000000
173 2 614.650000 -2910.540000 608.489000 1 1.000000 1 -3.000000
174 2 610.399000 -2903.280000 613.583000 1 1.000000 1 -3.000000
175 2 604.720000 -2896.590000 618.130000 1 1.000000 1 -3.000000
176 2 599.863000 -2888.710000 621.772000 1 1.000000 1 -3.000000
177 2 594.222000 -2880.520000 622.444000 1 1.000000 1 -3.000000
178 2 589.272000 -2871.960000 622.833000 1 1.000000 1 -3.000000
179 2 584.426000 -2863.320000 623.403000 1 1.000000 1 -3.000000
180 2 579.450000 -2855.250000 620.340000 1 1.000000 1 -3.000000
181 2 574.090000 -2847.330000 617.227000 1 1.000000 1 -3.000000
182 2 567.808000 -2839.450000 616.454000 1 1.000000 1 -3.000000
183 2 560.214000 -2833.290000 618.081000 1 1.000000 8 -3.000000
184 1 595.083000 -2803.230000 607.456000 1 1.000000 8 0.000000
185 3 609.409000 -2834.400000 601.062000 1 1.000000 8 0.000000
186 2 640.195000 -2792.830000 598.175000 1 1.000000 8 -3.000000
187 2 643.144000 -2800.600000 592.968000 1 1.000000 1 -3.000000
188 2 648.041000 -2807.940000 588.645000 1 1.000000 1 -3.000000
189 2 653.064000 -2813.680000 582.249000 1 1.000000 1 -3.000000
190 2 657.672000 -2819.190000 575.413000 1 1.000000 1 -3.000000
191 2 663.618000 -2826.560000 572.536000 1 1.000000 1 -3.000000
192 2 670.474000 -2833.420000 574.300000 1 1.000000 1 -3.000000
193 2 679.921000 -2836.380000 573.710000 1 1.000000 1 -3.000000
194 2 689.063000 -2839.150000 571.274000 1 1.000000 1 -3.000000
195 2 697.338000 -2841.520000 566.341000 1 1.000000 1 -3.000000
196 2 703.013000 -2844.630000 558.804000 1 1.000000 1 -3.000000
197 2 708.381000 -2844.820000 550.574000 1 1.000000 1 -3.000000
198 2 712.805000 -2841.830000 542.193000 1 1.000000 1 -3.000000
199 2 718.426000 -2836.110000 536.625000 1 1.000000 1 -3.000000
200 2 720.760000 -2826.920000 533.674000 1 1.000000 1 -3.000000
201 2 721.350000 -2818.180000 529.107000 1 1.000000 1 -3.000000
202 2 719.566000 -2810.060000 523.680000 1 1.000000 1 -3.000000
203 2 721.234000 -2801.900000 518.455000 1 1.000000 1 -3.000000
204 2 720.281000 -2792.930000 514.219000 1 1.000000 1 -3.000000
205 2 719.154000 -2787.830000 505.781000 1 1.000000 1 -3.000000
206 2 718.015000 -2780.240000 499.534000 1 1.000000 1 -3.000000
207 2 713.455000 -2772.930000 494.915000 1 1.000000 1 -3.000000
208 2 707.358000 -2767.250000 489.618000 1 1.000000 1 -3.000000
209 2 702.983000 -2758.720000 487.329000 1 1.000000 1 -3.000000
210 2 698.415000 -2750.850000 483.262000 1 1.000000 9 -3.000000
211 1 694.988000 -2722.690000 520.908000 1 1.000000 9 0.000000
212 3 717.283000 -2747.560000 531.345000 1 1.000000 9 0.000000
213 2 706.606000 -2708.720000 564.454000 1 1.000000 9 -3.000000
214 2 714.095000 -2715.040000 563.932000 1 1.000000 1 -3.000000
215 2 721.922000 -2720.760000 561.931000 1 1.000000 1 -3.000000
216 2 731.223000 -2724.080000 560.951000 1 1.000000 1 -3.000000
217 2 741.074000 -2723.410000 561.761000 1 1.000000 1 -3.000000
218 2 750.783000 -2725.540000 562.039000 1 1.000000 1 -3.000000
219 2 760.583000 -2725.040000 560.226000 1 1.000000 1 -3.000000
220 2 769.810000 -2722.230000 557.809000 1 1.000000 1 -3.000000
221 2 779.483000 -2720.710000 556.600000 1 1.000000 1 -3.000000
222 2 787.362000 -2722.780000 550.703000 1 1.000000 1 -3.000000
223 2 796.384000 -2725.250000 547.588000 1 1.000000 1 -3.000000
224 2 805.837000 -2728.100000 546.218000 1 1.000000 1 -3.000000
225 2 814.867000 -2732.110000 545.534000 1 1.000000 1 -3.000000
226 2 823.973000 -2735.030000 547.853000 1 1.000000 1 -3.000000
227 2 833.422000 -2732.270000 545.743000 1 1.000000 1 -3.000000
228 2 841.557000 -2728.870000 541.096000 1 1.000000 1 -3.000000
229 2 850.536000 -2725.280000 538.902000 1 1.000000 1 -3.000000
230 2 859.198000 -2722.810000 534.732000 1 1.000000 1 -3.000000
231 2 867.757000 -2724.390000 530.156000 1 1.000000 1 -3.000000
232 2 876.544000 -2725.830000 525.518000 1 1.000000 1 -3.000000
233 2 884.203000 -2725.520000 519.057000 1 1.000000 1 -3.000000
234 2 890.453000 -2721.990000 512.502000 1 1.000000 1 -3.000000
235 2 897.922000 -2719.700000 506.324000 1 1.000000 1 -3.000000
236 2 905.918000 -2715.090000 502.832000 1 1.000000 1 -3.000000
237 2 915.118000 -2711.790000 504.477000 1 1.000000 10 -3.000000
238 1 927.177000 -2690.440000 464.186000 1 1.000000 10 0.000000
239 3 898.114000 -2708.140000 455.509000 1 1.000000 10 0.000000
240 2 921.602000 -2680.140000 418.463000 1 1.000000 10 -3.000000
241 2 914.329000 -2686.940000 419.547000 1 1.000000 1 -3.000000
242 2 910.019000 -2695.360000 422.394000 1 1.000000 1 -3.000000
243 2 904.474000 -2702.780000 426.035000 1 1.000000 1 -3.000000
244 2 900.794000 -2710.480000 430.878000 1 1.000000 1 -3.000000
245 2 894.981000 -2717.360000 434.578000 1 1.000000 1 -3.000000
246 2 886.002000 -2721.410000 436.082000 1 1.000000 1 -3.000000
247 2 876.113000 -2722.540000 436.757000 1 1.000000 1 -3.000000
248 2 866.325000 -2722.380000 436.947000 1 1.000000 1 -3.000000
249 2 856.993000 -2724.040000 434.362000 1 1.000000 1 -3.000000
250 2 847.772000 -2720.510000 434.090000 1 1.000000 1 -3.000000
251 2 839.590000 -2715.760000 431.381000 1 1.000000 1 -3.000000
252 2 830.449000 -2714.180000 427.621000 1 1.000000 1 -3.000000
253 2 822.446000 -2710.290000 423.123000 1 1.000000 1 -3.000000
254 2 815.121000 -2704.390000 419.839000 1 1.000000 1 -3.000000
255 2 809.423000 -2696.580000 417.837000 1 1.000000 1 -3.000000
256 2 801.485000 -2691.600000 414.336000 1 1.000000 1 -3.000000
257 2 792.361000 -2688.700000 411.938000 1 1.000000 1 -3.000000
258 2 783.484000 -2686.110000 408.476000 1 1.000000 1 -3.000000
259 2 774.190000 -2684.480000 405.785000 1 1.000000 1 -3.000000
260 2 765.783000 -2680.820000 401.696000 1 1.000000 1 -3.000000
261 2 759.061000 -2673.750000 400.016000 1 1.000000 1 -3.000000
262 2 751.917000 -2667.320000 397.801000 1 1.000000 1 -3.000000
263 2 745.053000 -2660.740000 395.087000 1 1.000000 1 -3.000000
264 2 737.575000 -2654.440000 393.276000 1 1.000000 11 -3.000000
265 1 745.909000 -2628.660000 431.953000 1 1.000000 11 0.000000
266 3 776.491000 -2644.740000 426.225000 1 1.000000 11 0.000000
267 2 772.299000 -2615.080000 468.616000 1 1.000000 11 -3.000000
268 2 780.295000 -2611.720000 463.740000 1 1.000000 1 -3.000000
269 2 789.368000 -2610.540000 460.309000 1 1.000000 1 -3.000000
270 2 798.816000 -2607.730000 460.589000 1 1.000000 1 -3.000000
271 2 808.125000 -2604.680000 458.683000 1 1.000000 1 -3.000000
272 2 815.644000 -2603.050000 452.419000 1 1.000000 1 -3.000000
273 2 820.627000 -2597.390000 446.040000 1 1.000000 1 -3.000000
274 2 824.092000 -2590.110000 440.356000 1 1.000000 1 -3.000000
275 2 822.759000 -2582.620000 434.133000 1 1.000000 1 -3.000000
276 2 819.745000 -2575.140000 428.299000 1 1.000000 1 -3.000000
277 2 816.787000 -2566.600000 424.275000 1 1.000000 1 -3.000000
278 2 814.998000 -2556.900000 425.068000 1 1.000000 1 -3.000000
279 2 813.654000 -2547.260000 427.031000 1 1.000000 1 -3.000000
280 2 814.422000 -2537.680000 429.493000 1 1.000000 1 -3.000000
281 2 817.506000 -2528.920000 432.969000 1 1.000000 1 -3.000000
282 2 821.766000 -2520.170000 435.088000 1 1.000000 1 -3.000000
283 2 828.721000 -2513.980000 438.161000 1 1.000000 1 -3.000000
284 2 833.733000 -2505.550000 440.091000 1 1.000000 1 -3.000000
285 2 840.472000 -2499.220000 443.302000 1 1.000000 1 -3.000000
286 2 849.038000 -2494.970000 446.480000 1 1.000000 1 -3.000000
287 2 857.707000 -2490.240000 446.761000 1 1.000000 1 -3.000000
288 2 866.410000 -2485.970000 444.611000 1 1.000000 1 -3.000000
289 2 873.581000 -2479.420000 442.206000 1 1.000000 1 -3.000000
290 2 880.373000 -2473.580000 438.166000 1 1.000000 1 -3.000000
291 2 887.576000 -2471.700000 431.454000 1 1.000000 12 -3.000000
292 1 862.245000 -2444.240000 402.675000 1 1.000000 12 0.000000
293 3 837.807000 -2459.870000 422.244000 1 1.000000 12 0.000000
294 2 822.061000 -2424.090000 388.068000 1 1.000000 12 -3.000000
295 2 816.091000 -2426.790000 395.513000 1 1.000000 1 -3.000000
296 2 811.291000 -2427.320000 403.997000 1 1.000000 1 -3.000000
297 2 808.635000 -2428.790000 413.302000 1 1.000000 1 -3.000000
298 2 801.589000 -2431.700000 419.564000 1 1.000000 1 -3.000000
299 2 795.768000 -2438.320000 424.130000 1 1.000000 1 -3.000000
300 2 790.886000 -2446.360000 427.609000 1 1.000000 1 -3.000000
301 2 784.653000 -2453.220000 430.994000 1 1.000000 1 -3.000000
302 2 777.823000 -2459.030000 435.375000 1 1.000000 1 -3.000000
303 2 768.458000 -2461.260000 437.410000 1 1.000000 1 -3.000000
304 2 760.130000 -2461.150000 442.888000 1 1.000000 1 -3.000000
305 2 751.553000 -2463.120000 447.367000 1 1.000000 1 -3.000000
306 2 742.292000 -2465.460000 449.709000 1 1.000000 1 -3.000000
307 2 733.882000 -2468.930000 453.728000 1 1.000000 1 -3.000000
308 2 729.877000 -2473.710000 461.315000 1 1.000000 1 -3.000000
309 2 727.189000 -2476.070000 470.454000 1 1.000000 1 -3.000000
310 2 724.230000 -2476.650000 479.938000 1 1.000000 1 -3.000000
311 2 722.841000 -2479.720000 489.302000 1 1.000000 1 -3.000000
312 2 719.372000 -2482.120000 498.290000 1 1.000000 1 -3.000000
313 2 713.552000 -2481.970000 506.468000 1 1.000000 1 -3.000000
314 2 709.347000 -2484.200000 515.169000 1 1.000000 1 -3.000000
315 2 706.052000 -2484.990000 524.491000 1 1.000000 1 -3.000000
316 2 704.417000 -2486.820000 534.018000 1 1.000000 1 -3.000000
317 2 703.692000 -2489.330000 543.599000 1 1.000000 1 -3.000000
318 2 703.068000 -2493.610000 552.600000 1 1.000000 13 -3.000000
319 1 664.599000 -2520.710000 549.983000 1 1.000000 13 0.000000
320 3 668.556000 -2509.440000 517.092000 1 1.000000 13 0.000000
321 2 627.244000 -2538.980000 527.515000 1 1.000000 13 -3.000000
322 2 631.284000 -2535.910000 519.049000 1 1.000000 1 -3.000000
323 2 631.666000 -2535.690000 509.159000 1 1.000000 1 -3.000000
324 2 631.097000 -2532.580000 499.686000 1 1.000000 1 -3.000000
325 2 636.150000 -2530.260000 491.546000 1 1.000000 1 -3.000000
326 2 640.746000 -2524.860000 484.481000 1 1.000000 1 -3.000000
327 2 640.498000 -2518.910000 476.738000 1 1.000000 1 -3.000000
328 2 640.916000 -2511.980000 469.766000 1 1.000000 1 -3.000000
329 2 641.498000 -2504.970000 462.841000 1 1.000000 1 -3.000000
330 2 644.289000 -2499.500000 454.901000 1 1.000000 1 -3.000000
331 2 646.407000 -2492.160000 448.518000 1 1.000000 1 -3.000000
332 2 648.307000 -2483.780000 443.728000 1 1.000000 1 -3.000000
333 2 649.933000 -2475.800000 438.137000 1 1.000000 1 -3.000000
334 2 648.593000 -2469.390000 430.707000 1 1.000000 1 -3.000000
335 2 650.704000 -2464.610000 422.318000 1 1.000000 1 -3.000000
336 2 652.536000 -2457.040000 416.092000 1 1.000000 1 -3.000000
337 2 656.530000 -2448.300000 414.023000 1 1.000000 1 -3.000000
338 2 661.620000 -2440.020000 412.031000 1 1.000000 1 -3.000000
339 2 667.447000 -2433.770000 406.949000 1 1.000000 1 -3.000000
340 2 673.988000 -2427.840000 402.247000 1 1.000000 1 -3.000000
341 2 681.493000 -2422.840000 398.316000 1 1.000000 1 -3.000000
342 2 687.794000 -2416.390000 394.215000 1 1.000000 1 -3.000000
343 2 690.885000 -2407.800000 390.164000 1 1.000000 1 -3.000000
344 2 694.601000 -2399.050000 387.425000 1 1.000000 1 -3.000000
345 2 700.006000 -2392.330000 382.410000 1 1.000000 14 -3.000000
346 1 697.471000 -2406.150000 337.425000 1 1.000000 14 0.000000
347 3 670.990000 -2423.230000 352.741000 1 1.000000 14 0.000000
348 2 679.270000 -2431.520000 301.992000 1 1.000000 14 -3.000000
349 2 673.110000 -2436.410000 307.993000 1 1.000000 1 -3.000000
350 2 665.375000 -2440.750000 312.418000 1 1.000000 1 -3.000000
351 2 658.732000 -2446.220000 317.274000 1 1.000000 1 -3.000000
352 2 649.866000 -2450.130000 319.373000 1 1.000000 1 -3.000000
353 2 641.142000 -2454.330000 320.452000 1 1.000000 1 -3.000000
354 2 634.242000 -2460.600000 323.598000 1 1.000000 1 -3.000000
355 2 629.783000 -2468.350000 327.943000 1 1.000000 1 -3.000000
356 2 625.610000 -2476.580000 331.775000 1 1.000000 1 -3.000000
357 2 619.716000 -2483.580000 335.582000 1 1.000000 1 -3.000000
358 2 614.134000 -2491.610000 334.418000 1 1.000000 1 -3.000000
359 2 606.808000 -2498.270000 335.006000 1 1.000000 1 -3.000000
360 2 599.538000 -2505.020000 334.705000 1 1.000000 1 -3.000000
361 2 590.592000 -2509.010000 335.904000 1 1.000000 1 -3.000000
362 2 583.497000 -2515.490000 333.996000 1 1.000000 1 -3.000000
363 2 576.703000 -2521.880000 330.951000 1 1.000000 1 -3.000000
364 2 569.797000 -2528.730000 328.811000 1 1.000000 1 -3.000000
365 2 564.262000 -2534.500000 322.921000 1 1.000000 1 -3.000000
366 2 556.901000 -2538.780000 317.929000 1 1.000000 1 -3.000000
367 2 550.486000 -2541.430000 310.633000 1 1.000000 1 -3.000000
368 2 542.801000 -2542.260000 304.589000 1 1.000000 1 -3.000000
369 2 535.955000 -2543.890000 297.690000 1 1.000000 1 -3.000000
370 2 528.746000 -2542.500000 291.077000 1 1.000000 1 -3.000000
371 2 522.196000 -2545.420000 284.232000 1 1.000000 1 -3.000000
372 2 514.906000 -2547.420000 277.739000 1 1.000000 15 -3.000000
373 1 498.981000 -2582.380000 305.077000 1 1.000000 15 0.000000
374 3 524.055000 -2567.610000 324.622000 1 1.000000 15 0.000000
375 2 500.470000 -2609.840000 343.477000 1 1.000000 15 -3.000000
376 2 506.415000 -2604.950000 349.711000 1 1.000000 1 -3.000000
377 2 510.475000 -2598.700000 356.348000 1 1.000000 1 -3.000000
378 2 514.279000 -2591.560000 362.134000 1 1.000000 1 -3.000000
379 2 516.594000 -2583.220000 367.045000 1 1.000000 1 -3.000000
380 2 516.978000 -2575.010000 372.542000 1 1.000000 1 -3.000000
381 2 519.697000 -2566.090000 375.856000 1 1.000000 1 -3.000000
382 2 520.160000 -2556.610000 378.878000 1 1.000000 1 -3.000000
383 2 519.594000 -2546.730000 378.085000 1 1.000000 1 -3.000000
384 2 520.186000 -2536.950000 377.158000 1 1.000000 1 -3.000000
385 2 521.463000 -2527.220000 376.572000 1 1.000000 1 -3.000000
386 2 521.349000 -2517.410000 374.708000 1 1.000000 1 -3.000000
387 2 523.330000 -2507.690000 376.037000 1 1.000000 1 -3.000000
388 2 525.823000 -2498.620000 378.889000 1 1.000000 1 -3.000000
389 2 526.330000 -2489.360000 382.582000 1 1.000000 1 -3.000000
390 2 529.993000 -2481.470000 387.282000 1 1.000000 1 -3.000000
391 2 533.515000 -2472.770000 390.589000 1 1.000000 1 -3.000000
392 2 540.186000 -2465.680000 392.357000 1 1.000000 1 -3.000000
393 2 544.690000 -2458.060000 396.647000 1 1.000000 1 -3.000000
394 2 550.075000 -2450.030000 398.922000 1 1.000000 1 -3.000000
395 2 552.985000 -2443.840000 406.213000 1 1.000000 1 -3.000000
396 2 557.278000 -2440.900000 414.624000 1 1.000000 1 -3.000000
397 2 561.631000 -2440.880000 423.479000 1 1.000000 1 -3.000000
398 2 568.097000 -2442.610000 430.839000 1 1.000000 1 -3.000000
399 2 573.121000 -2449.800000 435.361000 1 1.000000 16 -3.000000
400 1 597.444000 -2415.180000 456.264000 1 1.000000 16 0.000000
401 3 592.127000 -2403.010000 423.957000 1 1.000000 16 0.000000
402 2 620.645000 -2373.990000 456.316000 1 1.000000 16 -3.000000
403 2 617.120000 -2369.020000 448.686000 1 1.000000 1 -3.000000
404 2 612.453000 -2364.820000 441.064000 1 1.000000 1 -3.000000
405 2 609.587000 -2363.580000 431.658000 1 1.000000 1 -3.000000
406 2 604.519000 -2360.640000 423.581000 1 1.000000 1 -3.000000
407 2 599.470000 -2357.440000 415.578000 1 1.000000 1 -3.000000
408 2 593.169000 -2357.720000 407.890000 1 1.000000 1 -3.000000
409 2 588.095000 -2356.700000 399.435000 1 1.000000 1 -3.000000
410 2 580.412000 -2355.280000 393.391000 1 1.000000 1 -3.000000
411 2 571.861000 -2353.950000 388.489000 1 1.000000 1 -3.000000
412 2 563.176000 -2353.270000 383.595000 1 1.000000 1 -3.000000
413 2 554.363000 -2352.400000 379.291000 1 1.000000 1 -3.000000
414 2 545.412000 -2353.190000 375.315000 1 1.000000 1 -3.000000
415 2 536.029000 -2354.880000 372.591000 1 1.000000 1 -3.000000
416 2 526.780000 -2355.810000 369.140000 1 1.000000 1 -3.000000
417 2 517.746000 -2357.660000 365.550000 1 1.000000 1 -3.000000
418 2 508.164000 -2359.970000 364.462000 1 1.000000 1 -3.000000
419 2 498.568000 -2362.530000 364.827000 1 1.000000 1 -3.000000
420 2 489.570000 -2365.140000 361.297000 1 1.000000 1 -3.000000
421 2 480.395000 -2367.130000 358.385000 1 1.000000 1 -3.000000
422 2 470.915000 -2369.030000 356.863000 1 1.000000 1 -3.000000
423 2 462.317000 -2371.320000 352.527000 1 1.000000 1 -3.000000
424 2 453.534000 -2375.310000 349.956000 1 1.000000 1 -3.000000
425 2 444.435000 -2378.820000 347.995000 1 1.000000 1 -3.000000
426 2 434.860000 -2380.710000 346.703000 1 1.000000 17 -3.000000
427 1 432.929000 -2404.570000 387.344000 1 1.000000 17 0.000000
428 3 461.936000 -2385.210000 390.812000 1 1.000000 17 0.000000
429 2 446.165000 -2413.110000 431.792000 1 1.000000 17 -3.000000
430 2 454.420000 -2407.690000 430.585000 1 1.000000 1 -3.000000
431 2 463.094000 -2403.130000 430.678000 1 1.000000 1 -3.000000
432 2 470.998000 -2397.780000 433.002000 1 1.000000 1 -3.000000
433 2 478.882000 -2391.820000 432.332000 1 1.000000 1 -3.000000
434 2 484.520000 -2383.800000 431.249000 1 1.000000 1 -3.000000
435 2 484.259000 -2373.980000 430.756000 1 1.000000 1 -3.000000
436 2 483.291000 -2364.140000 430.312000 1 1.000000 1 -3.000000
437 2 484.714000 -2355.200000 434.025000 1 1.000000 1 -3.000000
438 2 483.315000 -2348.430000 441.137000 1 1.000000 1 -3.000000
439 2 481.911000 -2340.970000 447.494000 1 1.000000 1 -3.000000
440 2 479.182000 -2334.170000 454.094000 1 1.000000 1 -3.000000
441 2 475.779000 -2329.390000 462.107000 1 1.000000 1 -3.000000
442 2 471.487000 -2325.850000 470.300000 1 1.000000 1 -3.000000
443 2 464.679000 -2321.460000 476.136000 1 1.000000 1 -3.000000
444 2 458.629000 -2315.110000 480.622000 1 1.000000 1 -3.000000
445 2 451.815000 -2310.490000 486.171000 1 1.000000 1 -3.000000
446 2 445.076000 -2304.400000 489.774000 1 1.000000 1 -3.000000
447 2 443.172000 -2296.610000 495.797000 1 1.000000 1 -3.000000
448 2 441.168000 -2288.770000 501.376000 1 1.000000 1 -3.000000
449 2 438.875000 -2280.140000 505.869000 1 1.000000 1 -3.000000
450 2 439.536000 -2272.290000 511.938000 1 1.000000 1 -3.000000
451 2 442.162000 -2265.660000 518.870000 1 1.000000 1 -3.000000
452 2 445.200000 -2258.220000 524.533000 1 1.000000 1 -3.000000
453 2 449.903000 -2251.100000 529.594000 1 1.000000 18 -3.000000
454 1 472.648000 -2214.650000 510.135000 1 1.000000 18 0.000000
455 3 463.556000 -2234.190000 482.476000 1 1.000000 18 0.000000
456 2 486.215000 -2188.260000 473.424000 1 1.000000 18 -3.000000
457 2 481.433000 -2193.610000 466.662000 1 1.000000 1 -3.000000
458 2 477.934000 -2200.570000 460.480000 1 1.000000 1 -3.000000
459 2 475.175000 -2205.550000 452.337000 1 1.000000 1 -3.000000
460 2 474.817000 -2206.960000 442.600000 1 1.000000 1 -3.000000
461 2 475.854000 -2205.600000 432.780000 1 1.000000 1 -3.000000
462 2 475.140000 -2200.610000 424.254000 1 1.000000 1 -3.000000
463 2 471.666000 -2198.780000 415.120000 1 1.000000 1 -3.000000
464 2 464.461000 -2194.160000 409.973000 1 1.000000 1 -3.000000
465 2 457.704000 -2189.770000 404.245000 1 1.000000 1 -3.000000